   * xtb version 6.5.1 (b24c23e) compiled by 'conda@728c89f4b128' on 2022-07-12
          program call               : xtb Fe_Ph3OH_C6_2.xyz --gfn 1 --opt -T 48

   ID    Z sym.   atoms
    1   26 Fe     1, 63
    2    6 C      2-6, 8-11, 13, 15, 17-20, 22-27, 29-32, 34, 36, 38-42,
                  64-68, 70-73, 75, 77, 79-82, 84-89, 91-94, 96, 98, 100-104,
                  125-130
    3    7 N      7, 21, 28, 43, 69, 83, 90, 105
    4    8 O      12, 14, 16, 33, 35, 37, 74, 76, 78, 95, 97, 99
    5    1 H      44-62, 106-124
########################################################################
[WARNING] Please study the warnings concerning your input carefully
-1- prog_main_parseArguments: Unknown option '-T' provided
########################################################################

          :  Hamiltonian                  GFN1-xTB          :
 * total energy  :  -256.0995680 Eh     change       -0.5140635E-08 Eh
 * total energy  :  -256.2044758 Eh     change       -0.1049078E+00 Eh
 * total energy  :  -256.2642718 Eh     change       -0.5979599E-01 Eh
 * total energy  :  -256.2859968 Eh     change       -0.2172503E-01 Eh
 * total energy  :  -256.2974005 Eh     change       -0.1140374E-01 Eh
 * total energy  :  -256.3037348 Eh     change       -0.6334314E-02 Eh
 * total energy  :  -256.3074769 Eh     change       -0.3742085E-02 Eh
 * total energy  :  -256.3089734 Eh     change       -0.1496432E-02 Eh
 * total energy  :  -256.3102904 Eh     change       -0.1317010E-02 Eh
 * total energy  :  -256.3107634 Eh     change       -0.4730066E-03 Eh
 * total energy  :  -256.3148052 Eh     change       -0.1377323E-03 Eh
 * total energy  :  -256.3148732 Eh     change       -0.6802827E-04 Eh
 * total energy  :  -256.3149125 Eh     change       -0.3927703E-04 Eh
 * total energy  :  -256.3149430 Eh     change       -0.3047581E-04 Eh
 * total energy  :  -256.3149742 Eh     change       -0.3117730E-04 Eh
 * total energy  :  -256.3149863 Eh     change       -0.1217544E-04 Eh
 * total energy  :  -256.3150004 Eh     change       -0.1411131E-04 Eh
 * total energy  :  -256.3150060 Eh     change       -0.5597563E-05 Eh
 * total energy  :  -256.3150107 Eh     change       -0.4616613E-05 Eh
   *** GEOMETRY OPTIMIZATION CONVERGED AFTER 43 ITERATIONS ***

 final structure:
================
130
 xtb: 6.5.1 (b24c23e)
Fe          14.72328755616597        0.05790669520384       -0.02118096206156
C           11.33235299422130        0.08486702402248       -0.14707969858995
C           11.98173051771577        1.29942796785015       -0.07705306139724
C           11.29755901017904        2.55664030999443       -0.04482630485991
C           12.25113854557660        3.51461292368582        0.02187035457482
C           13.51750860153282        2.84037243050598        0.01950535852828
N           13.33850802583524        1.48390364850062       -0.02263015808065
C           14.74255712452202        3.49604106254379        0.07916422801139
C           14.75246648978731        4.97938960534614        0.10506531732850
C           14.25097898813089        5.70171269150317       -0.97772764744756
C           14.26899222260269        7.09144968751335       -0.95628059593312
O           13.79301810479078        7.80364302538172       -2.00615272913813
C           14.78137908064901        7.76302322282811        0.15507768949248
O           14.78314601481106        9.13285079976516        0.14914487879152
C           15.27699975333195        7.04105258875563        1.23794909659145
O           15.75903690517075        7.76982570771698        2.29297433015384
C           15.26900421561546        5.65195808093704        1.21572022825775
C           15.95689200136584        2.82501745496404        0.11159727908005
C           17.22894340982879        3.48423443058514        0.12361958777871
C           18.17264615846515        2.51297290168685        0.14730711330865
N           16.12655545269940        1.46043812427195        0.11311564997892
C           17.47530193601926        1.26576158634581        0.14001743916163
C           18.13154909161846        0.02897576063809        0.15542679816762
C           17.45607427138787       -1.19695623671826        0.12187712462280
C           18.13385487343205       -2.45533284700929        0.11994133359940
C           17.17617535224458       -3.41083005396618        0.06070714314668
C           15.91501866136632       -2.73117683762273        0.03457850729139
N           16.10509291125060       -1.36956486853292        0.07159287002778
C           14.69338867009443       -3.38112632429739       -0.06130555454541
C           14.68121895983900       -4.86466131908433       -0.10135683651148
C           15.12645012924378       -5.59904139357640        0.99747672058092
C           15.11212034685048       -6.98850645002876        0.95822275155831
O           15.53358587434700       -7.71293249514311        2.02298650021990
C           14.66164006943890       -7.64701782895875       -0.18727368038579
O           14.66462481576630       -9.01695956967149       -0.19925257756125
C           14.22221036344784       -6.91260763782748       -1.28589324983103
O           13.80040939471798       -7.62888914339882       -2.37497484120254
C           14.22466981148535       -5.52386146297308       -1.24558945900683
C           13.47958660950549       -2.70551383743438       -0.12811682659512
C           12.20522243555372       -3.36090280983549       -0.19217375368798
C           11.26506974425251       -2.38740757512854       -0.21826236505760
C           11.96555644944527       -1.14039102411642       -0.16092284951981
N           13.31876442919518       -1.34650927677395       -0.09905250221759
H           10.24895742446642        0.09359316822677       -0.19060837296303
H           10.22530693126210        2.67010010137621       -0.06611714366951
H           12.12119267579374        4.58316163986800        0.07615135872199
H           13.86450731772661        5.19060125413098       -1.84995932963154
H           13.89337974339588        8.74878051923138       -1.80481270286460
H           15.17005196404046        9.43533892933374        0.98614048724277
H           16.08240650769330        7.18871528863919        2.99378999846351
H           15.64519219538675        5.09610786124372        2.06646760388602
H           17.37274520605344        4.55209907672883        0.10190182461045
H           19.24565064801082        2.61640412637342        0.16075171391215
H           19.20465758729232       -2.57562843139019        0.15219511945190
H           17.30267497208183       -4.48043672787060        0.02521548787713
H           15.46743048051848       -5.09763564730983        1.89389941056009
H           15.44753163048474       -8.65560364693880        1.80425488923953
H           14.32506599810079       -9.30954420456571       -1.05999529721192
H           13.52058260114780       -7.03930721740681       -3.08737869612850
H           13.89197261623519       -4.95785524081493       -2.10775446417468
H           12.06078731418721       -4.42903345864116       -0.20307186596958
H           10.19198859919080       -2.48469751356438       -0.26437297417269
Fe          30.70202782217064       -0.05572241654189       -0.02821324400906
C           34.09286517195991       -0.06810507684567       -0.15793914412061
C           33.44363034090701       -1.28295258395136       -0.22414534358117
C           34.12787829837004       -2.53580859965654       -0.33315377659034
C           33.17432966870528       -3.49522674815143       -0.37490060698390
C           31.90793033437709       -2.82500662299687       -0.30196789890663
N           32.08686444016106       -1.47242541955557       -0.19097675478473
C           30.68287145327165       -3.48313330492666       -0.31790316936424
C           30.67289974270139       -4.95990300244595       -0.45985911668129
C           31.17483190148526       -5.55540288202627       -1.61705182535170
C           31.15655801219042       -6.93867657469660       -1.75268930658579
O           31.63283513490630       -7.52787117416383       -2.87609168547211
C           30.64361664370198       -7.73135501144084       -0.72447539630656
O           30.64167390321873       -9.09175741225343       -0.88503999122903
C           30.14763021648779       -7.13620262768560        0.43280230540261
O           29.66508236275075       -7.97934161953981        1.39861818379960
C           30.15574420628131       -5.75348445825546        0.56751460382460
C           29.46849246930682       -2.82001842295694       -0.21070522566667
C           28.19643172357735       -3.47618625868900       -0.27478215578232
C           27.25273403329365       -2.51389509577663       -0.14092335653099
N           29.29886039321519       -1.46448523399029       -0.05376079459373
C           27.95012369846341       -1.27408564338955       -0.00530377215979
C           27.29393146647346       -0.04723220328093        0.15196888159088
C           27.96942711031819        1.17445745631586        0.25916935151880
C           27.29168664330067        2.42469509824802        0.40204475616046
C           28.24928704935163        3.38085330463003        0.45090335600797
C           29.51042790232319        2.70885480781701        0.34559922689044
N           29.32037335530187        1.35186761318729        0.22740274677522
C           30.73192492421500        3.36577182672076        0.32189634870351
C           30.74404301616163        4.84419421921232        0.45065927476286
C           30.29775080776530        5.44891000464692        1.62545979825569
C           30.31191929588396        6.83381242878701        1.74451272863408
O           29.88910382966678        7.43238970316868        2.88428114355349
C           30.76362801650280        7.61834249318287        0.68190842586210
O           30.76074138478916        8.98073438670765        0.82589679975359
C           31.20422665621101        7.01363065058869       -0.49264926765063
O           31.62743811937615        7.84912920677264       -1.49260673691052
C           31.20162776721743        5.62932205039689       -0.61069024011271
C           31.94563088749337        2.70226102811856        0.17679895611497
C           33.21997122228441        3.36078795208600        0.18538020726818
C           34.16004503417584        2.39652937283276        0.04852002346239
C           33.45958496894582        1.15091996493025       -0.03402175233017
N           32.10645394529062        1.34866148401632        0.05216758151348
H           35.17624269350154       -0.07175146222011       -0.20265517213273
H           35.20014288300015       -2.64613951771788       -0.36667448499260
H           33.30426853429534       -4.56310212627528       -0.44107852042474
H           31.56181623305974       -4.94914668116744       -2.42580714512302
H           31.53214386233022       -8.48967099434068       -2.78281744338070
H           30.25446661866238       -9.48673730708942       -0.08766028778897
H           29.34180083918745       -7.48100030272460        2.16056502227737
H           29.77917691676025       -5.29714157381942        1.47537452175417
H           28.05264993387199       -4.53457922362006       -0.41834692872264
H           26.17971626939518       -2.61808208674848       -0.13995353774544
H           26.22094434788537        2.54038969657203        0.44939885817411
H           28.12260741605810        4.44748333908371        0.53778214841282
H           29.95600343769884        4.84882980463585        2.45876496030381
H           29.97526078258413        8.39383186138057        2.77436854774891
H           31.10148593311141        9.36931638689582        0.00453040905765
H           31.90850807676657        7.34439516432783       -2.26705033814777
H           31.53507883765207        5.16513087764781       -1.53142123667448
H           33.36459069861301        4.42332268358148        0.29487782324274
H           35.23306725986327        2.49852574911280        0.01230687729161
C           23.32788177399240       -0.01789341657915        0.22555403481460
C           22.09758118958035       -0.00555967863430        0.22609111504867
C           20.75691757806425        0.00582720613198        0.21270685619162
C           19.53137291105579        0.01768162129375        0.19159240115729
C           24.66856321259780       -0.02869006947251        0.21206539097039
C           25.89407459934275       -0.04011322412479        0.18922729678614

          :  Hamiltonian                  GFN1-xTB          :
         :: total energy            -256.315010661723 Eh    ::
         :: gradient norm              0.000569935817 Eh/a0 ::
         :: HOMO-LUMO gap              0.084457634496 eV    ::
         :: SCC energy              -259.790502314141 Eh    ::
         :: repulsion energy           3.589749692059 Eh    ::

    * Orbital Energies and Occupations

         #    Occupation            Energy/Eh            Energy/eV
      -------------------------------------------------------------
         1        2.0000           -0.8137397             -22.1430
       ...           ...                  ...                  ...
       211        2.0000           -0.4129581             -11.2372
       212        2.0000           -0.4122014             -11.2166
       213        2.0000           -0.4120532             -11.2125
       214        2.0000           -0.3978455             -10.8259
       215        2.0000           -0.3978411             -10.8258
       216        2.0000           -0.3957371             -10.7686
       217        1.9912           -0.3894332             -10.5970
       218        1.9911           -0.3894297             -10.5969
       219        1.9519           -0.3878027             -10.5526
       220        1.9509           -0.3877825             -10.5521
       221        1.9469           -0.3877066             -10.5500
       222        1.9468           -0.3877054             -10.5500
       223        1.6565           -0.3857798             -10.4976 (HOMO)
       224        0.3106           -0.3826761             -10.4131 (LUMO)
       225        0.2541           -0.3824541             -10.4071
       226                         -0.3406831              -9.2705
       227                         -0.3284283              -8.9370
       228                         -0.3283847              -8.9358
       229                         -0.3278773              -8.9220
       230                         -0.3033189              -8.2537
       231                         -0.3033118              -8.2535
       232                         -0.3010665              -8.1924
       233                         -0.2932432              -7.9796
       234                         -0.2912107              -7.9242
       ...                                ...                  ...
       454                          1.5721818              42.7812
      -------------------------------------------------------------
                  HL-Gap            0.0031038 Eh            0.0845 eV

Wiberg/Mayer (AO) data.
largest (>0.10) Wiberg bond orders for each atom

     #   Z sym  total        # sym  WBO       # sym  WBO       # sym  WBO
 ---------------------------------------------------------------------------
     1  26 Fe   3.120 --     7 N    0.665    43 N    0.664    28 N    0.658
                            21 N    0.657
     2   6 C    3.921 --     3 C    1.364    42 C    1.362    44 H    0.970
     3   6 C    3.925 --     2 C    1.364     7 N    1.210     4 C    1.173
     4   6 C    3.959 --     5 C    1.650     3 C    1.173    45 H    0.975
     5   6 C    3.962 --     4 C    1.650     6 C    1.175    46 H    0.973
     6   6 C    3.920 --     8 C    1.314     7 N    1.226     5 C    1.175
     7   7 N    3.379 --     6 C    1.226     3 C    1.210     1 Fe   0.665
     8   6 C    3.923 --    18 C    1.333     6 C    1.314     9 C    1.026
     9   6 C    3.987 --    10 C    1.398    17 C    1.386     8 C    1.026
    10   6 C    3.976 --     9 C    1.398    11 C    1.380    47 H    0.970
    11   6 C    3.917 --    10 C    1.380    13 C    1.323    12 O    1.053
    12   8 O    2.049 --    11 C    1.053    48 H    0.847
    13   6 C    3.903 --    15 C    1.340    11 C    1.323    14 O    1.022
    14   8 O    2.021 --    13 C    1.022    49 H    0.846
    15   6 C    3.905 --    17 C    1.384    13 C    1.340    16 O    1.014
    16   8 O    2.025 --    15 C    1.014    50 H    0.860
    17   6 C    3.973 --     9 C    1.386    15 C    1.384    51 H    0.969
    18   6 C    3.917 --     8 C    1.333    21 N    1.201    19 C    1.180
    19   6 C    3.957 --    20 C    1.637    18 C    1.180    52 H    0.973
    20   6 C    3.960 --    19 C    1.637    22 C    1.189    53 H    0.973
    21   7 N    3.378 --    22 C    1.248    18 C    1.201     1 Fe   0.657
    22   6 C    3.904 --    23 C    1.248    21 N    1.248    20 C    1.189
    23   6 C    3.920 --    24 C    1.249    22 C    1.248   128 C    1.206
    24   6 C    3.904 --    23 C    1.249    28 N    1.248    25 C    1.188
    25   6 C    3.960 --    26 C    1.639    24 C    1.188    54 H    0.973
    26   6 C    3.957 --    25 C    1.639    27 C    1.179    55 H    0.973
    27   6 C    3.917 --    29 C    1.336    28 N    1.200    26 C    1.179
    28   7 N    3.378 --    24 C    1.248    27 C    1.200     1 Fe   0.658
    29   6 C    3.923 --    27 C    1.336    39 C    1.313    30 C    1.024
    30   6 C    3.988 --    31 C    1.399    38 C    1.387    29 C    1.024
    31   6 C    3.977 --    30 C    1.399    32 C    1.380    56 H    0.970
    32   6 C    3.917 --    31 C    1.380    34 C    1.324    33 O    1.053
    33   8 O    2.049 --    32 C    1.053    57 H    0.847
    34   6 C    3.903 --    36 C    1.340    32 C    1.324    35 O    1.021
    35   8 O    2.021 --    34 C    1.021    58 H    0.846
    36   6 C    3.905 --    38 C    1.384    34 C    1.340    37 O    1.014
    37   8 O    2.025 --    36 C    1.014    59 H    0.860
    38   6 C    3.973 --    30 C    1.387    36 C    1.384    60 H    0.970
    39   6 C    3.920 --    29 C    1.313    43 N    1.226    40 C    1.176
    40   6 C    3.962 --    41 C    1.648    39 C    1.176    61 H    0.973
    41   6 C    3.959 --    40 C    1.648    42 C    1.174    62 H    0.975
    42   6 C    3.925 --     2 C    1.362    43 N    1.211    41 C    1.174
    43   7 N    3.378 --    39 C    1.226    42 C    1.211     1 Fe   0.664
    44   1 H    1.001 --     2 C    0.970
    45   1 H    0.997 --     4 C    0.975
    46   1 H    1.005 --     5 C    0.973
    47   1 H    0.999 --    10 C    0.970
    48   1 H    0.877 --    12 O    0.847
    49   1 H    0.876 --    14 O    0.846
    50   1 H    0.881 --    16 O    0.860
    51   1 H    1.000 --    17 C    0.969
    52   1 H    1.006 --    19 C    0.973
    53   1 H    1.002 --    20 C    0.973
    54   1 H    1.002 --    25 C    0.973
    55   1 H    1.005 --    26 C    0.973
    56   1 H    0.999 --    31 C    0.970
    57   1 H    0.877 --    33 O    0.847
    58   1 H    0.876 --    35 O    0.846
    59   1 H    0.881 --    37 O    0.860
    60   1 H    1.000 --    38 C    0.970
    61   1 H    1.005 --    40 C    0.973
    62   1 H    0.998 --    41 C    0.975
    63  26 Fe   3.120 --    69 N    0.665   105 N    0.664    90 N    0.658
                            83 N    0.657
    64   6 C    3.921 --    65 C    1.364   104 C    1.362   106 H    0.970
    65   6 C    3.925 --    64 C    1.364    69 N    1.210    66 C    1.173
    66   6 C    3.959 --    67 C    1.650    65 C    1.173   107 H    0.975
    67   6 C    3.962 --    66 C    1.650    68 C    1.175   108 H    0.973
    68   6 C    3.920 --    70 C    1.314    69 N    1.226    67 C    1.175
    69   7 N    3.379 --    68 C    1.226    65 C    1.210    63 Fe   0.665
    70   6 C    3.923 --    80 C    1.333    68 C    1.314    71 C    1.026
    71   6 C    3.987 --    72 C    1.398    79 C    1.386    70 C    1.026
    72   6 C    3.976 --    71 C    1.398    73 C    1.380   109 H    0.970
    73   6 C    3.917 --    72 C    1.380    75 C    1.323    74 O    1.053
    74   8 O    2.049 --    73 C    1.053   110 H    0.847
    75   6 C    3.903 --    77 C    1.340    73 C    1.323    76 O    1.022
    76   8 O    2.021 --    75 C    1.022   111 H    0.846
    77   6 C    3.905 --    79 C    1.384    75 C    1.340    78 O    1.014
    78   8 O    2.025 --    77 C    1.014   112 H    0.860
    79   6 C    3.973 --    71 C    1.386    77 C    1.384   113 H    0.969
    80   6 C    3.917 --    70 C    1.333    83 N    1.201    81 C    1.180
    81   6 C    3.957 --    82 C    1.637    80 C    1.180   114 H    0.973
    82   6 C    3.960 --    81 C    1.637    84 C    1.189   115 H    0.973
    83   7 N    3.378 --    84 C    1.248    80 C    1.201    63 Fe   0.657
    84   6 C    3.904 --    85 C    1.249    83 N    1.248    82 C    1.189
    85   6 C    3.921 --    86 C    1.249    84 C    1.249   130 C    1.206
    86   6 C    3.904 --    85 C    1.249    90 N    1.248    87 C    1.188
    87   6 C    3.960 --    88 C    1.639    86 C    1.188   116 H    0.973
    88   6 C    3.957 --    87 C    1.639    89 C    1.179   117 H    0.973
    89   6 C    3.917 --    91 C    1.336    90 N    1.200    88 C    1.179
    90   7 N    3.378 --    86 C    1.248    89 C    1.200    63 Fe   0.658
    91   6 C    3.923 --    89 C    1.336   101 C    1.313    92 C    1.025
    92   6 C    3.987 --    93 C    1.399   100 C    1.387    91 C    1.025
    93   6 C    3.977 --    92 C    1.399    94 C    1.380   118 H    0.970
    94   6 C    3.917 --    93 C    1.380    96 C    1.324    95 O    1.053
    95   8 O    2.049 --    94 C    1.053   119 H    0.847
    96   6 C    3.903 --    98 C    1.340    94 C    1.324    97 O    1.021
    97   8 O    2.021 --    96 C    1.021   120 H    0.846
    98   6 C    3.905 --   100 C    1.384    96 C    1.340    99 O    1.014
    99   8 O    2.025 --    98 C    1.014   121 H    0.860
   100   6 C    3.973 --    92 C    1.387    98 C    1.384   122 H    0.970
   101   6 C    3.920 --    91 C    1.313   105 N    1.226   102 C    1.176
   102   6 C    3.962 --   103 C    1.648   101 C    1.176   123 H    0.973
   103   6 C    3.959 --   102 C    1.648   104 C    1.174   124 H    0.975
   104   6 C    3.925 --    64 C    1.362   105 N    1.211   103 C    1.174
   105   7 N    3.378 --   101 C    1.226   104 C    1.211    63 Fe   0.664
   106   1 H    1.001 --    64 C    0.970
   107   1 H    0.997 --    66 C    0.975
   108   1 H    1.005 --    67 C    0.973
   109   1 H    0.999 --    72 C    0.970
   110   1 H    0.877 --    74 O    0.847
   111   1 H    0.876 --    76 O    0.846
   112   1 H    0.881 --    78 O    0.860
   113   1 H    1.000 --    79 C    0.969
   114   1 H    1.006 --    81 C    0.973
   115   1 H    1.002 --    82 C    0.973
   116   1 H    1.002 --    87 C    0.973
   117   1 H    1.005 --    88 C    0.973
   118   1 H    0.999 --    93 C    0.970
   119   1 H    0.877 --    95 O    0.847
   120   1 H    0.876 --    97 O    0.846
   121   1 H    0.881 --    99 O    0.860
   122   1 H    1.000 --   100 C    0.970
   123   1 H    1.005 --   102 C    0.973
   124   1 H    0.998 --   103 C    0.975
   125   6 C    3.914 --   126 C    2.338   129 C    1.354   128 C    0.186
   126   6 C    3.914 --   125 C    2.338   127 C    1.354   130 C    0.186
   127   6 C    3.922 --   128 C    2.420   126 C    1.354
   128   6 C    3.878 --   127 C    2.420    23 C    1.206   125 C    0.186
   129   6 C    3.922 --   130 C    2.420   125 C    1.354
   130   6 C    3.878 --   129 C    2.420    85 C    1.206   126 C    0.186
 ---------------------------------------------------------------------------

           -------------------------------------------------
          | TOTAL ENERGY             -256.315010661723 Eh   |
          | GRADIENT NORM               0.000569935817 Eh/α |
          | HOMO-LUMO GAP               0.084457634496 eV   |
           -------------------------------------------------

 * finished run on 2022/07/29 at 22:00:35.834
