   * xtb version 6.5.1 (b24c23e) compiled by 'conda@728c89f4b128' on 2022-07-12
          program call               : xtb Zn_C2Py_C4_2.xyz --gfn 1 --opt -T 48

   ID    Z sym.   atoms
    1   30 Zn     1, 59
    2    6 C      2-6, 8-13, 15-19, 21-26, 28-33, 35-40, 60-64, 66-71, 73-77,
                  79-84, 86-91, 93-98, 117-120
    3    7 N      7, 14, 20, 27, 34, 41, 65, 72, 78, 85, 92, 99
    4    1 H      42-58, 100-116
########################################################################
[WARNING] Please study the warnings concerning your input carefully
-1- prog_main_parseArguments: Unknown option '-T' provided
########################################################################

          :  Hamiltonian                  GFN1-xTB          :
 * total energy  :  -209.5947089 Eh     change       -0.3013270E-09 Eh
 * total energy  :  -209.9163895 Eh     change       -0.3216806E+00 Eh
 * total energy  :  -209.9892582 Eh     change       -0.7286877E-01 Eh
 * total energy  :  -210.0183166 Eh     change       -0.2905839E-01 Eh
 * total energy  :  -210.0251108 Eh     change       -0.6794187E-02 Eh
 * total energy  :  -210.0286579 Eh     change       -0.3547056E-02 Eh
 * total energy  :  -210.0299944 Eh     change       -0.1336508E-02 Eh
 * total energy  :  -210.0312810 Eh     change       -0.1286613E-02 Eh
 * total energy  :  -210.0319989 Eh     change       -0.7179576E-03 Eh
 * total energy  :  -210.0327403 Eh     change       -0.7413167E-03 Eh
 * total energy  :  -210.0351829 Eh     change       -0.1624484E-04 Eh
 * total energy  :  -210.0351974 Eh     change       -0.1450702E-04 Eh
 * total energy  :  -210.0352074 Eh     change       -0.1008284E-04 Eh
 * total energy  :  -210.0352162 Eh     change       -0.8715002E-05 Eh
 * total energy  :  -210.0352246 Eh     change       -0.8388672E-05 Eh
 * total energy  :  -210.0352311 Eh     change       -0.6507153E-05 Eh
 * total energy  :  -210.0352367 Eh     change       -0.5652583E-05 Eh
 * total energy  :  -210.0352422 Eh     change       -0.5470286E-05 Eh
 * total energy  :  -210.0352460 Eh     change       -0.3855638E-05 Eh
   *** GEOMETRY OPTIMIZATION CONVERGED AFTER 42 ITERATIONS ***

 final structure:
================
120
 xtb: 6.5.1 (b24c23e)
Zn          16.14604700888668        0.07979701669021        0.03214773737409
C           12.72499883131444        0.10483294571505        0.06574361149241
C           13.35923397037676        0.99040132389782        0.92854779234652
C           12.69436827529696        1.89871587602724        1.82055268115312
C           13.66139849880294        2.58332596116089        2.48291746444425
C           14.92458144378717        2.09936294884579        2.00050764725179
N           14.71222574345695        1.13801824055319        1.06376457801604
C           16.18423453145664        2.55602085068562        2.43183915781318
C           16.19860396489286        3.56508527201957        3.42017955553103
C           16.20491049329916        4.43022444324588        4.27140879234738
C           16.21584783129316        5.43679390223214        5.26349298200672
C           17.41703540099697        5.98596732469613        5.72802062531873
C           17.37316921388230        6.97009297864646        6.69917429318324
N           16.23778700462545        7.42700980199085        7.22169157100379
C           15.09161612575982        6.90935396777796        6.78632863424831
C           15.02604726768210        5.92292826003767        5.81875253837284
C           17.42837454021606        2.09375669176855        1.96604963566283
C           18.70256603309572        2.57360450533798        2.41499570571659
C           19.65091314055728        1.87758176741275        1.73514943069345
N           17.61712157027758        1.12227737713092        1.02710150138056
C           18.96139586949541        0.96841669151213        0.86769779014442
C           19.58778114529595        0.05345600103457       -0.00145900425594
C           18.93040706897521       -0.85095069241725       -0.85849886323842
C           19.58871292119724       -1.77119211486939       -1.73845370516592
C           18.61670924984193       -2.45375680084718       -2.39804586135312
C           17.35899797616166       -1.95443954367086       -1.92432629552535
N           17.58091387382124       -0.98440753831726       -0.99129737275810
C           16.09942833032712       -2.40115336322818       -2.36327863700010
C           16.08190347044042       -3.41764326440725       -3.34391158007701
C           16.06858963641474       -4.29127247603624       -4.18630629875896
C           16.05213621901679       -5.30909887594508       -5.16675100076888
C           17.23903204067414       -5.87521959628474       -5.64714470084058
C           17.16751717833074       -6.86929437061083       -6.60658341458956
N           16.01832139829421       -7.32059591173795       -7.10308689554690
C           14.88545710835781       -6.78726290963035       -6.65196843825693
C           14.84753090579850       -5.78989163287382       -5.69428959935326
C           14.85521225744720       -1.92448028211726       -1.90959428079984
C           13.57564279260622       -2.39061577488856       -2.36575524421454
C           12.63224444531438       -1.69019104417970       -1.68604671969200
C           13.32817067079332       -0.79027799482510       -0.80926351738924
N           14.67590007563174       -0.95803758553611       -0.97132116090779
H           11.63936643525785        0.11284748802078        0.07719070456930
H           11.62415410514090        1.99169971526683        1.91892108927669
H           13.54173871143809        3.34975139316032        3.23238771497848
H           18.36448450591738        5.64307311583331        5.33000563397438
H           18.29001672399719        7.41376665743285        7.07694251621763
H           14.18396558859975        7.30475077239927        7.23369052712893
H           14.07034083544758        5.52986359896385        5.49314950371730
H           18.84523677182296        3.34435538126245        3.15576224497921
H           20.72314413301403        1.96543465643753        1.80996610917878
H           20.65780764131687       -1.87496403480130       -1.83453119753425
H           18.73312358182649       -3.22705628680741       -3.14072164287503
H           18.19724589211780       -5.53786533371290       -5.27066047443752
H           18.07291406886233       -7.32584762633634       -6.99642340527549
H           13.96590819539773       -7.17836856550918       -7.07816365765396
H           13.90200715856083       -5.38403444959869       -5.35507280841343
H           13.42948003001497       -3.15649283589739       -3.11108641845141
H           11.55896727543395       -1.76723520144902       -1.76273573701790
Zn          29.63675229296440       -0.06822884857988       -0.05177407780449
C           33.05777429710089       -0.10891676214858       -0.05571443554687
C           32.42437846403789       -1.30437579653393       -0.37281881597007
C           33.08977311119732       -2.53584094207194       -0.69465757251186
C           32.12310304216685       -3.45618578162307       -0.94189296366308
C           30.85965578922662       -2.79435358586989       -0.77378386383852
N           31.07148667204661       -1.49686502802801       -0.42973936757834
C           29.59998712000782       -3.39905284217646       -0.94354040558442
C           29.58487317958261       -4.76526351035974       -1.30203330771912
C           29.57906512318498       -5.93975601542479       -1.60808336477559
C           29.56728097995372       -7.30783133043568       -1.96279586437312
C           28.36560688419685       -7.99054134202398       -2.18634232808530
C           28.40928547803848       -9.32931251988371       -2.53205987083561
N           29.54485187191720      -10.01032931088073       -2.66431631599785
C           30.69158968483141       -9.36884078244110       -2.45252509146071
C           30.75735069434974       -8.03192438729472       -2.10370347266197
C           28.35586669547436       -2.76201824926865       -0.78565268196586
C           27.08192544327159       -3.39428096597115       -0.96642706455117
C           26.13318938473317       -2.45368819522057       -0.71921973803486
N           28.16659630658954       -1.45725561098545       -0.43518724763351
C           26.82215097343238       -1.24194226380431       -0.38542075412125
C           26.19509617917129       -0.02649785389751       -0.04741104698795
C           26.85181445898743        1.17374769210137        0.28850805377541
C           26.19286472868173        2.40103440524862        0.62637895074038
C           27.16443738725826        3.31785072751024        0.87387657789051
C           28.42244591504591        2.65548454745121        0.68883139613847
N           28.20110857126898        1.35672766557706        0.33521914169611
C           29.68197404212603        3.26145329769816        0.84709439985504
C           29.69930782111888        4.62486194673393        1.21591299731103
C           29.71214745500804        5.79613842917573        1.53372499949508
C           29.72659438426941        7.15986980922521        1.90462488836511
C           28.53800796642467        7.86292604640150        2.13500841429454
C           28.60699689111728        9.19624871216147        2.49727688426390
N           29.75531549482366        9.85351199126331        2.63948726783228
C           30.88974319148924        9.19250326376448        2.42159331665268
C           30.93021663916819        7.85897196521845        2.05629684961262
C           30.92618967166081        2.62725918911180        0.67131145676578
C           32.20551594783772        3.25840069771856        0.83731407433144
C           33.14925193605593        2.31578408888591        0.58541538849475
C           32.45379493166813        1.10114295920105        0.26323516305518
N           31.10594984672808        1.32591220509612        0.32377544913215
H           34.14342139582933       -0.12196343133219       -0.05666329683618
H           34.16005607014063       -2.66744367275571       -0.72436110747019
H           32.24336796342663       -4.49272592328457       -1.21496582535761
H           27.41778335755870       -7.47487323427179       -2.08946394862691
H           27.49202166975953       -9.88292230048647       -2.71172322134223
H           31.59943242426440       -9.95416741435347       -2.56889928358051
H           31.71335504686065       -7.54880469073239       -1.94088486609449
H           26.93977515069286       -4.42605739472094       -1.24637197185266
H           25.06100866271973       -2.56336645657962       -0.75631299749585
H           25.12371305507531        2.53635648397212        0.66583790188290
H           27.04748642098249        4.35205603861073        1.15647630840856
H           27.58049771725131        7.36693765033851        2.03068369729554
H           27.70029542037722        9.76526427208113        2.68239737475745
H           31.80850622629460        9.75863623039313        2.54631023415698
H           31.87698058699257        7.35948479701700        1.88907065854966
H           32.35118691204445        4.29128288355171        1.11185403651594
H           34.22248485815329        2.42147840772499        0.61235401100643
C           22.21624334448536        0.02391345123311       -0.02364956948936
C           20.99468710327522        0.04020838519088       -0.01322698497140
C           23.56660641825767        0.00684762997761       -0.03255984162688
C           24.78818706905963       -0.00999624689279       -0.04236216314770

          :  Hamiltonian                  GFN1-xTB          :
         :: total energy            -210.035246042347 Eh    ::
         :: gradient norm              0.000707352196 Eh/a0 ::
         :: HOMO-LUMO gap              1.107826965502 eV    ::
         :: SCC energy              -213.641389318800 Eh    ::
         :: repulsion energy           3.705606204738 Eh    ::

    * Orbital Energies and Occupations

         #    Occupation            Energy/Eh            Energy/eV
      -------------------------------------------------------------
         1        2.0000           -0.7673157             -20.8797
       ...           ...                  ...                  ...
       181        2.0000           -0.4281521             -11.6506
       182        2.0000           -0.4263592             -11.6018
       183        2.0000           -0.4235485             -11.5253
       184        2.0000           -0.4234537             -11.5228
       185        2.0000           -0.4234525             -11.5227
       186        2.0000           -0.4183455             -11.3838
       187        2.0000           -0.4183448             -11.3837
       188        2.0000           -0.4183412             -11.3836
       189        2.0000           -0.4183388             -11.3836
       190        2.0000           -0.4003600             -10.8944
       191        2.0000           -0.4003589             -10.8943
       192        2.0000           -0.3921453             -10.6708
       193        2.0000           -0.3832768             -10.4295 (HOMO)
       194                         -0.3425649              -9.3217 (LUMO)
       195                         -0.3416954              -9.2980
       196                         -0.3416934              -9.2980
       197                         -0.3298735              -8.9763
       198                         -0.3136440              -8.5347
       199                         -0.3095435              -8.4231
       200                         -0.2865974              -7.7987
       201                         -0.2865956              -7.7987
       202                         -0.2822951              -7.6816
       203                         -0.2796229              -7.6089
       204                         -0.2671090              -7.2684
       ...                                ...                  ...
       412                          1.5130705              41.1727
      -------------------------------------------------------------
                  HL-Gap            0.0407119 Eh            1.1078 eV

Wiberg/Mayer (AO) data.
largest (>0.10) Wiberg bond orders for each atom

     #   Z sym  total        # sym  WBO       # sym  WBO       # sym  WBO
 ---------------------------------------------------------------------------
     1  30 Zn   1.991 --     7 N    0.457    41 N    0.456    27 N    0.455
                            20 N    0.454
     2   6 C    3.928 --    40 C    1.360     3 C    1.360    42 H    0.971
     3   6 C    3.912 --     2 C    1.360     7 N    1.223     4 C    1.173
     4   6 C    3.960 --     5 C    1.654     3 C    1.173    43 H    0.976
     5   6 C    3.962 --     4 C    1.654     6 C    1.179    44 H    0.974
     6   6 C    3.909 --     7 N    1.264     8 C    1.264     5 C    1.179
     7   7 N    3.292 --     6 C    1.264     3 C    1.223     1 Zn   0.457
     8   6 C    3.930 --    17 C    1.271     6 C    1.264     9 C    1.162
     9   6 C    3.957 --    10 C    2.622     8 C    1.162
    10   6 C    3.931 --     9 C    2.622    11 C    1.143
    11   6 C    3.987 --    12 C    1.349    16 C    1.349    10 C    1.143
    12   6 C    3.973 --    13 C    1.458    11 C    1.349    45 H    0.974
                            15 C    0.103
    13   6 C    3.973 --    12 C    1.458    14 N    1.406    46 H    0.972
                            16 C    0.103
    14   7 N    2.993 --    13 C    1.406    15 C    1.406
    15   6 C    3.973 --    16 C    1.458    14 N    1.406    47 H    0.972
                            12 C    0.103
    16   6 C    3.973 --    15 C    1.458    11 C    1.349    48 H    0.974
                            13 C    0.103
    17   6 C    3.902 --     8 C    1.271    20 N    1.244    18 C    1.187
    18   6 C    3.959 --    19 C    1.640    17 C    1.187    49 H    0.974
    19   6 C    3.961 --    18 C    1.640    21 C    1.189    50 H    0.974
    20   7 N    3.295 --    21 C    1.251    17 C    1.244     1 Zn   0.454
    21   6 C    3.894 --    22 C    1.258    20 N    1.251    19 C    1.189
    22   6 C    3.935 --    23 C    1.259    21 C    1.258   118 C    1.185
    23   6 C    3.894 --    22 C    1.259    27 N    1.251    24 C    1.189
    24   6 C    3.961 --    25 C    1.640    23 C    1.189    51 H    0.974
    25   6 C    3.959 --    24 C    1.640    26 C    1.187    52 H    0.974
    26   6 C    3.902 --    28 C    1.271    27 N    1.245    25 C    1.187
    27   7 N    3.295 --    23 C    1.251    26 C    1.245     1 Zn   0.455
    28   6 C    3.930 --    26 C    1.271    37 C    1.264    29 C    1.162
    29   6 C    3.957 --    30 C    2.622    28 C    1.162
    30   6 C    3.931 --    29 C    2.622    31 C    1.143
    31   6 C    3.987 --    32 C    1.350    36 C    1.349    30 C    1.143
    32   6 C    3.973 --    33 C    1.458    31 C    1.350    53 H    0.974
                            35 C    0.103
    33   6 C    3.973 --    32 C    1.458    34 N    1.407    54 H    0.972
                            36 C    0.103
    34   7 N    2.993 --    33 C    1.407    35 C    1.406
    35   6 C    3.973 --    36 C    1.458    34 N    1.406    55 H    0.972
                            32 C    0.103
    36   6 C    3.973 --    35 C    1.458    31 C    1.349    56 H    0.974
                            33 C    0.103
    37   6 C    3.910 --    41 N    1.264    28 C    1.264    38 C    1.179
    38   6 C    3.962 --    39 C    1.654    37 C    1.179    57 H    0.974
    39   6 C    3.960 --    38 C    1.654    40 C    1.173    58 H    0.976
    40   6 C    3.912 --     2 C    1.360    41 N    1.223    39 C    1.173
    41   7 N    3.292 --    37 C    1.264    40 C    1.223     1 Zn   0.456
    42   1 H    1.001 --     2 C    0.971
    43   1 H    0.998 --     4 C    0.976
    44   1 H    1.003 --     5 C    0.974
    45   1 H    1.002 --    12 C    0.974
    46   1 H    1.013 --    13 C    0.972
    47   1 H    1.013 --    15 C    0.972
    48   1 H    1.002 --    16 C    0.974
    49   1 H    1.003 --    18 C    0.974
    50   1 H    1.002 --    19 C    0.974
    51   1 H    1.002 --    24 C    0.974
    52   1 H    1.003 --    25 C    0.974
    53   1 H    1.002 --    32 C    0.974
    54   1 H    1.013 --    33 C    0.972
    55   1 H    1.013 --    35 C    0.972
    56   1 H    1.002 --    36 C    0.974
    57   1 H    1.003 --    38 C    0.974
    58   1 H    0.998 --    39 C    0.976
    59  30 Zn   1.991 --    65 N    0.456    99 N    0.456    78 N    0.455
                            85 N    0.454
    60   6 C    3.928 --    98 C    1.360    61 C    1.360   100 H    0.971
    61   6 C    3.912 --    60 C    1.360    65 N    1.223    62 C    1.173
    62   6 C    3.960 --    63 C    1.654    61 C    1.173   101 H    0.976
    63   6 C    3.962 --    62 C    1.654    64 C    1.179   102 H    0.974
    64   6 C    3.909 --    65 N    1.264    66 C    1.264    63 C    1.179
    65   7 N    3.292 --    64 C    1.264    61 C    1.223    59 Zn   0.456
    66   6 C    3.930 --    75 C    1.271    64 C    1.264    67 C    1.162
    67   6 C    3.957 --    68 C    2.622    66 C    1.162
    68   6 C    3.931 --    67 C    2.622    69 C    1.143
    69   6 C    3.987 --    70 C    1.349    74 C    1.349    68 C    1.143
    70   6 C    3.973 --    71 C    1.458    69 C    1.349   103 H    0.974
                            73 C    0.103
    71   6 C    3.973 --    70 C    1.458    72 N    1.407   104 H    0.972
                            74 C    0.103
    72   7 N    2.993 --    71 C    1.407    73 C    1.406
    73   6 C    3.973 --    74 C    1.458    72 N    1.406   105 H    0.972
                            70 C    0.103
    74   6 C    3.973 --    73 C    1.458    69 C    1.349   106 H    0.974
                            71 C    0.103
    75   6 C    3.902 --    66 C    1.271    78 N    1.244    76 C    1.187
    76   6 C    3.959 --    77 C    1.640    75 C    1.187   107 H    0.974
    77   6 C    3.961 --    76 C    1.640    79 C    1.189   108 H    0.974
    78   7 N    3.295 --    79 C    1.251    75 C    1.244    59 Zn   0.455
    79   6 C    3.894 --    80 C    1.259    78 N    1.251    77 C    1.189
    80   6 C    3.935 --    79 C    1.259    81 C    1.259   120 C    1.185
    81   6 C    3.894 --    80 C    1.259    85 N    1.251    82 C    1.189
    82   6 C    3.961 --    83 C    1.640    81 C    1.189   109 H    0.974
    83   6 C    3.959 --    82 C    1.640    84 C    1.187   110 H    0.974
    84   6 C    3.902 --    86 C    1.271    85 N    1.244    83 C    1.187
    85   7 N    3.295 --    81 C    1.251    84 C    1.244    59 Zn   0.454
    86   6 C    3.930 --    84 C    1.271    95 C    1.264    87 C    1.162
    87   6 C    3.957 --    88 C    2.622    86 C    1.162
    88   6 C    3.931 --    87 C    2.622    89 C    1.143
    89   6 C    3.987 --    90 C    1.349    94 C    1.349    88 C    1.143
    90   6 C    3.973 --    91 C    1.458    89 C    1.349   111 H    0.974
                            93 C    0.103
    91   6 C    3.973 --    90 C    1.458    92 N    1.407   112 H    0.972
                            94 C    0.103
    92   7 N    2.993 --    91 C    1.407    93 C    1.406
    93   6 C    3.973 --    94 C    1.458    92 N    1.406   113 H    0.972
                            90 C    0.103
    94   6 C    3.973 --    93 C    1.458    89 C    1.349   114 H    0.974
                            91 C    0.103
    95   6 C    3.910 --    99 N    1.264    86 C    1.264    96 C    1.179
    96   6 C    3.962 --    97 C    1.654    95 C    1.179   115 H    0.974
    97   6 C    3.960 --    96 C    1.654    98 C    1.173   116 H    0.976
    98   6 C    3.912 --    60 C    1.360    99 N    1.223    97 C    1.173
    99   7 N    3.292 --    95 C    1.264    98 C    1.223    59 Zn   0.456
   100   1 H    1.001 --    60 C    0.971
   101   1 H    0.998 --    62 C    0.976
   102   1 H    1.003 --    63 C    0.974
   103   1 H    1.002 --    70 C    0.974
   104   1 H    1.013 --    71 C    0.972
   105   1 H    1.013 --    73 C    0.972
   106   1 H    1.002 --    74 C    0.974
   107   1 H    1.003 --    76 C    0.974
   108   1 H    1.002 --    77 C    0.974
   109   1 H    1.002 --    82 C    0.974
   110   1 H    1.003 --    83 C    0.974
   111   1 H    1.002 --    90 C    0.974
   112   1 H    1.013 --    91 C    0.972
   113   1 H    1.013 --    93 C    0.972
   114   1 H    1.002 --    94 C    0.974
   115   1 H    1.003 --    96 C    0.974
   116   1 H    0.998 --    97 C    0.976
   117   6 C    3.935 --   118 C    2.481   119 C    1.304
   118   6 C    3.924 --   117 C    2.481    22 C    1.185   120 C    0.199
   119   6 C    3.935 --   120 C    2.481   117 C    1.304
   120   6 C    3.924 --   119 C    2.481    80 C    1.185   118 C    0.199
 ---------------------------------------------------------------------------

           -------------------------------------------------
          | TOTAL ENERGY             -210.035246042347 Eh   |
          | GRADIENT NORM               0.000707352196 Eh/α |
          | HOMO-LUMO GAP               1.107826965502 eV   |
           -------------------------------------------------

 * finished run on 2022/07/30 at 10:43:53.099
