   * xtb version 6.5.1 (b24c23e) compiled by 'conda@728c89f4b128' on 2022-07-12
          program call               : xtb Co_C2Py_C6_2.xyz --gfn 1 --opt -T 48

   ID    Z sym.   atoms
    1   27 Co     1, 59
    2    6 C      2-6, 8-13, 15-19, 21-26, 28-33, 35-40, 60-64, 66-71, 73-77,
                  79-84, 86-91, 93-98, 117-122
    3    7 N      7, 14, 20, 27, 34, 41, 65, 72, 78, 85, 92, 99
    4    1 H      42-58, 100-116
########################################################################
[WARNING] Please study the warnings concerning your input carefully
-1- prog_main_parseArguments: Unknown option '-T' provided
########################################################################

          :  Hamiltonian                  GFN1-xTB          :
 * total energy  :  -219.4816181 Eh     change       -0.1329227E-08 Eh
 * total energy  :  -219.5631937 Eh     change       -0.8157558E-01 Eh
 * total energy  :  -219.6091149 Eh     change       -0.4592125E-01 Eh
 * total energy  :  -219.6227974 Eh     change       -0.1368248E-01 Eh
 * total energy  :  -219.6316012 Eh     change       -0.8803863E-02 Eh
 * total energy  :  -219.6361812 Eh     change       -0.4579981E-02 Eh
 * total energy  :  -219.6408445 Eh     change       -0.4663279E-02 Eh
 * total energy  :  -219.6432521 Eh     change       -0.2407640E-02 Eh
 * total energy  :  -219.6449798 Eh     change       -0.1727611E-02 Eh
 * total energy  :  -219.6459480 Eh     change       -0.9682450E-03 Eh
 * total energy  :  -219.6480818 Eh     change       -0.4076370E-04 Eh
 * total energy  :  -219.6481154 Eh     change       -0.3365720E-04 Eh
 * total energy  :  -219.6481281 Eh     change       -0.1263100E-04 Eh
 * total energy  :  -219.6481523 Eh     change       -0.2425779E-04 Eh
 * total energy  :  -219.6481606 Eh     change       -0.8231609E-05 Eh
 * total energy  :  -219.6481732 Eh     change       -0.1264060E-04 Eh
 * total energy  :  -219.6481713 Eh     change        0.1909802E-05 Eh
 * total energy  :  -219.6481782 Eh     change       -0.6904221E-05 Eh
 * total energy  :  -219.6481812 Eh     change       -0.2962106E-05 Eh
   *** GEOMETRY OPTIMIZATION CONVERGED AFTER 40 ITERATIONS ***

 final structure:
================
122
 xtb: 6.5.1 (b24c23e)
Co          14.90285273150893        0.07844902716049       -0.00888901482657
C           11.51713892020306        0.13990966539758       -0.01747479930899
C           12.17843047385508        0.80660581265594        0.99089381057812
C           11.51728578647266        1.52137660834988        2.03990148620118
C           12.48274755582078        2.16853986021157        2.73509963851744
C           13.72659348644200        1.84871225141788        2.10400407478931
N           13.53989095733694        0.97722485692057        1.06840187873335
C           14.93589449220478        2.46246426242030        2.43099176817435
C           14.94890468500491        3.45764028773673        3.43156859153339
C           14.96136565291082        4.31817690089489        4.28689990907003
C           14.97573674954488        5.32578846666045        5.27860187853714
C           16.16300348320167        5.97655495843623        5.63390043821084
C           16.12304939625965        6.95906360471230        6.60712214548131
N           15.00403715121535        7.32138967452819        7.22917740361889
C           13.87135614309073        6.70700959409147        6.89757694348541
C           13.80337729884008        5.71215932208226        5.93848725595760
C           16.12819799930345        2.13720045931924        1.78786827830952
C           17.37610247680275        2.77247069949105        2.07201187124648
C           18.32206936356234        2.09822860944454        1.37342796187999
N           16.29577624393046        1.10890151910661        0.89622894126211
C           17.64449462606349        1.05440541584004        0.67202327023633
C           18.30861155664498        0.04280901263210       -0.02653621487967
C           17.61935297004343       -0.96817042513151       -0.70116751373216
C           18.27035253196689       -2.03374866535399       -1.39499631648746
C           17.30089365704984       -2.71937647510736       -2.04866447417039
C           16.06630941021363       -2.06371059311437       -1.75212490876197
N           16.26482784907163       -1.01733154983341       -0.88744761896990
C           14.86053546152086       -2.38022576302373       -2.37335772852955
C           14.83636475184155       -3.40312766788148       -3.34539176852814
C           14.80713839471641       -4.28435586202406       -4.17897482745560
C           14.76920088030145       -5.30916819165853       -5.15224588107294
C           15.92648126017441       -6.00422628629331       -5.52211468770227
C           15.83346005517203       -6.99840516536571       -6.47990706824655
N           14.69019231748804       -7.33211802521845       -7.07323892473421
C           13.58539707396104       -6.67654754783448       -6.72652736886860
C           13.57069525057418       -5.66661269677815       -5.78099642116547
C           13.67293951477501       -1.71374637810543       -2.06903037292070
C           12.42449528848096       -1.98919441161026       -2.71161526069264
C           11.48238862189773       -1.27330566192357       -2.05252882158716
C           12.16140439193498       -0.56781081500685       -1.00867094121206
N           13.51324662527654       -0.81138231424363       -1.05626750792214
H           10.43378702302695        0.16731538678001       -0.02708285685091
H           10.45072100100548        1.52395816365799        2.19882386250127
H           12.38091667237794        2.81926969062900        3.58881031934403
H           17.09653700710380        5.71267780678959        5.15180156759521
H           17.02892306347148        7.48073073744026        6.90225342129644
H           12.97727965403375        7.02748405629148        7.42461329237816
H           12.85927111494157        5.23809176185157        5.69870733427560
H           17.49682745721195        3.61704708554304        2.73110832365295
H           19.38574714330110        2.26961724605125        1.33739636622997
H           19.33336041477544       -2.21256122686620       -1.38232278961353
H           17.39746504161441       -3.58082094381105       -2.68964991662558
H           16.87832520111918       -5.76456068308511       -5.06378664279225
H           16.71531830957988       -7.55348836317291       -6.78666937597285
H           12.67017585521943       -6.97461261048401       -7.22994945542513
H           12.64791963158320       -5.15836564510432       -5.52828788690182
H           12.30334231507200       -2.65603658001976       -3.55017708239241
H           10.42003953423193       -1.22519589024323       -2.23118848271170
Co          30.88288125440539       -0.03329002884504       -0.07109408923306
C           34.26859753723583       -0.05857628388603       -0.12571707271496
C           33.60688268718763       -1.26595476638397       -0.17976072528522
C           34.26756230408793       -2.53340817288379       -0.25355064975659
C           33.30200486117222       -3.46181228951451       -0.45350707577061
C           32.05851382986921       -2.75556593411595       -0.50448336564839
N           32.24544895514048       -1.41952700201378       -0.28806080609820
C           30.84941617075047       -3.35089248109998       -0.86461394133181
C           30.83694655188960       -4.72008699197789       -1.20644482131470
C           30.82720724044085       -5.89562519697807       -1.50677731206073
C           30.81089684723473       -7.26392863594170       -1.86231662309137
C           29.62249998909974       -7.90050888334040       -2.23897592296249
C           29.66006432392961       -9.23980943783078       -2.58377979811219
N           30.77786426919023       -9.96155221716039       -2.57625747476432
C           31.91165598257145       -9.36376885627460       -2.21915494861435
C           31.98202376119048       -8.03043147928081       -1.85651961849952
C           29.65717638897958       -2.63184442718152       -0.91580765947198
C           28.40915112398147       -3.20151364586796       -1.31516442091127
C           27.46323675049598       -2.25602470744964       -1.09425287087174
N           29.48971976149331       -1.33889518475490       -0.49057577635358
C           28.14101074729051       -1.11845952447336       -0.55829612344255
C           27.47716690604449        0.00044672093644       -0.04860490206554
C           28.16671790486929        1.09853759230005        0.47203870163152
C           27.51603494484997        2.24141350103325        1.02980865653137
C           28.48560181988024        3.15464065841923        1.28120588156634
C           29.71998039349248        2.56324822690045        0.87059961956858
N           29.52120180676608        1.28367223853454        0.41761611345042
C           30.92579527596022        3.25872784481801        0.82215403819168
C           30.95042690263217        4.61845000163091        1.19934717873503
C           30.97855261039219        5.78659370030136        1.52612549775215
C           31.01715113461072        7.14728563684302        1.90850112192166
C           29.85986894586392        7.82132617485148        2.31529523154179
C           29.95295538513007        9.15327052032847        2.67802428139765
N           31.09630094571752        9.83365245038635        2.66068054126671
C           32.20100803669420        9.19992756320895        2.27526396729003
C           32.21563514876027        7.87040331971956        1.89269718570760
C           32.11322097283237        2.65483970824201        0.40681005565847
C           33.36181216130945        3.34735674521251        0.31267942257587
C           34.30389195579894        2.41362580344397        0.03863193621173
C           33.62464127298725        1.15568653633465       -0.02941939290984
N           32.27273711607886        1.32212294286344        0.15412006220133
H           35.35197436798114       -0.06481263634814       -0.15313351862203
H           35.33395080021207       -2.67158637141261       -0.17266176291725
H           33.40355192362714       -4.52853920207988       -0.57351130724688
H           28.69000557129446       -7.34957535094407       -2.25942590239694
H           28.75318215004728       -9.75907983468811       -2.88000777609127
H           32.80464214745792       -9.98213838038390       -2.22434901365719
H           32.92707428164825       -7.58320234084152       -1.57289330700499
H           28.28828257776422       -4.20053568592977       -1.70200959660040
H           26.39948262126606       -2.31304103577255       -1.25936076244314
H           26.45313327873295        2.32237693687361        1.19048261495096
H           28.38922885179946        4.14726248133087        1.69070787561982
H           28.90795517286707        7.30506035069331        2.34403050956408
H           29.07113547309579        9.70118550272417        2.99747501108909
H           33.11626791477772        9.78490345723767        2.27325029922918
H           33.13835586255402        7.39298874113950        1.58544924185307
H           33.48310771767517        4.40950531348879        0.45298518597320
H           35.36633746627850        2.54183696971022       -0.09397080283407
C           23.50744286501510        0.02987057826438       -0.05390417826988
C           22.27833040691777        0.03220777985192       -0.05362187222775
C           20.93538779922966        0.03559797698186       -0.04847312531663
C           19.71089693027884        0.03708448701028       -0.04120089315827
C           24.85038884884499        0.02353539384267       -0.05365532193991
C           26.07488701682732        0.01629376551206       -0.05116080003208

          :  Hamiltonian                  GFN1-xTB          :
         :: total energy            -219.648181155904 Eh    ::
         :: gradient norm              0.000465096226 Eh/a0 ::
         :: HOMO-LUMO gap              0.003964236231 eV    ::
         :: SCC energy              -223.439522867626 Eh    ::
         :: repulsion energy           3.891765482117 Eh    ::

    * Orbital Energies and Occupations

         #    Occupation            Energy/Eh            Energy/eV
      -------------------------------------------------------------
         1        2.0000           -0.7789503             -21.1963
       ...           ...                  ...                  ...
       192        2.0000           -0.4220602             -11.4848
       193        2.0000           -0.4220523             -11.4846
       194        2.0000           -0.4047546             -11.0139
       195        2.0000           -0.4047527             -11.0139
       196        2.0000           -0.4024538             -10.9513
       197        2.0000           -0.4024110             -10.9502
       198        2.0000           -0.4006867             -10.9032
       199        1.9998           -0.3992506             -10.8642
       200        1.9998           -0.3992486             -10.8641
       201        1.9998           -0.3990641             -10.8591
       202        1.9998           -0.3990619             -10.8590
       203        1.7811           -0.3922387             -10.6734
       204        1.1477           -0.3905296             -10.6269 (HOMO)
       205        1.0720           -0.3903840             -10.6229 (LUMO)
       206                         -0.3471814              -9.4473
       207                         -0.3446626              -9.3787
       208                         -0.3446596              -9.3787
       209                         -0.3343553              -9.0983
       210                         -0.3180763              -8.6553
       211                         -0.3144389              -8.5563
       212                         -0.3032324              -8.2514
       213                         -0.3032101              -8.2508
       214                         -0.2965186              -8.0687
       215                         -0.2908892              -7.9155
       ...                                ...                  ...
       430                          1.5686287              42.6846
      -------------------------------------------------------------
                  HL-Gap            0.0001457 Eh            0.0040 eV

Wiberg/Mayer (AO) data.
largest (>0.10) Wiberg bond orders for each atom

     #   Z sym  total        # sym  WBO       # sym  WBO       # sym  WBO
 ---------------------------------------------------------------------------
     1  27 Co   2.994 --     7 N    0.630    41 N    0.629    27 N    0.626
                            20 N    0.625
     2   6 C    3.927 --    40 C    1.367     3 C    1.366    42 H    0.970
     3   6 C    3.916 --     2 C    1.366     7 N    1.195     4 C    1.176
     4   6 C    3.959 --     5 C    1.644     3 C    1.176    43 H    0.975
     5   6 C    3.962 --     4 C    1.644     6 C    1.183    44 H    0.974
     6   6 C    3.911 --     8 C    1.270     7 N    1.233     5 C    1.183
     7   7 N    3.342 --     6 C    1.233     3 C    1.195     1 Co   0.630
     8   6 C    3.928 --    17 C    1.281     6 C    1.270     9 C    1.158
     9   6 C    3.957 --    10 C    2.625     8 C    1.158
    10   6 C    3.931 --     9 C    2.625    11 C    1.141
    11   6 C    3.987 --    16 C    1.351    12 C    1.351    10 C    1.141
    12   6 C    3.973 --    13 C    1.457    11 C    1.351    45 H    0.974
                            15 C    0.104
    13   6 C    3.973 --    12 C    1.457    14 N    1.407    46 H    0.972
                            16 C    0.104
    14   7 N    2.994 --    15 C    1.407    13 C    1.407
    15   6 C    3.973 --    16 C    1.456    14 N    1.407    47 H    0.972
                            12 C    0.104
    16   6 C    3.973 --    15 C    1.456    11 C    1.351    48 H    0.974
                            13 C    0.104
    17   6 C    3.906 --     8 C    1.281    20 N    1.212    18 C    1.190
    18   6 C    3.958 --    19 C    1.631    17 C    1.190    49 H    0.974
    19   6 C    3.960 --    18 C    1.631    21 C    1.192    50 H    0.973
    20   7 N    3.344 --    21 C    1.225    17 C    1.212     1 Co   0.625
    21   6 C    3.894 --    22 C    1.258    20 N    1.225    19 C    1.192
    22   6 C    3.929 --    23 C    1.259    21 C    1.258   120 C    1.194
    23   6 C    3.894 --    22 C    1.259    27 N    1.226    24 C    1.192
    24   6 C    3.960 --    25 C    1.632    23 C    1.192    51 H    0.973
    25   6 C    3.958 --    24 C    1.632    26 C    1.189    52 H    0.974
    26   6 C    3.906 --    28 C    1.284    27 N    1.211    25 C    1.189
    27   7 N    3.343 --    23 C    1.226    26 C    1.211     1 Co   0.626
    28   6 C    3.928 --    26 C    1.284    37 C    1.268    29 C    1.158
    29   6 C    3.957 --    30 C    2.625    28 C    1.158
    30   6 C    3.931 --    29 C    2.625    31 C    1.141
    31   6 C    3.987 --    32 C    1.351    36 C    1.350    30 C    1.141
    32   6 C    3.973 --    33 C    1.456    31 C    1.351    53 H    0.974
                            35 C    0.104
    33   6 C    3.973 --    32 C    1.456    34 N    1.407    54 H    0.972
                            36 C    0.104
    34   7 N    2.994 --    33 C    1.407    35 C    1.407
    35   6 C    3.973 --    36 C    1.457    34 N    1.407    55 H    0.972
                            32 C    0.104
    36   6 C    3.973 --    35 C    1.457    31 C    1.350    56 H    0.974
                            33 C    0.104
    37   6 C    3.911 --    28 C    1.268    41 N    1.234    38 C    1.184
    38   6 C    3.962 --    39 C    1.644    37 C    1.184    57 H    0.974
    39   6 C    3.959 --    38 C    1.644    40 C    1.176    58 H    0.975
    40   6 C    3.916 --     2 C    1.367    41 N    1.194    39 C    1.176
    41   7 N    3.343 --    37 C    1.234    40 C    1.194     1 Co   0.629
    42   1 H    1.000 --     2 C    0.970
    43   1 H    0.997 --     4 C    0.975
    44   1 H    1.002 --     5 C    0.974
    45   1 H    1.002 --    12 C    0.974
    46   1 H    1.013 --    13 C    0.972
    47   1 H    1.013 --    15 C    0.972
    48   1 H    1.002 --    16 C    0.974
    49   1 H    1.002 --    18 C    0.974
    50   1 H    1.001 --    19 C    0.973
    51   1 H    1.001 --    24 C    0.973
    52   1 H    1.002 --    25 C    0.974
    53   1 H    1.002 --    32 C    0.974
    54   1 H    1.013 --    33 C    0.972
    55   1 H    1.013 --    35 C    0.972
    56   1 H    1.002 --    36 C    0.974
    57   1 H    1.002 --    38 C    0.974
    58   1 H    0.997 --    39 C    0.975
    59  27 Co   2.994 --    65 N    0.630    99 N    0.629    85 N    0.626
                            78 N    0.625
    60   6 C    3.927 --    98 C    1.367    61 C    1.366   100 H    0.970
    61   6 C    3.916 --    60 C    1.366    65 N    1.195    62 C    1.176
    62   6 C    3.959 --    63 C    1.644    61 C    1.176   101 H    0.975
    63   6 C    3.962 --    62 C    1.644    64 C    1.183   102 H    0.974
    64   6 C    3.911 --    66 C    1.270    65 N    1.233    63 C    1.183
    65   7 N    3.342 --    64 C    1.233    61 C    1.195    59 Co   0.630
    66   6 C    3.928 --    75 C    1.281    64 C    1.270    67 C    1.158
    67   6 C    3.957 --    68 C    2.625    66 C    1.158
    68   6 C    3.931 --    67 C    2.625    69 C    1.141
    69   6 C    3.987 --    74 C    1.351    70 C    1.350    68 C    1.141
    70   6 C    3.973 --    71 C    1.457    69 C    1.350   103 H    0.974
                            73 C    0.104
    71   6 C    3.973 --    70 C    1.457    72 N    1.407   104 H    0.972
                            74 C    0.104
    72   7 N    2.994 --    73 C    1.407    71 C    1.407
    73   6 C    3.973 --    74 C    1.456    72 N    1.407   105 H    0.972
                            70 C    0.104
    74   6 C    3.973 --    73 C    1.456    69 C    1.351   106 H    0.974
                            71 C    0.104
    75   6 C    3.906 --    66 C    1.281    78 N    1.212    76 C    1.190
    76   6 C    3.958 --    77 C    1.631    75 C    1.190   107 H    0.974
    77   6 C    3.960 --    76 C    1.631    79 C    1.192   108 H    0.973
    78   7 N    3.344 --    79 C    1.225    75 C    1.212    59 Co   0.625
    79   6 C    3.894 --    80 C    1.258    78 N    1.225    77 C    1.192
    80   6 C    3.929 --    81 C    1.259    79 C    1.258   122 C    1.194
    81   6 C    3.894 --    80 C    1.259    85 N    1.226    82 C    1.192
    82   6 C    3.960 --    83 C    1.632    81 C    1.192   109 H    0.973
    83   6 C    3.958 --    82 C    1.632    84 C    1.189   110 H    0.974
    84   6 C    3.906 --    86 C    1.284    85 N    1.211    83 C    1.189
    85   7 N    3.343 --    81 C    1.226    84 C    1.211    59 Co   0.626
    86   6 C    3.928 --    84 C    1.284    95 C    1.268    87 C    1.158
    87   6 C    3.957 --    88 C    2.625    86 C    1.158
    88   6 C    3.931 --    87 C    2.625    89 C    1.141
    89   6 C    3.987 --    90 C    1.351    94 C    1.350    88 C    1.141
    90   6 C    3.973 --    91 C    1.456    89 C    1.351   111 H    0.974
                            93 C    0.104
    91   6 C    3.973 --    90 C    1.456    92 N    1.407   112 H    0.972
                            94 C    0.104
    92   7 N    2.994 --    91 C    1.407    93 C    1.407
    93   6 C    3.973 --    94 C    1.457    92 N    1.407   113 H    0.972
                            90 C    0.104
    94   6 C    3.973 --    93 C    1.457    89 C    1.350   114 H    0.974
                            91 C    0.104
    95   6 C    3.911 --    86 C    1.268    99 N    1.234    96 C    1.184
    96   6 C    3.962 --    97 C    1.644    95 C    1.184   115 H    0.974
    97   6 C    3.959 --    96 C    1.644    98 C    1.176   116 H    0.975
    98   6 C    3.916 --    60 C    1.367    99 N    1.194    97 C    1.176
    99   7 N    3.343 --    95 C    1.234    98 C    1.194    59 Co   0.629
   100   1 H    1.000 --    60 C    0.970
   101   1 H    0.997 --    62 C    0.975
   102   1 H    1.002 --    63 C    0.974
   103   1 H    1.002 --    70 C    0.974
   104   1 H    1.013 --    71 C    0.972
   105   1 H    1.013 --    73 C    0.972
   106   1 H    1.002 --    74 C    0.974
   107   1 H    1.002 --    76 C    0.974
   108   1 H    1.001 --    77 C    0.973
   109   1 H    1.001 --    82 C    0.973
   110   1 H    1.002 --    83 C    0.974
   111   1 H    1.002 --    90 C    0.974
   112   1 H    1.013 --    91 C    0.972
   113   1 H    1.013 --    93 C    0.972
   114   1 H    1.002 --    94 C    0.974
   115   1 H    1.002 --    96 C    0.974
   116   1 H    0.997 --    97 C    0.975
   117   6 C    3.920 --   118 C    2.356   121 C    1.342   120 C    0.189
   118   6 C    3.920 --   117 C    2.356   119 C    1.342   122 C    0.189
   119   6 C    3.930 --   120 C    2.439   118 C    1.342
   120   6 C    3.884 --   119 C    2.439    22 C    1.194   117 C    0.189
   121   6 C    3.930 --   122 C    2.439   117 C    1.342
   122   6 C    3.884 --   121 C    2.439    80 C    1.194   118 C    0.189
 ---------------------------------------------------------------------------

           -------------------------------------------------
          | TOTAL ENERGY             -219.648181155904 Eh   |
          | GRADIENT NORM               0.000465096226 Eh/α |
          | HOMO-LUMO GAP               0.003964236231 eV   |
           -------------------------------------------------

 * finished run on 2022/07/30 at 00:14:35.176
