   * xtb version 6.5.1 (b24c23e) compiled by 'conda@728c89f4b128' on 2022-07-12
          program call               : xtb Ni_BSA_C4_3.xyz --gfn 1 --opt -T 48

   ID    Z sym.   atoms
    1   28 Ni     1, 65, 137
    2    6 C      2-6, 8-12, 17-21, 23-28, 30-34, 39-44, 66-70, 72-76, 81-85,
                  87-92, 94-98, 103-108, 129-136, 138-142, 144-148, 153-157,
                  159-164, 166-170, 175-180
    3    7 N      7, 22, 29, 45, 71, 86, 93, 109, 143, 158, 165, 181
    4   16 S      13, 35, 77, 99, 149, 171
    5    8 O      14-16, 36-38, 78-80, 100-102, 150-152, 172-174
    6    1 H      46-64, 110-128, 182-199

          :  Hamiltonian                  GFN1-xTB          :
 * total energy  :  -405.9448809 Eh     change       -0.2225511E-07 Eh
 * total energy  :  -406.2616704 Eh     change       -0.3167896E+00 Eh
 * total energy  :  -406.4172322 Eh     change       -0.1555617E+00 Eh
 * total energy  :  -406.4974428 Eh     change       -0.8021056E-01 Eh
 * total energy  :  -406.5625929 Eh     change       -0.6515015E-01 Eh
 * total energy  :  -406.6127751 Eh     change       -0.5018217E-01 Eh
 * total energy  :  -406.6394192 Eh     change       -0.2664418E-01 Eh
 * total energy  :  -406.6583339 Eh     change       -0.1891470E-01 Eh
 * total energy  :  -406.6721012 Eh     change       -0.1376727E-01 Eh
 * total energy  :  -406.6882068 Eh     change       -0.1610559E-01 Eh
 * total energy  :  -406.8040193 Eh     change       -0.3495282E-04 Eh
 * total energy  :  -406.8040478 Eh     change       -0.2857937E-04 Eh
 * total energy  :  -406.8040684 Eh     change       -0.2058635E-04 Eh
 * total energy  :  -406.8040642 Eh     change        0.4230780E-05 Eh
 * total energy  :  -406.8040735 Eh     change       -0.9298911E-05 Eh
 * total energy  :  -406.8040878 Eh     change       -0.1429770E-04 Eh
 * total energy  :  -406.8040970 Eh     change       -0.9215974E-05 Eh
 * total energy  :  -406.8041076 Eh     change       -0.1058651E-04 Eh
 * total energy  :  -406.8041117 Eh     change       -0.4092173E-05 Eh
   *** GEOMETRY OPTIMIZATION CONVERGED AFTER 68 ITERATIONS ***

 final structure:
================
199
 xtb: 6.5.1 (b24c23e)
Ni          34.04452097931942        0.07135127978964        0.02106230635611
C           30.65755839999361        0.19529098241331        0.06938254271536
C           31.30577963500140       -0.26250390810402        1.19780517736245
C           30.62869797435234       -0.72458441584128        2.37116687581723
C           31.58434553791468       -0.99058862080618        3.29191926029852
C           32.84454416384782       -0.67339500388019        2.68522710398398
N           32.66531605360368       -0.27041271719807        1.38581975287198
C           34.06145755357724       -0.70543170676675        3.35380424388335
C           34.07826209157831       -1.05887046063957        4.79274603406247
C           33.40411819662177       -0.26606937737871        5.72467708426027
C           33.42859362760856       -0.59015467194646        7.07123765202770
C           34.12762696922174       -1.71734132695992        7.47168037952372
S           34.17393047590915       -2.12577683548690        9.17594853333462
O           33.96412285283161       -0.96188590387052        9.98566840496191
O           32.82815273517186       -3.03297572147899        9.23709265059126
O           35.29719238132139       -2.96737449794592        9.46599091863079
C           34.80514609601738       -2.52322394792155        6.57121537241113
C           34.77885940937599       -2.18663237340849        5.22797056798852
C           35.26829006749299       -0.41305177413721        2.73081836815191
C           36.52595106805022       -0.35382915614477        3.41281563302049
C           37.47312967783012       -0.14028834764862        2.46824958654559
N           35.43999473368480       -0.19097893404390        1.38436693941541
C           36.79229013728954       -0.06570977602641        1.21462268718087
C           37.45199463580181        0.00890312295879       -0.01385434448884
C           36.77134712187372        0.09390087162144       -1.23028124783830
C           37.42841733285952        0.12186541315446       -2.49829725489302
C           36.46854416339335        0.34129054238554       -3.42878537581454
C           35.22822937884031        0.45811263773479       -2.72292794112326
N           35.42074633637780        0.25885601648936       -1.37552250989265
C           34.02160450108000        0.79252172429612       -3.32422053026525
C           34.01414872112803        1.10983167582130       -4.77173353136840
C           33.26736899014733        0.33354946112835       -5.66104680844473
C           33.25613101736188        0.62973218558653       -7.01430594956247
C           33.99536912616468        1.71137112349564       -7.46436314665254
S           33.97322476894657        2.10374584477023       -9.17331422157170
O           34.25895444947009        3.49277872548290       -9.38630860946176
O           35.28263484343542        1.25965229035500       -9.63246261072564
O           32.81772447269093        1.53716214337487       -9.80176529504377
C           34.74149262815831        2.50282244496156       -6.60604578720579
C           34.75010244717812        2.19432983275890       -5.25592090422640
C           32.82409941648000        0.85182489412277       -2.62287984428368
C           31.57305278300716        1.24956519383579       -3.20049869953779
C           30.62975222914054        1.08288044785593       -2.24453845257330
C           31.30542372432947        0.59295196135230       -1.08159235067767
N           32.65528486942894        0.49150356348355       -1.30985439545908
H           29.57490753577566        0.23860017559949        0.08570461426759
H           29.55887534927126       -0.82680440007982        2.45875474785352
H           31.46070512587418       -1.36784725018884        4.29402273833750
H           32.87432049431320        0.61886109499868        5.39199432745403
H           32.92075187150706        0.02418836075075        7.80408796250893
H           32.67434938587586       -3.34157054408470       10.13836379961405
H           35.34601546670461       -3.39405371152331        6.91972976778001
H           35.29573852463596       -2.80746174438269        4.50552788045403
H           36.65638299161717       -0.45650274497912        4.47766319158135
H           38.53966403499654       -0.04509361399741        2.59257753184004
H           38.48883072398838       -0.00916740036322       -2.64135391005405
H           36.57985371702470        0.41580374313630       -4.49817181213470
H           32.70337252718679       -0.51386112890020       -5.28919297668081
H           32.68056649936751        0.03527173035570       -7.71263861462166
H           35.57326295861176        1.54865805754571      -10.50609694744943
H           35.29779329494747        3.34841932341238       -6.99063048965729
H           35.31762099559793        2.80731777109225       -4.56550334327037
H           31.44722666783110        1.61154600749359       -4.20792142849955
H           29.56890544888933        1.26673953933924       -2.30273315369905
Ni          60.89708811278170        0.05546408107075       -0.00592916210173
C           64.28665158849695        0.19062697803936       -0.00902742028988
C           63.63728991754310        0.19933339095691       -1.22580037302942
C           64.31573351003900        0.22838781565824       -2.48581134836050
C           63.35982480114944        0.31773338787410       -3.43951201286175
C           62.09799652954191        0.35870108596939       -2.75914507451755
N           62.27713198216616        0.24652913782494       -1.40338935650032
C           60.87791800948493        0.54239584245705       -3.39607480496911
C           60.86229976525510        0.74549809763686       -4.86431812931871
C           61.49235001621540        1.85648631387447       -5.42996777410892
C           61.46790443168591        2.05581505752886       -6.80058195119661
C           60.81382309649125        1.12895226197030       -7.59587370264130
S           60.76706931661565        1.38217107023816       -9.33000986051515
O           60.94197509528265        2.76887043796693       -9.64695876510532
O           62.13380606106076        0.59577966657120       -9.71933502449500
O           59.66423209469295        0.68015964413968       -9.91772774237609
C           60.18145199604550        0.01681117827156       -7.06421952529441
C           60.20695679440701       -0.16949415559933       -5.69195086754208
C           59.66782637133226        0.55354792063298       -2.71460564519764
C           58.40558339085899        0.81693084836357       -3.33761714162507
C           57.45906879597351        0.66871314478634       -2.38053547073582
N           59.49845105748778        0.28515021876286       -1.37627449979370
C           58.14475215723674        0.32046724131764       -1.17642558494800
C           57.48728750110350       -0.01790162218436        0.00720961223431
C           58.16674554223282       -0.34393236273811        1.18191543173297
C           57.50632345670454       -0.74470576789113        2.38363213344847
C           58.46743264158452       -0.88190952722545        3.32798154510966
C           59.71198005475017       -0.55093336099123        2.70164299822457
N           59.51965729960136       -0.26042163806456        1.37088796120918
C           60.92416698600451       -0.48594012369173        3.37614886400558
C           60.93637987954550       -0.71929823141695        4.83977301177767
C           61.65882853521953       -1.78728913307906        5.37712153663834
C           61.67862570067054       -2.00526714112856        6.74502165791413
C           60.97178436313065       -1.14198291697811        7.56607876222448
S           61.00838667006752       -1.39852946046733        9.30041269904944
O           60.75874643667983       -0.17584084283126       10.00695096448670
O           59.67925257669375       -2.32185750188322        9.43831077338872
O           62.15106256736477       -2.18075210108658        9.66585545211306
C           60.24918551224853       -0.07214781202981        7.06300777476623
C           60.23224459868324        0.13358089555849        5.69344965455136
C           62.12497031474605       -0.20118794924917        2.73895341278930
C           63.38088577301978       -0.06766582730694        3.41865306451102
C           64.32276664884893        0.12503383744176        2.46647709321820
C           63.64146629722398        0.11803836047714        1.20766156453999
N           62.29042094370532       -0.04805501607732        1.38562370223292
H           65.36928019789391        0.23774922381212       -0.00915689996916
H           65.38653581885660        0.18333560994370       -2.60411242533052
H           63.48377934967449        0.35200095900982       -4.50968681001896
H           61.98756290977338        2.57598420685679       -4.78844503101197
H           61.94116984426356        2.92026428846817       -7.24904926869089
H           62.26949253866695        0.61491923409080      -10.67451384072706
H           59.67509607923456       -0.68476553986266       -7.71517612664875
H           59.72458905665168       -1.03626388566073       -5.25546110749561
H           58.27215477232843        1.08707877282843       -4.37231949721233
H           56.39021462502139        0.77865887161017       -2.46666505812973
H           56.44330308034672       -0.89813466783769        2.47593523550768
H           58.35458003521416       -1.18309006567719        4.35658954380159
H           62.19785912441955       -2.45582740799643        4.71607312986340
H           62.23654408594945       -2.82883598212021        7.17255776220562
H           59.39252573975690       -2.35344619185632       10.35918041946599
H           59.71784865324137        0.58998917085703        7.73507215541235
H           59.68367458872747        0.97186053407984        5.28010608247841
H           63.51051284610828       -0.11210471172737        4.48772799799375
H           65.38590849061687        0.26019228707087        2.58495296658132
C           40.07989577064248       -0.02143075460197       -0.03199838215030
C           38.85934425791502       -0.00844854194458       -0.02655328572545
C           41.43168425073828       -0.03121131826311       -0.03656042932481
C           42.65236368273831       -0.03694375134908       -0.03649179888691
C           53.50527764631196       -0.05062993216623        0.01619641123871
C           52.28501089541192       -0.05352459333271        0.01147517369262
C           54.85817755091934       -0.04564885534832        0.01630519958545
C           56.07835357030197       -0.03589425487125        0.01403204215737
Ni          47.46837644080053       -0.03958822292415       -0.02425662235426
C           44.05932444493658       -0.03774545266509       -0.03465305620716
C           44.72981272517152        0.90479303519798        0.74866171066292
C           44.06351892868041        1.85631329678258        1.57994692066404
C           45.01663961425636        2.69692004180363        2.05005134120408
C           46.26210522927455        2.25955154761119        1.49624278870652
N           46.07975757798930        1.12711844316727        0.73705899245197
C           47.46418947186631        2.93859475193731        1.64794063115261
C           47.46158449869635        4.23253837907511        2.36962815241393
C           48.20969288996893        4.38839342621048        3.53896293448304
C           48.21011620819264        5.59611395397993        4.21746519391755
C           47.45913658004588        6.64377165920295        3.71028217962040
S           47.46766785182779        8.18140196328592        4.55360633160132
O           47.19326163123631        9.26378789150232        3.65391968754625
O           46.14527478513568        7.96182236730036        5.47022634797133
O           48.61159971443369        8.27432668887124        5.41014577441737
C           46.71193786384360        6.52132519230648        2.54988740288892
C           46.71359961792350        5.30755325859938        1.88286893211508
C           48.66850640518442        2.45501381060052        1.15294544701212
C           49.91400384135672        3.15500750040806        1.24438101622551
C           50.87011245041219        2.31266428536050        0.78395156119741
N           48.85386481901734        1.21526461268690        0.58667733000379
C           50.20549736819858        1.10711184596294        0.40239117512902
C           50.87672963775071       -0.04993517131500        0.00147294753767
C           50.20442792164084       -1.20131204633655       -0.41345713138149
C           50.86772271552192       -2.40821128993262       -0.79308501105402
C           49.91437307567146       -3.24025381054166       -1.27741158907641
C           48.67176671794710       -2.53351850342444       -1.19997241980226
N           48.85533871286694       -1.29942410957091       -0.62102036125864
C           47.47157309852824       -3.00786013960291       -1.71344344958703
C           47.47055249751936       -4.29701950115391       -2.44370704414644
C           48.22769813198872       -4.44951837412990       -3.60762552280685
C           48.22428508784497       -5.65186382438193       -4.29574343979878
C           47.46065956822876       -6.69754301998644       -3.80341387640143
S           47.45978174004501       -8.22685709814543       -4.66159367240413
O           47.15054574520503       -9.31304162369169       -3.77795884499119
O           46.15869643894027       -7.97487580196164       -5.60049081309948
O           48.61728261124900       -8.33134696091045       -5.49842874083659
C           46.70629675496799       -6.57917061922767       -2.64724666692686
C           46.71206208119821       -5.37083859182881       -1.97056951399766
C           46.26982930963122       -2.32676790497959       -1.56764559374612
C           45.02735935884427       -2.75931868750123       -2.13195748154320
C           44.07148773961195       -1.92343777569482       -1.65888189557751
C           44.73347789185194       -0.97794416222947       -0.81749224624989
N           46.08341305956228       -1.20002673195594       -0.80088821918613
H           43.00174959842313        1.86979743803103        1.76570664081393
H           44.89735011970179        3.53759721194357        2.71379104671265
H           48.78280137879648        3.55286425744636        3.92353261402043
H           48.78596287603889        5.72815689583616        5.12479598043771
H           45.84233197218024        8.80683088567639        5.82432514269824
H           46.14645892077722        7.36522201121506        2.17509721081607
H           46.14510450606245        5.19346800333467        0.96729560813922
H           50.03121395714911        4.16126014391123        1.61205022907857
H           51.93257782385639        2.47714684838567        0.70589084141618
H           51.92773571747944       -2.57981508857075       -0.69852253589789
H           50.03140550185319       -4.24381555515172       -1.65246267795358
H           48.81023299670308       -3.61543121999430       -3.98103215910286
H           48.80619384815877       -5.78113739442349       -5.19962603207458
H           45.85638000879219       -8.80862506896568       -5.98075093039649
H           46.13155783839198       -7.42166542932774       -2.28354381154307
H           46.13764659782048       -5.25979943508766       -1.05832440260474
H           44.91160042670230       -3.59410791881737       -2.80371907984933
H           43.01056901384210       -1.93574540745083       -1.84964401249365

          :  Hamiltonian                  GFN1-xTB          :
         :: total energy            -406.804111680402 Eh    ::
         :: gradient norm              0.000578840436 Eh/a0 ::
         :: HOMO-LUMO gap              1.260525641794 eV    ::
         :: SCC energy              -412.190580390480 Eh    ::
         :: repulsion energy           5.571680711708 Eh    ::

    * Orbital Energies and Occupations

         #    Occupation            Energy/Eh            Energy/eV
      -------------------------------------------------------------
         1        2.0000           -1.0384206             -28.2569
       ...           ...                  ...                  ...
       341        2.0000           -0.4165681             -11.3354
       342        2.0000           -0.4164972             -11.3335
       343        2.0000           -0.4164587             -11.3324
       344        2.0000           -0.4163195             -11.3286
       345        2.0000           -0.4161197             -11.3232
       346        2.0000           -0.4152386             -11.2992
       347        2.0000           -0.4152047             -11.2983
       348        2.0000           -0.4151216             -11.2960
       349        2.0000           -0.4141580             -11.2698
       350        2.0000           -0.4140379             -11.2665
       351        2.0000           -0.4123852             -11.2216
       352        2.0000           -0.4083502             -11.1118
       353        2.0000           -0.4049469             -11.0192 (HOMO)
       354                         -0.3586235              -9.7586 (LUMO)
       355                         -0.3518850              -9.5753
       356                         -0.3514005              -9.5621
       357                         -0.3507666              -9.5448
       358                         -0.3499396              -9.5223
       359                         -0.3495080              -9.5106
       360                         -0.3476404              -9.4598
       361                         -0.3466610              -9.4331
       362                         -0.3461489              -9.4192
       363                         -0.3260903              -8.8734
       364                         -0.3210980              -8.7375
       ...                                ...                  ...
       729                          1.5007089              40.8364
      -------------------------------------------------------------
                  HL-Gap            0.0463235 Eh            1.2605 eV

Wiberg/Mayer (AO) data.
largest (>0.10) Wiberg bond orders for each atom

     #   Z sym  total        # sym  WBO       # sym  WBO       # sym  WBO
 ---------------------------------------------------------------------------
     1  28 Ni   3.018 --    45 N    0.665     7 N    0.664    22 N    0.661
                            29 N    0.661
     2   6 C    3.938 --    44 C    1.365     3 C    1.364    46 H    0.970
     3   6 C    3.921 --     2 C    1.364     7 N    1.213     4 C    1.174
     4   6 C    3.960 --     5 C    1.651     3 C    1.174    47 H    0.975
     5   6 C    3.963 --     4 C    1.651     6 C    1.175    48 H    0.973
     6   6 C    3.921 --     8 C    1.324     7 N    1.221     5 C    1.175
     7   7 N    3.403 --     6 C    1.221     3 C    1.213     1 Ni   0.664
     8   6 C    3.939 --    19 C    1.324     6 C    1.324     9 C    1.029
     9   6 C    3.986 --    10 C    1.391    18 C    1.391     8 C    1.029
    10   6 C    3.987 --    11 C    1.450     9 C    1.391    49 H    0.971
                            17 C    0.106
    11   6 C    3.989 --    10 C    1.450    12 C    1.407    50 H    0.967
                            18 C    0.106
    12   6 C    3.931 --    11 C    1.407    17 C    1.407    13 S    0.754
    13  16 S    5.265 --    16 O    1.720    14 O    1.719    15 O    1.013
                            12 C    0.754
    14   8 O    2.078 --    13 S    1.719    16 O    0.139
    15   8 O    2.087 --    13 S    1.013    51 H    0.827
    16   8 O    2.079 --    13 S    1.720    14 O    0.139
    17   6 C    3.989 --    18 C    1.450    12 C    1.407    52 H    0.967
                            10 C    0.106
    18   6 C    3.987 --    17 C    1.450     9 C    1.391    53 H    0.971
                            11 C    0.106
    19   6 C    3.916 --     8 C    1.324    22 N    1.210    20 C    1.182
    20   6 C    3.960 --    21 C    1.638    19 C    1.182    54 H    0.973
    21   6 C    3.961 --    20 C    1.638    23 C    1.189    55 H    0.973
    22   7 N    3.406 --    23 C    1.233    19 C    1.210     1 Ni   0.661
    23   6 C    3.905 --    24 C    1.270    22 N    1.233    21 C    1.189
    24   6 C    3.946 --    23 C    1.270    25 C    1.269   130 C    1.172
    25   6 C    3.905 --    24 C    1.269    29 N    1.235    26 C    1.190
    26   6 C    3.961 --    27 C    1.637    25 C    1.190    56 H    0.973
    27   6 C    3.960 --    26 C    1.637    28 C    1.182    57 H    0.973
    28   6 C    3.916 --    30 C    1.325    29 N    1.209    27 C    1.182
    29   7 N    3.406 --    25 C    1.235    28 C    1.209     1 Ni   0.661
    30   6 C    3.939 --    28 C    1.325    41 C    1.323    31 C    1.028
    31   6 C    3.986 --    32 C    1.392    40 C    1.390    30 C    1.028
    32   6 C    3.987 --    33 C    1.449    31 C    1.392    58 H    0.971
                            39 C    0.106
    33   6 C    3.989 --    32 C    1.449    34 C    1.408    59 H    0.966
                            40 C    0.106
    34   6 C    3.931 --    33 C    1.408    39 C    1.407    35 S    0.754
    35  16 S    5.267 --    38 O    1.727    36 O    1.714    37 O    1.014
                            34 C    0.754
    36   8 O    2.073 --    35 S    1.714    38 O    0.139
    37   8 O    2.088 --    35 S    1.014    60 H    0.828
    38   8 O    2.085 --    35 S    1.727    36 O    0.139
    39   6 C    3.989 --    40 C    1.451    34 C    1.407    61 H    0.967
                            32 C    0.106
    40   6 C    3.987 --    39 C    1.451    31 C    1.390    62 H    0.971
                            33 C    0.106
    41   6 C    3.921 --    30 C    1.323    45 N    1.222    42 C    1.174
    42   6 C    3.963 --    43 C    1.652    41 C    1.174    63 H    0.973
    43   6 C    3.960 --    42 C    1.652    44 C    1.173    64 H    0.974
    44   6 C    3.921 --     2 C    1.365    45 N    1.212    43 C    1.173
    45   7 N    3.403 --    41 C    1.222    44 C    1.212     1 Ni   0.665
    46   1 H    1.000 --     2 C    0.970
    47   1 H    0.997 --     4 C    0.975
    48   1 H    1.003 --     5 C    0.973
    49   1 H    1.003 --    10 C    0.971
    50   1 H    0.999 --    11 C    0.967
    51   1 H    0.854 --    15 O    0.827
    52   1 H    1.000 --    17 C    0.967
    53   1 H    1.003 --    18 C    0.971
    54   1 H    1.003 --    20 C    0.973
    55   1 H    1.001 --    21 C    0.973
    56   1 H    1.001 --    26 C    0.973
    57   1 H    1.003 --    27 C    0.973
    58   1 H    1.003 --    32 C    0.971
    59   1 H    0.999 --    33 C    0.966
    60   1 H    0.854 --    37 O    0.828
    61   1 H    0.999 --    39 C    0.967
    62   1 H    1.003 --    40 C    0.971
    63   1 H    1.003 --    42 C    0.973
    64   1 H    0.997 --    43 C    0.974
    65  28 Ni   3.014 --   109 N    0.665    71 N    0.664    86 N    0.661
                            93 N    0.660
    66   6 C    3.939 --   108 C    1.365    67 C    1.364   110 H    0.970
    67   6 C    3.921 --    66 C    1.364    71 N    1.213    68 C    1.173
    68   6 C    3.960 --    69 C    1.652    67 C    1.173   111 H    0.975
    69   6 C    3.963 --    68 C    1.652    70 C    1.174   112 H    0.973
    70   6 C    3.921 --    72 C    1.324    71 N    1.222    69 C    1.174
    71   7 N    3.404 --    70 C    1.222    67 C    1.213    65 Ni   0.664
    72   6 C    3.939 --    83 C    1.326    70 C    1.324    73 C    1.027
    73   6 C    3.986 --    74 C    1.392    82 C    1.391    72 C    1.027
    74   6 C    3.987 --    75 C    1.449    73 C    1.392   113 H    0.971
                            81 C    0.106
    75   6 C    3.989 --    74 C    1.449    76 C    1.408   114 H    0.967
                            82 C    0.106
    76   6 C    3.931 --    75 C    1.408    81 C    1.407    77 S    0.754
    77  16 S    5.265 --    78 O    1.720    80 O    1.719    79 O    1.013
                            76 C    0.754
    78   8 O    2.079 --    77 S    1.720    80 O    0.139
    79   8 O    2.087 --    77 S    1.013   115 H    0.827
    80   8 O    2.078 --    77 S    1.719    78 O    0.139
    81   6 C    3.989 --    82 C    1.450    76 C    1.407   116 H    0.967
                            74 C    0.106
    82   6 C    3.987 --    81 C    1.450    73 C    1.391   117 H    0.971
                            75 C    0.106
    83   6 C    3.916 --    72 C    1.326    86 N    1.210    84 C    1.181
    84   6 C    3.960 --    85 C    1.639    83 C    1.181   118 H    0.973
    85   6 C    3.962 --    84 C    1.639    87 C    1.188   119 H    0.973
    86   7 N    3.407 --    87 C    1.233    83 C    1.210    65 Ni   0.661
    87   6 C    3.907 --    88 C    1.272    86 N    1.233    85 C    1.188
    88   6 C    3.947 --    87 C    1.272    89 C    1.272   136 C    1.166
    89   6 C    3.907 --    88 C    1.272    93 N    1.234    90 C    1.189
    90   6 C    3.962 --    91 C    1.639    89 C    1.189   120 H    0.973
    91   6 C    3.960 --    90 C    1.639    92 C    1.182   121 H    0.973
    92   6 C    3.916 --    94 C    1.326    93 N    1.210    91 C    1.182
    93   7 N    3.406 --    89 C    1.234    92 C    1.210    65 Ni   0.660
    94   6 C    3.939 --    92 C    1.326   105 C    1.323    95 C    1.028
    95   6 C    3.986 --    96 C    1.392   104 C    1.391    94 C    1.028
    96   6 C    3.987 --    97 C    1.449    95 C    1.392   122 H    0.971
                           103 C    0.106
    97   6 C    3.989 --    96 C    1.449    98 C    1.408   123 H    0.967
                           104 C    0.106
    98   6 C    3.931 --    97 C    1.408   103 C    1.407    99 S    0.754
    99  16 S    5.267 --   102 O    1.727   100 O    1.714   101 O    1.014
                            98 C    0.754
   100   8 O    2.073 --    99 S    1.714   102 O    0.139
   101   8 O    2.088 --    99 S    1.014   124 H    0.828
   102   8 O    2.085 --    99 S    1.727   100 O    0.139
   103   6 C    3.989 --   104 C    1.450    98 C    1.407   125 H    0.967
                            96 C    0.106
   104   6 C    3.987 --   103 C    1.450    95 C    1.391   126 H    0.971
                            97 C    0.106
   105   6 C    3.921 --    94 C    1.323   109 N    1.222   106 C    1.174
   106   6 C    3.963 --   107 C    1.652   105 C    1.174   127 H    0.973
   107   6 C    3.960 --   106 C    1.652   108 C    1.173   128 H    0.974
   108   6 C    3.921 --    66 C    1.365   109 N    1.212   107 C    1.173
   109   7 N    3.404 --   105 C    1.222   108 C    1.212    65 Ni   0.665
   110   1 H    1.000 --    66 C    0.970
   111   1 H    0.997 --    68 C    0.975
   112   1 H    1.003 --    69 C    0.973
   113   1 H    1.003 --    74 C    0.971
   114   1 H    0.999 --    75 C    0.967
   115   1 H    0.854 --    79 O    0.827
   116   1 H    0.999 --    81 C    0.967
   117   1 H    1.003 --    82 C    0.971
   118   1 H    1.003 --    84 C    0.973
   119   1 H    1.001 --    85 C    0.973
   120   1 H    1.001 --    90 C    0.973
   121   1 H    1.003 --    91 C    0.973
   122   1 H    1.003 --    96 C    0.971
   123   1 H    0.999 --    97 C    0.967
   124   1 H    0.854 --   101 O    0.828
   125   1 H    0.999 --   103 C    0.967
   126   1 H    1.003 --   104 C    0.971
   127   1 H    1.003 --   106 C    0.973
   128   1 H    0.997 --   107 C    0.974
   129   6 C    3.937 --   130 C    2.493   131 C    1.295
   130   6 C    3.922 --   129 C    2.493    24 C    1.172   132 C    0.198
   131   6 C    3.935 --   132 C    2.492   129 C    1.295
   132   6 C    3.923 --   131 C    2.492   138 C    1.174   130 C    0.198
   133   6 C    3.934 --   134 C    2.497   135 C    1.289
   134   6 C    3.921 --   133 C    2.497   160 C    1.169   136 C    0.197
   135   6 C    3.937 --   136 C    2.498   133 C    1.289
   136   6 C    3.920 --   135 C    2.498    88 C    1.166   134 C    0.197
   137  28 Ni   3.013 --   165 N    0.662   158 N    0.662   181 N    0.661
                           143 N    0.661
   138   6 C    3.939 --   180 C    1.267   139 C    1.267   132 C    1.174
   139   6 C    3.905 --   138 C    1.267   143 N    1.235   140 C    1.190
   140   6 C    3.960 --   141 C    1.636   139 C    1.190   182 H    0.973
   141   6 C    3.960 --   140 C    1.636   142 C    1.184   183 H    0.973
   142   6 C    3.914 --   144 C    1.324   143 N    1.208   141 C    1.184
   143   7 N    3.401 --   139 C    1.235   142 C    1.208   137 Ni   0.661
   144   6 C    3.935 --   155 C    1.324   142 C    1.324   145 C    1.029
   145   6 C    3.986 --   146 C    1.392   154 C    1.390   144 C    1.029
   146   6 C    3.987 --   147 C    1.449   145 C    1.392   184 H    0.971
                           153 C    0.106
   147   6 C    3.989 --   146 C    1.449   148 C    1.408   185 H    0.966
                           154 C    0.106
   148   6 C    3.931 --   147 C    1.408   153 C    1.407   149 S    0.754
   149  16 S    5.268 --   152 O    1.727   150 O    1.714   151 O    1.015
                           148 C    0.754
   150   8 O    2.073 --   149 S    1.714   152 O    0.139
   151   8 O    2.089 --   149 S    1.015   186 H    0.827
   152   8 O    2.086 --   149 S    1.727   150 O    0.139
   153   6 C    3.989 --   154 C    1.451   148 C    1.407   187 H    0.967
                           146 C    0.106
   154   6 C    3.987 --   153 C    1.451   145 C    1.390   188 H    0.971
                           147 C    0.106
   155   6 C    3.915 --   144 C    1.324   158 N    1.208   156 C    1.183
   156   6 C    3.961 --   157 C    1.637   155 C    1.183   189 H    0.973
   157   6 C    3.960 --   156 C    1.637   159 C    1.190   190 H    0.973
   158   7 N    3.401 --   159 C    1.234   155 C    1.208   137 Ni   0.662
   159   6 C    3.906 --   160 C    1.270   158 N    1.234   157 C    1.190
   160   6 C    3.939 --   161 C    1.270   159 C    1.270   134 C    1.169
   161   6 C    3.906 --   160 C    1.270   165 N    1.233   162 C    1.190
   162   6 C    3.960 --   163 C    1.637   161 C    1.190   191 H    0.973
   163   6 C    3.961 --   162 C    1.637   164 C    1.183   192 H    0.973
   164   6 C    3.915 --   166 C    1.324   165 N    1.208   163 C    1.183
   165   7 N    3.401 --   161 C    1.233   164 C    1.208   137 Ni   0.662
   166   6 C    3.935 --   164 C    1.324   177 C    1.324   167 C    1.029
   167   6 C    3.986 --   168 C    1.392   176 C    1.390   166 C    1.029
   168   6 C    3.987 --   169 C    1.449   167 C    1.392   193 H    0.971
                           175 C    0.106
   169   6 C    3.989 --   168 C    1.449   170 C    1.408   194 H    0.966
                           176 C    0.106
   170   6 C    3.931 --   169 C    1.408   175 C    1.407   171 S    0.754
   171  16 S    5.267 --   174 O    1.727   172 O    1.714   173 O    1.014
                           170 C    0.754
   172   8 O    2.073 --   171 S    1.714   174 O    0.139
   173   8 O    2.088 --   171 S    1.014   195 H    0.827
   174   8 O    2.085 --   171 S    1.727   172 O    0.139
   175   6 C    3.989 --   176 C    1.451   170 C    1.407   196 H    0.967
                           168 C    0.106
   176   6 C    3.987 --   175 C    1.451   167 C    1.390   197 H    0.971
                           169 C    0.106
   177   6 C    3.915 --   166 C    1.324   181 N    1.207   178 C    1.184
   178   6 C    3.960 --   179 C    1.636   177 C    1.184   198 H    0.973
   179   6 C    3.960 --   178 C    1.636   180 C    1.191   199 H    0.973
   180   6 C    3.905 --   138 C    1.267   181 N    1.235   179 C    1.191
   181   7 N    3.401 --   180 C    1.235   177 C    1.207   137 Ni   0.661
   182   1 H    1.001 --   140 C    0.973
   183   1 H    1.003 --   141 C    0.973
   184   1 H    1.003 --   146 C    0.971
   185   1 H    0.999 --   147 C    0.966
   186   1 H    0.854 --   151 O    0.827
   187   1 H    0.999 --   153 C    0.967
   188   1 H    1.003 --   154 C    0.971
   189   1 H    1.003 --   156 C    0.973
   190   1 H    1.001 --   157 C    0.973
   191   1 H    1.001 --   162 C    0.973
   192   1 H    1.003 --   163 C    0.973
   193   1 H    1.003 --   168 C    0.971
   194   1 H    0.999 --   169 C    0.966
   195   1 H    0.854 --   173 O    0.827
   196   1 H    0.999 --   175 C    0.967
   197   1 H    1.003 --   176 C    0.971
   198   1 H    1.003 --   178 C    0.973
   199   1 H    1.001 --   179 C    0.973
 ---------------------------------------------------------------------------

           -------------------------------------------------
          | TOTAL ENERGY             -406.804111680402 Eh   |
          | GRADIENT NORM               0.000578840436 Eh/α |
          | HOMO-LUMO GAP               1.260525641794 eV   |
           -------------------------------------------------

 * finished run on 2022/07/30 at 10:59:08.112
