   * xtb version 6.5.1 (b24c23e) compiled by 'conda@728c89f4b128' on 2022-07-12
          program call               : xtb Ph3OH_C8_3.xyz --gfn 1 --opt -T 48

   ID    Z sym.   atoms
    1    6 C      1-5, 7-10, 12, 14, 16-19, 21-26, 28-31, 33, 35, 37-41,
                  64-68, 70-73, 75, 77, 79-82, 84-89, 91-94, 96, 98, 100-104,
                  127-147, 149-152, 154, 156, 158-161, 163-168, 170-173, 175,
                  177, 179-183
    2    7 N      6, 20, 27, 42, 69, 83, 90, 105, 148, 162, 169, 184
    3    8 O      11, 13, 15, 32, 34, 36, 74, 76, 78, 95, 97, 99, 153, 155,
                  157, 174, 176, 178
    4    1 H      43-63, 106-126, 185-204

          :  Hamiltonian                  GFN1-xTB          :
 * total energy  :  -391.4558132 Eh     change       -0.3897412E-08 Eh
 * total energy  :  -391.9686843 Eh     change       -0.5128711E+00 Eh
 * total energy  :  -392.1419281 Eh     change       -0.1732438E+00 Eh
 * total energy  :  -392.2234462 Eh     change       -0.8151811E-01 Eh
 * total energy  :  -392.2729974 Eh     change       -0.4955117E-01 Eh
 * total energy  :  -392.3262865 Eh     change       -0.5328912E-01 Eh
 * total energy  :  -392.3859754 Eh     change       -0.5968890E-01 Eh
 * total energy  :  -392.4340843 Eh     change       -0.4810889E-01 Eh
 * total energy  :  -392.4702571 Eh     change       -0.3617279E-01 Eh
 * total energy  :  -392.4967292 Eh     change       -0.2647214E-01 Eh
 * total energy  :  -392.6607640 Eh     change        0.5075308E-05 Eh
 * total energy  :  -392.6607734 Eh     change       -0.9386176E-05 Eh
 * total energy  :  -392.6606707 Eh     change        0.1027507E-03 Eh
 * total energy  :  -392.6607767 Eh     change       -0.1060199E-03 Eh
 * total energy  :  -392.6607749 Eh     change        0.1773935E-05 Eh
 * total energy  :  -392.6607895 Eh     change       -0.1457452E-04 Eh
 * total energy  :  -392.6607948 Eh     change       -0.5292266E-05 Eh
 * total energy  :  -392.6608007 Eh     change       -0.5948457E-05 Eh
 * total energy  :  -392.6608036 Eh     change       -0.2827183E-05 Eh
   *** GEOMETRY OPTIMIZATION CONVERGED AFTER 79 ITERATIONS ***

 final structure:
================
204
 xtb: 6.5.1 (b24c23e)
C           23.00028781950348       -0.34810328614828        0.15248506865161
C           23.61630275190704       -1.09542740501374       -0.84304983116955
C           22.97114348841541       -1.88066608424963       -1.83939838100530
C           23.93803268515564       -2.44445981552073       -2.62315210254002
C           25.20622219770059       -2.03534656637914       -2.12051040208471
N           24.96055586998119       -1.21497891367860       -1.05600566499791
C           26.47438660574668       -2.38018528453643       -2.60176949348570
C           26.52456604576014       -3.29414855438288       -3.76982521596725
C           27.13169155737188       -2.86593051396160       -4.95390631253215
C           27.17518034417152       -3.71334566258390       -6.05365413154490
O           27.74526962676172       -3.35987769131890       -7.24838858472842
C           26.62242489010959       -4.98931716570971       -5.97824209719034
O           26.65462983635927       -5.84585439983172       -7.04711585660031
C           26.01997106947399       -5.41975665694322       -4.79496434567326
O           25.48921252568664       -6.66517994428725       -4.73033016220540
C           25.96814481893840       -4.57122600864648       -3.69501444152699
C           27.68221274063648       -1.92837130154671       -2.06393161276041
C           28.98720395839129       -2.38115647007921       -2.51105584939949
C           29.89701854481723       -1.73386145507219       -1.75369119902645
N           27.82195473318598       -1.03525311768553       -1.04569294879550
C           29.14697329997416       -0.88816752794145       -0.84555159035450
C           29.77093951301154       -0.02679442361541        0.08022016658172
C           29.12330047399098        0.81799764902102        1.00153651347908
C           29.75358704340907        1.73673492797866        1.88199568838715
C           28.77876337529073        2.35742750849371        2.61271195968203
C           27.52237826918258        1.82441946923955        2.21108907690994
N           27.78233414896413        0.90810466004155        1.22576233686610
C           26.25650361263774        2.15971493987758        2.70309956632679
C           26.20318670548156        3.16160502230906        3.79548467289980
C           26.86339406022330        2.92648447749697        5.00211150661169
C           26.80869820112167        3.86856479170554        6.02269077598242
O           27.44105763106725        3.64612627944401        7.20056888309926
C           26.09756611242840        5.05523047065093        5.83677478126030
O           26.06436035311079        5.96696744880579        6.85885425694572
C           25.44064581883135        5.29114256125715        4.63171371643731
O           24.76691757676797        6.47922533492710        4.52139395714625
C           25.48795395218690        4.34873017864926        3.61230670432755
C           25.05203968211345        1.61679006503257        2.24064931464879
C           23.74872713714760        1.90449245130314        2.81914836899937
C           22.84896622584781        1.19721381553827        2.10608947795069
C           23.60152510996063        0.47320601365300        1.09722758141562
N           24.92540253034597        0.74080275898432        1.21609895708587
H           21.91712829186909       -0.41186345081384        0.18204638291705
H           21.90241768603493       -1.98492646494176       -1.93833616388241
H           23.79107700321719       -3.08411638172730       -3.47811825800768
H           25.68233715581493       -0.76030662020099       -0.50681515578058
H           27.55183135893442       -1.86944767356690       -5.02357402371034
H           28.10867741399195       -2.46569769679113       -7.20450365308705
H           27.10864746195471       -5.39565317696143       -7.77724207731912
H           25.62826152838958       -7.10091864060959       -5.58743447964599
H           25.51468315299794       -4.92336858328947       -2.77746636482102
H           29.16175947007054       -3.11099292199188       -3.28499671723197
H           30.97230467518252       -1.80796515072169       -1.78398285387212
H           30.81770724047338        1.90113959313822        1.93556685510613
H           28.91504254642258        3.12237737676001        3.35948273584051
H           27.06796037902646        0.37764842270096        0.73792417100312
H           27.40217183599705        2.00209090696206        5.16560372249857
H           27.28414687421327        4.40966109077572        7.78033902499839
H           25.53027855291469        6.72315821673037        6.56770724887804
H           24.33838737646237        6.55242596353302        3.65855184261164
H           24.98737020602241        4.54635072440401        2.67171341451462
H           23.57212629512124        2.54756154874330        3.66639093928506
H           21.77871446961887        1.14478477359963        2.23130703170534
C           66.86672389320940       -0.23052059891773        0.32897438033807
C           66.25394631135846        0.55846569614802        1.29386369395891
C           66.90185817797260        1.31671691003142        2.30915551940073
C           65.93817916676282        1.95143691222238        3.04089437875302
C           64.66898409637385        1.58905906952075        2.50593457721943
N           64.91122600572055        0.75808050090817        1.44889646339385
C           63.40344805986298        1.99479368056062        2.94478622693027
C           63.35885609530106        2.89632431826055        4.12282511901393
C           62.78310556959779        4.16415526853073        4.00077647822089
C           62.74545178779930        5.01424742082592        5.09874199916394
O           62.20545493032446        6.27270226160055        5.05229764954109
C           63.27295618642243        4.60537436719463        6.32097839892854
O           63.24579673140222        5.42316574117635        7.42000580730347
C           63.84432791314289        3.33792344500994        6.44520324908576
O           64.35088833372707        2.94774416711406        7.64029341130103
C           63.89024281134658        2.48774045031730        5.34631300121775
C           62.19441257299408        1.61206068948077        2.35836207191369
C           60.88951078453033        1.96491362137322        2.88823737962995
C           59.97829916431270        1.40699597984066        2.06436311227830
N           62.05281660782337        0.84431615176715        1.24278492886386
C           60.72732001502012        0.71277414363499        1.03504421193421
C           60.10248446744708        0.02473804107990       -0.02518785483227
C           60.74810881959063       -0.68354153884655       -1.05645215565336
C           60.11682440611253       -1.31194843844425       -2.16248472421814
C           61.08927668522835       -1.88641537328424       -2.93294147329664
C           62.34495517064423       -1.63929872025112       -2.31155222332111
N           62.08725649648329       -0.89766434694630       -1.18829604297610
C           63.60854322145936       -2.05160911960646       -2.74767189766017
C           63.65902039341992       -2.87070451877056       -3.98319733391110
C           62.98456055609943       -4.09041668880400       -4.04990087134955
C           63.03536358691056       -4.85345541594228       -5.21062940423449
O           62.38882196417001       -6.04229173763234       -5.28259289208921
C           63.75711001229848       -4.39461307391216       -6.31381714029607
O           63.78602696811773       -5.16603918105655       -7.44564019398404
C           64.42851339654676       -3.17632950805841       -6.24813367271093
O           65.11213697150515       -2.79001225342207       -7.37111729271415
C           64.38500397421426       -2.41455131793836       -5.08736435502415
C           64.81278175429350       -1.74830360804836       -2.10188210409118
C           66.11270369823788       -2.25537111495627       -2.51306213916089
C           67.01300586671177       -1.74712908314987       -1.64735994402180
C           66.26399793127852       -0.93591465173968       -0.70434256148102
N           64.94171782802373       -0.96898838785835       -1.00224994772172
H           67.94860218212392       -0.29088092573242        0.39292241176977
H           67.97028633505303        1.36814833038391        2.44574540135800
H           66.08799379536136        2.61713696316758        3.87524824915146
H           64.18822681140708        0.35159698538370        0.86465543767110
H           62.38298541700726        4.49379119203985        3.04915456389110
H           61.85729151339676        6.46483284030942        4.17172033608815
H           62.81436197168466        6.25383318414547        7.16364161731193
H           64.22043337255990        3.66963654250353        8.27720584531204
H           64.31951311247106        1.50064988068098        5.45999391639288
H           60.71537324654798        2.54328102787978        3.78114449404588
H           58.90252684734931        1.44206743788481        2.12883917963879
H           59.05384806080265       -1.31073933890770       -2.34220789655209
H           60.95192651124828       -2.42756942141067       -3.85470294545161
H           62.80197967830004       -0.55959538788569       -0.55223958977282
H           62.43714820313205       -4.46603374974329       -3.19505767940842
H           62.54397475212928       -6.42163219700669       -6.16336962441807
H           64.32786370294095       -4.70666149152914       -8.10685091780392
H           65.54945602985639       -1.93985271182873       -7.23164783628952
H           64.89678337519703       -1.46009812378106       -5.04935135811700
H           66.28658892988896       -2.92267060525975       -3.34193041622136
H           68.08134881967182       -1.89463828173884       -1.61971836396302
C           31.17600066914458        0.00544710993113        0.08693794584112
C           32.40065959734265        0.02097344677414        0.09125557729428
C           33.74306683794815        0.02970900494983        0.09075321974460
C           34.97389713606778        0.02932069732590        0.08451117295147
C           36.31148840375501        0.02453711678398        0.07497993216997
C           37.54223701431420        0.01743925270136        0.06096742197340
C           38.88432332206364        0.01107499790815        0.04329655768647
C           40.10914865481565        0.00800143454922        0.02262242723503
C           49.76471777544393        0.03326421907080       -0.11218365754814
C           50.98955187559658        0.03955762185515       -0.12225955247687
C           52.33184452979209        0.04456310453855       -0.12919470052978
C           53.56270978710478        0.05119242041295       -0.13254157160941
C           54.90042911703438        0.05272668519009       -0.13040429537977
C           56.13117856004018        0.05307370073094       -0.12085316460684
C           57.47349137864273        0.04897995071869       -0.09950214108178
C           58.69778364077967        0.04376963647225       -0.07071628894702
C           41.51345521655992        0.00931868501784        0.00037203960323
C           42.14068904629050       -1.25163319953874       -0.01577919204286
C           41.49211533187857       -2.51250843969882        0.02961909474868
C           42.45530569119124       -3.48314404776049       -0.02128122357741
C           43.72052768157789       -2.84159631511455       -0.10975448154281
N           43.47975653736940       -1.49339981085050       -0.09175040767906
C           44.97877901788002       -3.45193592403012       -0.18706715503609
C           44.99407646515916       -4.93485586539946       -0.23698866512116
C           45.64230083032563       -5.66467392614838        0.76016448014453
C           45.66246885332326       -7.05637944313399        0.73168502902393
O           46.28140675897446       -7.77744994176805        1.70211071187745
C           45.03322018391356       -7.73791995714582       -0.31527152370513
O           45.04007688483187       -9.09459130694345       -0.37432389070706
C           44.39007332628768       -6.99999087873774       -1.31256919452815
O           43.79809249009715       -7.72838031620291       -2.31201294449616
C           44.35944672855042       -5.61277940344385       -1.27974068356389
C           46.20156309504740       -2.77867536410767       -0.21922546420880
C           47.48620230811287       -3.43831062327991       -0.36982940238079
C           48.42114640326307       -2.46596692644055       -0.34323632155166
N           46.37634179966071       -1.43131997497386       -0.12789038418520
C           47.70594181643819       -1.21511268242733       -0.18726767350918
C           48.36018029776037        0.03005890093265       -0.09633342056362
C           47.73423625347687        1.28690746999192        0.01144760036487
C           48.38544990739304        2.54116404765414        0.13856921914253
C           47.42278402592928        3.51170686996225        0.19033512878695
C           46.15470478239835        2.87763111756400        0.08652519163651
N           46.39388444185958        1.53239310450263       -0.00679545524652
C           44.89581915747141        3.49071909690395        0.09079775980864
C           44.88130325442575        4.97377746665918        0.15469601896286
C           45.48846195288122        5.72550486493161       -0.85172450069550
C           45.46963047180409        7.11412164836323       -0.79283301564893
O           46.04946247786659        7.85331064015458       -1.76959281830130
C           44.84943359158353        7.75630534999952        0.28014511535746
O           44.84962739955994        9.12582237865701        0.31340602117253
C           44.24757278063983        7.00571444583904        1.28702047945113
O           43.66349025170645        7.70594883214202        2.30941744201048
C           44.25815597963553        5.61783221592004        1.22714618181467
C           43.67169551081453        2.82104361310447        0.04028275120636
C           42.38418029270281        3.48923919856935       -0.02166163609841
C           41.44892761631987        2.51696848754993       -0.04261597996803
C           42.16662638934270        1.25841614494255       -0.00533381110142
N           43.49758035319982        1.47059369542660        0.03223891201289
H           40.42523522901869       -2.65058179412772        0.09964154171353
H           42.30423841148502       -4.54980400410698        0.01046014359588
H           44.20146957691306       -0.78100260011756       -0.12207706111552
H           46.12208011242096       -5.14679503807573        1.58293095396639
H           46.68485603673996       -7.19953477389776        2.36305697949444
H           44.55709752760959       -9.36641926972469       -1.17132970553569
H           43.38768176798727       -7.14739221572993       -2.96549207884761
H           43.86685361903815       -5.06386422401887       -2.07377945127503
H           47.63115145870035       -4.49919972185569       -0.49385930301886
H           49.49200662482601       -2.55896590941210       -0.42778058133090
H           49.45404220012442        2.67433960079857        0.18845665199455
H           47.57572501390548        4.57292090385939        0.29892136274987
H           45.67090282069601        0.82409769200149       -0.07634661633557
H           45.95772341559332        5.23897942360226       -1.69708307404620
H           45.92917771304246        8.79280102892265       -1.55359604747526
H           44.37880699665813        9.40554651953273        1.11461560601899
H           43.26580658312425        7.10613928530163        2.95411158665237
H           43.80000586018145        5.04003267669966        2.02115408041068
H           42.23687288549260        4.55638659603745       -0.06004763437585
H           40.37621022212630        2.61560975678401       -0.08897055620610

          :  Hamiltonian                  GFN1-xTB          :
         :: total energy            -392.660803564299 Eh    ::
         :: gradient norm              0.000479832609 Eh/a0 ::
         :: HOMO-LUMO gap              0.921050312930 eV    ::
         :: SCC energy              -398.372355463473 Eh    ::
         :: repulsion energy           5.880638359841 Eh    ::

    * Orbital Energies and Occupations

         #    Occupation            Energy/Eh            Energy/eV
      -------------------------------------------------------------
         1        2.0000           -0.8139518             -22.1488
       ...           ...                  ...                  ...
       327        2.0000           -0.4126582             -11.2290
       328        2.0000           -0.4123761             -11.2213
       329        2.0000           -0.4117140             -11.2033
       330        2.0000           -0.4105860             -11.1726
       331        2.0000           -0.4099452             -11.1552
       332        2.0000           -0.4091720             -11.1341
       333        2.0000           -0.4072936             -11.0830
       334        2.0000           -0.4012676             -10.9190
       335        2.0000           -0.4000566             -10.8861
       336        2.0000           -0.3993154             -10.8659
       337        2.0000           -0.3855132             -10.4903
       338        2.0000           -0.3826557             -10.4126
       339        2.0000           -0.3789324             -10.3113 (HOMO)
       340                         -0.3450844              -9.3902 (LUMO)
       341                         -0.3380926              -9.2000
       342                         -0.3357361              -9.1358
       343                         -0.3331935              -9.0667
       344                         -0.3323864              -9.0447
       345                         -0.3316245              -9.0240
       346                         -0.3118730              -8.4865
       347                         -0.3037483              -8.2654
       348                         -0.3030124              -8.2454
       349                         -0.2952604              -8.0344
       350                         -0.2908850              -7.9154
       ...                                ...                  ...
       692                          1.6051257              43.6777
      -------------------------------------------------------------
                  HL-Gap            0.0338480 Eh            0.9211 eV

Wiberg/Mayer (AO) data.
largest (>0.10) Wiberg bond orders for each atom

     #   Z sym  total        # sym  WBO       # sym  WBO       # sym  WBO
 ---------------------------------------------------------------------------
     1   6 C    3.925 --    41 C    1.366     2 C    1.346    43 H    0.971
     2   6 C    3.902 --     1 C    1.346     3 C    1.229     6 N    1.170
     3   6 C    3.954 --     4 C    1.595     2 C    1.229    44 H    0.976
     4   6 C    3.959 --     3 C    1.595     5 C    1.234    45 H    0.974
     5   6 C    3.896 --     7 C    1.303     4 C    1.234     6 N    1.177
     6   7 N    3.470 --     5 C    1.177     2 C    1.170    46 H    0.873
     7   6 C    3.939 --    17 C    1.335     5 C    1.303     8 C    1.030
     8   6 C    3.989 --    16 C    1.398     9 C    1.385     7 C    1.030
     9   6 C    3.974 --    10 C    1.385     8 C    1.385    47 H    0.969
    10   6 C    3.905 --     9 C    1.385    12 C    1.340    11 O    1.014
    11   8 O    2.025 --    10 C    1.014    48 H    0.861
    12   6 C    3.904 --    10 C    1.340    14 C    1.324    13 O    1.021
    13   8 O    2.021 --    12 C    1.021    49 H    0.846
    14   6 C    3.918 --    16 C    1.380    12 C    1.324    15 O    1.053
    15   8 O    2.048 --    14 C    1.053    50 H    0.847
    16   6 C    3.976 --     8 C    1.398    14 C    1.380    51 H    0.970
    17   6 C    3.914 --     7 C    1.335    20 N    1.286    18 C    1.126
    18   6 C    3.966 --    19 C    1.709    17 C    1.126    52 H    0.974
    19   6 C    3.963 --    18 C    1.709    21 C    1.129    53 H    0.974
    20   7 N    3.022 --    21 C    1.344    17 C    1.286
    21   6 C    3.908 --    20 N    1.344    22 C    1.253    19 C    1.129
    22   6 C    3.937 --    21 C    1.253    23 C    1.251   127 C    1.192
    23   6 C    3.885 --    22 C    1.251    24 C    1.248    27 N    1.190
    24   6 C    3.958 --    25 C    1.584    23 C    1.248    54 H    0.975
    25   6 C    3.955 --    24 C    1.584    26 C    1.240    55 H    0.974
    26   6 C    3.898 --    28 C    1.311    25 C    1.240    27 N    1.164
    27   7 N    3.474 --    23 C    1.190    26 C    1.164    56 H    0.873
    28   6 C    3.925 --    38 C    1.318    26 C    1.311    29 C    1.032
    29   6 C    3.989 --    30 C    1.397    37 C    1.384    28 C    1.032
    30   6 C    3.975 --    29 C    1.397    31 C    1.380    57 H    0.970
    31   6 C    3.918 --    30 C    1.380    33 C    1.324    32 O    1.053
    32   8 O    2.049 --    31 C    1.053    58 H    0.847
    33   6 C    3.903 --    35 C    1.340    31 C    1.324    34 O    1.021
    34   8 O    2.021 --    33 C    1.021    59 H    0.846
    35   6 C    3.905 --    37 C    1.385    33 C    1.340    36 O    1.014
    36   8 O    2.025 --    35 C    1.014    60 H    0.861
    37   6 C    3.971 --    35 C    1.385    29 C    1.384    61 H    0.969
    38   6 C    3.928 --    42 N    1.319    28 C    1.318    39 C    1.119
    39   6 C    3.967 --    40 C    1.720    38 C    1.119    62 H    0.974
    40   6 C    3.966 --    39 C    1.720    41 C    1.118    63 H    0.976
    41   6 C    3.929 --     1 C    1.366    42 N    1.299    40 C    1.118
    42   7 N    3.012 --    38 C    1.319    41 C    1.299
    43   1 H    1.002 --     1 C    0.971
    44   1 H    0.998 --     3 C    0.976
    45   1 H    1.005 --     4 C    0.974
    46   1 H    0.986 --     6 N    0.873
    47   1 H    1.001 --     9 C    0.969
    48   1 H    0.881 --    11 O    0.861
    49   1 H    0.876 --    13 O    0.846
    50   1 H    0.877 --    15 O    0.847
    51   1 H    1.000 --    16 C    0.970
    52   1 H    1.006 --    18 C    0.974
    53   1 H    1.003 --    19 C    0.974
    54   1 H    1.002 --    24 C    0.975
    55   1 H    1.005 --    25 C    0.974
    56   1 H    0.987 --    27 N    0.873
    57   1 H    1.000 --    30 C    0.970
    58   1 H    0.877 --    32 O    0.847
    59   1 H    0.876 --    34 O    0.846
    60   1 H    0.881 --    36 O    0.861
    61   1 H    1.001 --    37 C    0.969
    62   1 H    1.006 --    39 C    0.974
    63   1 H    0.998 --    40 C    0.976
    64   6 C    3.925 --   104 C    1.366    65 C    1.347   106 H    0.971
    65   6 C    3.902 --    64 C    1.347    66 C    1.229    69 N    1.170
    66   6 C    3.954 --    67 C    1.595    65 C    1.229   107 H    0.976
    67   6 C    3.959 --    66 C    1.595    68 C    1.234   108 H    0.974
    68   6 C    3.896 --    70 C    1.303    67 C    1.234    69 N    1.177
    69   7 N    3.470 --    68 C    1.177    65 C    1.170   109 H    0.873
    70   6 C    3.939 --    80 C    1.335    68 C    1.303    71 C    1.030
    71   6 C    3.989 --    79 C    1.398    72 C    1.385    70 C    1.030
    72   6 C    3.974 --    71 C    1.385    73 C    1.385   110 H    0.969
    73   6 C    3.905 --    72 C    1.385    75 C    1.340    74 O    1.014
    74   8 O    2.025 --    73 C    1.014   111 H    0.861
    75   6 C    3.904 --    73 C    1.340    77 C    1.324    76 O    1.021
    76   8 O    2.021 --    75 C    1.021   112 H    0.846
    77   6 C    3.918 --    79 C    1.380    75 C    1.324    78 O    1.053
    78   8 O    2.048 --    77 C    1.053   113 H    0.847
    79   6 C    3.976 --    71 C    1.398    77 C    1.380   114 H    0.970
    80   6 C    3.914 --    70 C    1.335    83 N    1.286    81 C    1.126
    81   6 C    3.966 --    82 C    1.709    80 C    1.126   115 H    0.974
    82   6 C    3.964 --    81 C    1.709    84 C    1.129   116 H    0.974
    83   7 N    3.022 --    84 C    1.344    80 C    1.286
    84   6 C    3.908 --    83 N    1.344    85 C    1.253    82 C    1.129
    85   6 C    3.937 --    84 C    1.253    86 C    1.251   142 C    1.191
    86   6 C    3.885 --    85 C    1.251    87 C    1.248    90 N    1.190
    87   6 C    3.959 --    88 C    1.584    86 C    1.248   117 H    0.975
    88   6 C    3.955 --    87 C    1.584    89 C    1.240   118 H    0.974
    89   6 C    3.898 --    91 C    1.311    88 C    1.240    90 N    1.164
    90   7 N    3.474 --    86 C    1.190    89 C    1.164   119 H    0.873
    91   6 C    3.926 --   101 C    1.318    89 C    1.311    92 C    1.032
    92   6 C    3.989 --    93 C    1.397   100 C    1.384    91 C    1.032
    93   6 C    3.975 --    92 C    1.397    94 C    1.380   120 H    0.970
    94   6 C    3.918 --    93 C    1.380    96 C    1.324    95 O    1.053
    95   8 O    2.049 --    94 C    1.053   121 H    0.847
    96   6 C    3.903 --    98 C    1.340    94 C    1.324    97 O    1.021
    97   8 O    2.021 --    96 C    1.021   122 H    0.846
    98   6 C    3.905 --   100 C    1.385    96 C    1.340    99 O    1.013
    99   8 O    2.025 --    98 C    1.013   123 H    0.861
   100   6 C    3.972 --    98 C    1.385    92 C    1.384   124 H    0.969
   101   6 C    3.928 --   105 N    1.319    91 C    1.318   102 C    1.119
   102   6 C    3.967 --   103 C    1.720   101 C    1.119   125 H    0.974
   103   6 C    3.966 --   102 C    1.720   104 C    1.118   126 H    0.976
   104   6 C    3.929 --    64 C    1.366   105 N    1.299   103 C    1.118
   105   7 N    3.013 --   101 C    1.319   104 C    1.299
   106   1 H    1.002 --    64 C    0.971
   107   1 H    0.998 --    66 C    0.976
   108   1 H    1.005 --    67 C    0.974
   109   1 H    0.986 --    69 N    0.873
   110   1 H    1.001 --    72 C    0.969
   111   1 H    0.881 --    74 O    0.861
   112   1 H    0.876 --    76 O    0.846
   113   1 H    0.878 --    78 O    0.847
   114   1 H    1.000 --    79 C    0.970
   115   1 H    1.006 --    81 C    0.974
   116   1 H    1.003 --    82 C    0.974
   117   1 H    1.002 --    87 C    0.975
   118   1 H    1.005 --    88 C    0.974
   119   1 H    0.987 --    90 N    0.873
   120   1 H    1.000 --    93 C    0.970
   121   1 H    0.877 --    95 O    0.847
   122   1 H    0.876 --    97 O    0.846
   123   1 H    0.881 --    99 O    0.861
   124   1 H    1.001 --   100 C    0.969
   125   1 H    1.006 --   102 C    0.974
   126   1 H    0.998 --   103 C    0.976
   127   6 C    3.876 --   128 C    2.437    22 C    1.192   130 C    0.186
   128   6 C    3.932 --   127 C    2.437   129 C    1.345
   129   6 C    3.891 --   130 C    2.334   128 C    1.345   132 C    0.182
   130   6 C    3.923 --   129 C    2.334   131 C    1.370   127 C    0.186
   131   6 C    3.922 --   132 C    2.333   130 C    1.370   134 C    0.186
   132   6 C    3.891 --   131 C    2.333   133 C    1.346   129 C    0.182
   133   6 C    3.929 --   134 C    2.434   132 C    1.346
   134   6 C    3.876 --   133 C    2.434   143 C    1.195   131 C    0.186
   135   6 C    3.877 --   136 C    2.435   164 C    1.194   138 C    0.186
   136   6 C    3.929 --   135 C    2.435   137 C    1.345
   137   6 C    3.891 --   138 C    2.334   136 C    1.345   140 C    0.182
   138   6 C    3.922 --   137 C    2.334   139 C    1.369   135 C    0.186
   139   6 C    3.923 --   140 C    2.335   138 C    1.369   142 C    0.186
   140   6 C    3.891 --   139 C    2.335   141 C    1.344   137 C    0.182
   141   6 C    3.932 --   142 C    2.438   140 C    1.344
   142   6 C    3.876 --   141 C    2.438    85 C    1.191   139 C    0.186
   143   6 C    3.925 --   183 C    1.253   144 C    1.246   134 C    1.195
   144   6 C    3.886 --   145 C    1.254   143 C    1.246   148 N    1.189
   145   6 C    3.955 --   146 C    1.576   144 C    1.254   185 H    0.975
   146   6 C    3.956 --   145 C    1.576   147 C    1.247   186 H    0.974
   147   6 C    3.893 --   149 C    1.299   146 C    1.247   148 N    1.166
   148   7 N    3.471 --   144 C    1.189   147 C    1.166   187 H    0.874
   149   6 C    3.928 --   159 C    1.337   147 C    1.299   150 C    1.030
   150   6 C    3.988 --   151 C    1.392   158 C    1.384   149 C    1.030
   151   6 C    3.974 --   150 C    1.392   152 C    1.380   188 H    0.969
   152   6 C    3.915 --   151 C    1.380   154 C    1.321   153 O    1.044
   153   8 O    2.053 --   152 C    1.044   189 H    0.866
   154   6 C    3.915 --   156 C    1.328   152 C    1.321   155 O    1.052
   155   8 O    2.048 --   154 C    1.052   190 H    0.850
   156   6 C    3.904 --   158 C    1.390   154 C    1.328   157 O    1.013
   157   8 O    2.026 --   156 C    1.013   191 H    0.861
   158   6 C    3.973 --   156 C    1.390   150 C    1.384   192 H    0.969
   159   6 C    3.916 --   149 C    1.337   162 N    1.284   160 C    1.126
   160   6 C    3.966 --   161 C    1.708   159 C    1.126   193 H    0.974
   161   6 C    3.964 --   160 C    1.708   163 C    1.130   194 H    0.974
   162   7 N    3.010 --   163 C    1.344   159 C    1.284
   163   6 C    3.908 --   162 N    1.344   164 C    1.253   161 C    1.130
   164   6 C    3.925 --   163 C    1.253   165 C    1.247   135 C    1.194
   165   6 C    3.885 --   166 C    1.253   164 C    1.247   169 N    1.189
   166   6 C    3.956 --   167 C    1.578   165 C    1.253   195 H    0.975
   167   6 C    3.956 --   166 C    1.578   168 C    1.246   196 H    0.974
   168   6 C    3.893 --   170 C    1.300   167 C    1.246   169 N    1.166
   169   7 N    3.471 --   165 C    1.189   168 C    1.166   197 H    0.874
   170   6 C    3.928 --   180 C    1.337   168 C    1.300   171 C    1.029
   171   6 C    3.989 --   172 C    1.398   179 C    1.386   170 C    1.029
   172   6 C    3.976 --   171 C    1.398   173 C    1.380   198 H    0.970
   173   6 C    3.918 --   172 C    1.380   175 C    1.324   174 O    1.053
   174   8 O    2.049 --   173 C    1.053   199 H    0.847
   175   6 C    3.904 --   177 C    1.340   173 C    1.324   176 O    1.022
   176   8 O    2.021 --   175 C    1.022   200 H    0.846
   177   6 C    3.905 --   179 C    1.385   175 C    1.340   178 O    1.014
   178   8 O    2.025 --   177 C    1.014   201 H    0.860
   179   6 C    3.973 --   171 C    1.386   177 C    1.385   202 H    0.969
   180   6 C    3.916 --   170 C    1.337   184 N    1.285   181 C    1.126
   181   6 C    3.966 --   182 C    1.708   180 C    1.126   203 H    0.974
   182   6 C    3.963 --   181 C    1.708   183 C    1.130   204 H    0.974
   183   6 C    3.909 --   184 N    1.344   143 C    1.253   182 C    1.130
   184   7 N    3.009 --   183 C    1.344   180 C    1.285
   185   1 H    1.002 --   145 C    0.975
   186   1 H    1.006 --   146 C    0.974
   187   1 H    0.987 --   148 N    0.874
   188   1 H    1.001 --   151 C    0.969
   189   1 H    0.886 --   153 O    0.866
   190   1 H    0.881 --   155 O    0.850
   191   1 H    0.881 --   157 O    0.861
   192   1 H    1.001 --   158 C    0.969
   193   1 H    1.006 --   160 C    0.974
   194   1 H    1.002 --   161 C    0.974
   195   1 H    1.002 --   166 C    0.975
   196   1 H    1.005 --   167 C    0.974
   197   1 H    0.987 --   169 N    0.874
   198   1 H    1.000 --   172 C    0.970
   199   1 H    0.877 --   174 O    0.847
   200   1 H    0.876 --   176 O    0.846
   201   1 H    0.881 --   178 O    0.860
   202   1 H    1.001 --   179 C    0.969
   203   1 H    1.006 --   181 C    0.974
   204   1 H    1.003 --   182 C    0.974
 ---------------------------------------------------------------------------

           -------------------------------------------------
          | TOTAL ENERGY             -392.660803564299 Eh   |
          | GRADIENT NORM               0.000479832609 Eh/α |
          | HOMO-LUMO GAP               0.921050312930 eV   |
           -------------------------------------------------

 * finished run on 2022/07/29 at 22:04:03.176
