   * xtb version 6.5.1 (b24c23e) compiled by 'conda@728c89f4b128' on 2022-07-12
          program call               : xtb Cu_Py_C8_2.xyz --gfn 1 --opt -T 48

   ID    Z sym.   atoms
    1   29 Cu     1, 55
    2    6 C      2-6, 8-11, 13-17, 19-24, 26-29, 31-36, 56-60, 62-65, 67-71,
                  73-78, 80-83, 85-90, 109-116
    3    7 N      7, 12, 18, 25, 30, 37, 61, 66, 72, 79, 84, 91
    4    1 H      38-54, 92-108
########################################################################
[WARNING] Please study the warnings concerning your input carefully
-1- prog_main_parseArguments: Unknown option '-T' provided
########################################################################

          :  Hamiltonian                  GFN1-xTB          :
 * total energy  :  -208.7512924 Eh     change       -0.1231257E-08 Eh
 * total energy  :  -209.0097670 Eh     change       -0.2584746E+00 Eh
 * total energy  :  -209.0843008 Eh     change       -0.7453384E-01 Eh
 * total energy  :  -209.1075006 Eh     change       -0.2319982E-01 Eh
 * total energy  :  -209.1154874 Eh     change       -0.7986726E-02 Eh
 * total energy  :  -209.1198310 Eh     change       -0.4343620E-02 Eh
 * total energy  :  -209.1214934 Eh     change       -0.1662443E-02 Eh
 * total energy  :  -209.1239441 Eh     change       -0.2450667E-02 Eh
 * total energy  :  -209.1250566 Eh     change       -0.1112482E-02 Eh
 * total energy  :  -209.1262829 Eh     change       -0.1226367E-02 Eh
 * total energy  :  -209.1307479 Eh     change       -0.2910180E-04 Eh
 * total energy  :  -209.1307794 Eh     change       -0.3154395E-04 Eh
 * total energy  :  -209.1308042 Eh     change       -0.2471828E-04 Eh
 * total energy  :  -209.1308220 Eh     change       -0.1785035E-04 Eh
 * total energy  :  -209.1308351 Eh     change       -0.1304113E-04 Eh
 * total energy  :  -209.1308447 Eh     change       -0.9679536E-05 Eh
 * total energy  :  -209.1308528 Eh     change       -0.8093120E-05 Eh
 * total energy  :  -209.1308587 Eh     change       -0.5912721E-05 Eh
 * total energy  :  -209.1308636 Eh     change       -0.4882265E-05 Eh
   *** GEOMETRY OPTIMIZATION CONVERGED AFTER 42 ITERATIONS ***

 final structure:
================
116
 xtb: 6.5.1 (b24c23e)
Cu           9.79897583230538       -0.02836205505476       -0.00313872343472
C            6.39184934175069       -0.05776294513544       -0.00167090752652
C            7.02555773857396       -1.28593095859866        0.11284679834584
C            6.34989365748602       -2.54315292537362        0.26254023539953
C            7.30821912246151       -3.49710497470912        0.36328314695600
C            8.57914577151953       -2.83131711920294        0.26668050676660
N            8.37609617984240       -1.48949556166075        0.12098920350316
C            9.82440067457597       -3.45929012960657        0.34576863707641
C            9.83705502001301       -4.93349135387452        0.50767970877775
C           10.37722985644676       -5.52979503856913        1.64651765533653
C           10.36284835986720       -6.91108528916490        1.75797751383577
N            9.85802343056390       -7.70792619763465        0.82159815332983
C            9.34378166313669       -7.14778513872533       -0.26849143749035
C            9.30836479334647       -5.77669949203211       -0.46864369979577
C           11.05824031440312       -2.80844097937125        0.28989002697852
C           12.33486442631629       -3.46436941828695        0.32358774896100
C           13.28192851944964       -2.49730068350587        0.22688886126274
N           11.24822843414051       -1.45797149181525        0.16131675729274
C           12.59208459711798       -1.24635772679884        0.12593292802048
C           13.22927517817652        0.00041447809599       -0.00577712915719
C           12.57144078429877        1.23654871205861       -0.13449646028422
C           13.24034808986328        2.49194317520397       -0.30086586368937
C           12.27739482802422        3.44317750040365       -0.39818222923956
C           11.01191461045601        2.77475875616386       -0.28322345955331
N           11.22445928323476        1.42983421076820       -0.13282707665966
C            9.76666665363833        3.40330039884697       -0.34451017576227
C            9.75216937057493        4.87878626905212       -0.49231578671413
C            9.18717202365003        5.48867313365566       -1.61181896476970
C            9.19893694889987        6.87132594531068       -1.70679310534208
N            9.72385645354800        7.65723976855961       -0.77218738125864
C           10.26260773106285        7.08416025537476        0.29935099410049
C           10.30223878950576        5.71088540599404        0.48210288884509
C            8.53267110108817        2.75148579147997       -0.27885529828445
C            7.25074841651750        3.40283274715784       -0.29638174830069
C            6.30892329987880        2.43179863195833       -0.20353145648827
C            7.00575606557660        1.18011244053759       -0.11929609497226
N            8.35265212809085        1.40364058309846       -0.16111723966174
H            5.30679159652719       -0.06489131789084        0.01225192033391
H            5.27857864196081       -2.66502244649082        0.29237630228691
H            7.17386419241890       -4.55772393479011        0.50236698808940
H           10.78894407635636       -4.91863411527333        2.44079462636972
H           10.77369812917898       -7.39805063882786        2.63748020540671
H            8.94204912331128       -7.82505684905601       -1.01633835551130
H            8.88952674249178       -5.36530049200651       -1.37931076798565
H           12.48325930429274       -4.52940043553415        0.39762546269192
H           14.35401438407533       -2.61182377431256        0.21761012189540
H           14.31034163768979        2.61817431447556       -0.34305871606663
H           12.40828631894181        4.50261575689072       -0.54793957299861
H            8.75883735434203        4.88753616982855       -2.40512724823056
H            8.76864095622548        7.36859737503808       -2.57132686609679
H           10.68131055389460        7.75247982760657        1.04622530487246
H           10.74109625593209        5.28879148722980        1.37840489469270
H            7.09826036327259        4.46824440779179       -0.35885960443236
H            5.23581590170095        2.53934920618838       -0.18566420776129
Cu          28.40515300901218        0.02351009459592       -0.01051338391017
C           31.81228633769792        0.05381148508833       -0.01786868643746
C           31.17813938925548        1.26092505799442       -0.27051061188462
C           31.85320337225889        2.50653619443557       -0.49917852989758
C           30.89438076076551        3.44801864695273       -0.68040813528522
C           29.62374243747851        2.78333339503151       -0.57306499666329
N           29.82747686826285        1.45780107753796       -0.31934651410832
C           28.37820070174696        3.40721061338150       -0.67575055913283
C           28.36478492292768        4.86500829663403       -0.94883486107103
C           27.83237568141543        5.76653576869410       -0.02796486474868
C           27.84607018289266        7.12075515483743       -0.32212509062981
N           28.34279567698633        7.61107433631586       -1.45322235625317
C           28.84926843972411        6.75823362458323       -2.33785705545088
C           28.88502818452638        5.38802874092676       -2.13179961250819
C           27.14475016928775        2.76847965550198       -0.53592210020259
C           25.86781474153070        3.40636701260425       -0.68954850738106
C           24.92112965972624        2.45264244218006       -0.50054399827906
N           26.95531967177165        1.43848865763979       -0.26806391080329
C           25.61153106319621        1.22570360387772       -0.23798503529434
C           24.97487543586910       -0.00637650462590       -0.00464750758447
C           25.63335581802576       -1.22697019561776        0.22760564292052
C           24.96508331223595       -2.47776083916774        0.42771088039208
C           25.92844070271379       -3.41579603109855        0.61115655094354
C           27.19347505310307       -2.74125672609182        0.53302758531383
N           26.98034268688334       -1.41034124672177        0.28832745317311
C           28.43904742921047       -3.35888658445089        0.66212899694159
C           28.45451148516393       -4.81372618103930        0.94852092958360
C           29.02914334182373       -5.72027043748543        0.05820526167408
C           29.01804364613054       -7.07125024818587        0.36728838729293
N           28.48468582501009       -7.55434857177622        1.48483263533899
C           27.93666627381572       -6.69694461083391        2.34008836860118
C           27.89582717764381       -5.32960369469377        2.11739590347979
C           29.67265020537609       -2.71432819681590        0.54033389672504
C           30.95474053130958       -3.34040118152519        0.71970331614818
C           31.89608367604382       -2.38402473948340        0.52531918420272
C           31.19876447479841       -1.16386169068195        0.23495817506603
N           29.85201483249111       -1.39113398755128        0.25752821866578
H           32.89734111668268        0.06501221932071       -0.00674859206252
H           32.92450227992900        2.63173133457275       -0.50986739905059
H           31.02816269253278        4.50262120644912       -0.85992915587344
H           27.42703968381860        5.41240768779009        0.91240115325556
H           27.44107377532383        7.84240803421604        0.38127911797431
H           29.24498396187410        7.18908114262995       -3.25297871093799
H           29.29782471804415        4.72961695124086       -2.88690179154151
H           25.71898155814348        4.44750063084159       -0.92556822461332
H           23.84896095051479        2.55972945757221       -0.53983615408786
H           23.89524127195902       -2.61190549854057        0.42021345179587
H           25.79800527106249       -4.47366120520993        0.77197088750790
H           29.46447883473824       -5.37341752488890       -0.87148713044708
H           29.45609792371132       -7.79632285813623       -0.31255553117926
H           27.51107560313885       -7.12156753289582        3.24471330265771
H           27.44934657018130       -4.66735730926416        2.84965488916834
H           31.10763461334258       -4.37666265580398        0.97474241650129
H           32.96914249891032       -2.48026032184434        0.57750504427938
C           14.63498611757015        0.00871549860528       -0.01811894892455
C           15.85937512725072        0.00608104970323       -0.02581135684956
C           17.20238751057587        0.00308532442691       -0.02997379438366
C           18.43296931188048       -0.00495414497330       -0.02967413252820
C           19.77118849005243       -0.01173727533121       -0.02760958513283
C           21.00173986618449       -0.01697792175645       -0.02450100419186
C           22.34473912063289       -0.01846944706820       -0.01937070441146
C           23.56918993210885       -0.01888329859336       -0.01305812989390

          :  Hamiltonian                  GFN1-xTB          :
         :: total energy            -209.130863619385 Eh    ::
         :: gradient norm              0.000549824540 Eh/a0 ::
         :: HOMO-LUMO gap              0.000031799028 eV    ::
         :: SCC energy              -212.475793180603 Eh    ::
         :: repulsion energy           3.448232714558 Eh    ::

    * Orbital Energies and Occupations

         #    Occupation            Energy/Eh            Energy/eV
      -------------------------------------------------------------
         1        2.0000           -0.7702271             -20.9589
       ...           ...                  ...                  ...
       182        2.0000           -0.4171778             -11.3520
       183        2.0000           -0.4143035             -11.2738
       184        2.0000           -0.4142958             -11.2736
       185        2.0000           -0.4140811             -11.2677
       186        2.0000           -0.4140560             -11.2670
       187        2.0000           -0.4140431             -11.2667
       188        2.0000           -0.4139192             -11.2633
       189        2.0000           -0.4105706             -11.1722
       190        2.0000           -0.4015202             -10.9259
       191        2.0000           -0.4015148             -10.9258
       192        2.0000           -0.3962729             -10.7831
       193        2.0000           -0.3868956             -10.5280
       194        1.0003           -0.3617089              -9.8426 (HOMO)
       195        0.9997           -0.3617077              -9.8426 (LUMO)
       196                         -0.3438109              -9.3556
       197                         -0.3346427              -9.1061
       198                         -0.3346372              -9.1059
       199                         -0.3337655              -9.0822
       200                         -0.3075510              -8.3689
       201                         -0.3032050              -8.2506
       202                         -0.3003010              -8.1716
       203                         -0.2842450              -7.7347
       204                         -0.2813718              -7.6565
       205                         -0.2813506              -7.6559
       ...                                ...                  ...
       406                          1.6026985              43.6116
      -------------------------------------------------------------
                  HL-Gap            0.0000012 Eh            0.0000 eV

Wiberg/Mayer (AO) data.
largest (>0.10) Wiberg bond orders for each atom

     #   Z sym  total        # sym  WBO       # sym  WBO       # sym  WBO
 ---------------------------------------------------------------------------
     1  29 Cu   2.183 --    37 N    0.505     7 N    0.504    18 N    0.502
                            25 N    0.502
     2   6 C    3.930 --    36 C    1.362     3 C    1.362    38 H    0.971
     3   6 C    3.916 --     2 C    1.362     7 N    1.229     4 C    1.170
     4   6 C    3.955 --     5 C    1.657     3 C    1.170    39 H    0.975
     5   6 C    3.958 --     4 C    1.657     6 C    1.171    40 H    0.973
     6   6 C    3.914 --     8 C    1.319     7 N    1.240     5 C    1.171
     7   7 N    3.243 --     6 C    1.240     3 C    1.229     1 Cu   0.504
     8   6 C    3.935 --    15 C    1.327     6 C    1.319     9 C    1.027
     9   6 C    3.986 --    14 C    1.393    10 C    1.393     8 C    1.027
                            12 N    0.107
    10   6 C    3.987 --    11 C    1.442     9 C    1.393    41 H    0.973
                            13 C    0.109
    11   6 C    3.972 --    10 C    1.442    12 N    1.415    42 H    0.972
                            14 C    0.108
    12   7 N    3.030 --    13 C    1.416    11 C    1.415     9 C    0.107
    13   6 C    3.972 --    14 C    1.442    12 N    1.416    43 H    0.972
                            10 C    0.109
    14   6 C    3.987 --    13 C    1.442     9 C    1.393    44 H    0.973
                            11 C    0.108
    15   6 C    3.908 --     8 C    1.327    18 N    1.222    16 C    1.178
    16   6 C    3.954 --    17 C    1.643    15 C    1.178    45 H    0.973
    17   6 C    3.956 --    16 C    1.643    19 C    1.186    46 H    0.974
    18   7 N    3.248 --    19 C    1.257    15 C    1.222     1 Cu   0.502
    19   6 C    3.896 --    20 C    1.259    18 N    1.257    17 C    1.186
    20   6 C    3.940 --    21 C    1.259    19 C    1.259   109 C    1.189
    21   6 C    3.896 --    20 C    1.259    25 N    1.257    22 C    1.186
    22   6 C    3.956 --    23 C    1.643    21 C    1.186    47 H    0.974
    23   6 C    3.954 --    22 C    1.643    24 C    1.178    48 H    0.973
    24   6 C    3.908 --    26 C    1.326    25 N    1.222    23 C    1.178
    25   7 N    3.248 --    21 C    1.257    24 C    1.222     1 Cu   0.502
    26   6 C    3.935 --    24 C    1.326    33 C    1.318    27 C    1.028
    27   6 C    3.986 --    32 C    1.393    28 C    1.393    26 C    1.028
                            30 N    0.107
    28   6 C    3.987 --    29 C    1.442    27 C    1.393    49 H    0.973
                            31 C    0.108
    29   6 C    3.972 --    28 C    1.442    30 N    1.415    50 H    0.972
                            32 C    0.108
    30   7 N    3.030 --    29 C    1.415    31 C    1.415    27 C    0.107
    31   6 C    3.972 --    32 C    1.442    30 N    1.415    51 H    0.972
                            28 C    0.108
    32   6 C    3.987 --    31 C    1.442    27 C    1.393    52 H    0.973
                            29 C    0.108
    33   6 C    3.914 --    26 C    1.318    37 N    1.240    34 C    1.172
    34   6 C    3.958 --    35 C    1.656    33 C    1.172    53 H    0.973
    35   6 C    3.955 --    34 C    1.656    36 C    1.170    54 H    0.975
    36   6 C    3.916 --     2 C    1.362    37 N    1.229    35 C    1.170
    37   7 N    3.244 --    33 C    1.240    36 C    1.229     1 Cu   0.505
    38   1 H    1.001 --     2 C    0.971
    39   1 H    0.998 --     4 C    0.975
    40   1 H    1.004 --     5 C    0.973
    41   1 H    1.004 --    10 C    0.973
    42   1 H    1.013 --    11 C    0.972
    43   1 H    1.013 --    13 C    0.972
    44   1 H    1.004 --    14 C    0.973
    45   1 H    1.004 --    16 C    0.973
    46   1 H    1.002 --    17 C    0.974
    47   1 H    1.002 --    22 C    0.974
    48   1 H    1.004 --    23 C    0.973
    49   1 H    1.004 --    28 C    0.973
    50   1 H    1.013 --    29 C    0.972
    51   1 H    1.013 --    31 C    0.972
    52   1 H    1.004 --    32 C    0.973
    53   1 H    1.004 --    34 C    0.973
    54   1 H    0.998 --    35 C    0.975
    55  29 Cu   2.183 --    91 N    0.505    61 N    0.504    72 N    0.502
                            79 N    0.502
    56   6 C    3.930 --    90 C    1.362    57 C    1.362    92 H    0.971
    57   6 C    3.916 --    56 C    1.362    61 N    1.229    58 C    1.170
    58   6 C    3.955 --    59 C    1.657    57 C    1.170    93 H    0.975
    59   6 C    3.958 --    58 C    1.657    60 C    1.171    94 H    0.973
    60   6 C    3.914 --    62 C    1.319    61 N    1.240    59 C    1.171
    61   7 N    3.243 --    60 C    1.240    57 C    1.229    55 Cu   0.504
    62   6 C    3.935 --    69 C    1.327    60 C    1.319    63 C    1.027
    63   6 C    3.986 --    68 C    1.394    64 C    1.393    62 C    1.027
                            66 N    0.107
    64   6 C    3.987 --    65 C    1.442    63 C    1.393    95 H    0.973
                            67 C    0.109
    65   6 C    3.972 --    64 C    1.442    66 N    1.415    96 H    0.972
                            68 C    0.108
    66   7 N    3.030 --    67 C    1.416    65 C    1.415    63 C    0.107
    67   6 C    3.972 --    68 C    1.442    66 N    1.416    97 H    0.972
                            64 C    0.109
    68   6 C    3.987 --    67 C    1.442    63 C    1.394    98 H    0.973
                            65 C    0.108
    69   6 C    3.908 --    62 C    1.327    72 N    1.222    70 C    1.178
    70   6 C    3.954 --    71 C    1.643    69 C    1.178    99 H    0.973
    71   6 C    3.956 --    70 C    1.643    73 C    1.186   100 H    0.974
    72   7 N    3.248 --    73 C    1.257    69 C    1.222    55 Cu   0.502
    73   6 C    3.896 --    74 C    1.258    72 N    1.257    71 C    1.186
    74   6 C    3.940 --    75 C    1.259    73 C    1.258   116 C    1.189
    75   6 C    3.896 --    74 C    1.259    79 N    1.257    76 C    1.186
    76   6 C    3.956 --    77 C    1.643    75 C    1.186   101 H    0.974
    77   6 C    3.954 --    76 C    1.643    78 C    1.178   102 H    0.973
    78   6 C    3.908 --    80 C    1.326    79 N    1.222    77 C    1.178
    79   7 N    3.248 --    75 C    1.257    78 C    1.222    55 Cu   0.502
    80   6 C    3.935 --    78 C    1.326    87 C    1.318    81 C    1.028
    81   6 C    3.986 --    86 C    1.393    82 C    1.392    80 C    1.028
                            84 N    0.107
    82   6 C    3.987 --    83 C    1.442    81 C    1.392   103 H    0.973
                            85 C    0.108
    83   6 C    3.972 --    82 C    1.442    84 N    1.415   104 H    0.972
                            86 C    0.108
    84   7 N    3.030 --    83 C    1.415    85 C    1.415    81 C    0.107
    85   6 C    3.972 --    86 C    1.442    84 N    1.415   105 H    0.972
                            82 C    0.108
    86   6 C    3.987 --    85 C    1.442    81 C    1.393   106 H    0.973
                            83 C    0.108
    87   6 C    3.914 --    80 C    1.318    91 N    1.240    88 C    1.172
    88   6 C    3.958 --    89 C    1.656    87 C    1.172   107 H    0.973
    89   6 C    3.955 --    88 C    1.656    90 C    1.170   108 H    0.975
    90   6 C    3.916 --    56 C    1.362    91 N    1.229    89 C    1.170
    91   7 N    3.244 --    87 C    1.240    90 C    1.229    55 Cu   0.505
    92   1 H    1.001 --    56 C    0.971
    93   1 H    0.998 --    58 C    0.975
    94   1 H    1.004 --    59 C    0.973
    95   1 H    1.004 --    64 C    0.973
    96   1 H    1.013 --    65 C    0.972
    97   1 H    1.013 --    67 C    0.972
    98   1 H    1.004 --    68 C    0.973
    99   1 H    1.004 --    70 C    0.973
   100   1 H    1.002 --    71 C    0.974
   101   1 H    1.002 --    76 C    0.974
   102   1 H    1.004 --    77 C    0.973
   103   1 H    1.004 --    82 C    0.973
   104   1 H    1.013 --    83 C    0.972
   105   1 H    1.013 --    85 C    0.972
   106   1 H    1.004 --    86 C    0.973
   107   1 H    1.004 --    88 C    0.973
   108   1 H    0.998 --    89 C    0.975
   109   6 C    3.878 --   110 C    2.442    20 C    1.189   112 C    0.187
   110   6 C    3.936 --   109 C    2.442   111 C    1.342
   111   6 C    3.894 --   112 C    2.339   110 C    1.342   114 C    0.183
   112   6 C    3.927 --   111 C    2.339   113 C    1.368   109 C    0.187
   113   6 C    3.927 --   114 C    2.339   112 C    1.368   116 C    0.187
   114   6 C    3.894 --   113 C    2.339   115 C    1.343   111 C    0.183
   115   6 C    3.936 --   116 C    2.442   114 C    1.343
   116   6 C    3.878 --   115 C    2.442    74 C    1.189   113 C    0.187
 ---------------------------------------------------------------------------

           -------------------------------------------------
          | TOTAL ENERGY             -209.130863619385 Eh   |
          | GRADIENT NORM               0.000549824540 Eh/α |
          | HOMO-LUMO GAP               0.000031799028 eV   |
           -------------------------------------------------

 * finished run on 2022/07/30 at 05:01:13.366
