   * xtb version 6.5.1 (b24c23e) compiled by 'conda@728c89f4b128' on 2022-07-12
          program call               : xtb NMA_C2_2.xyz --gfn 1 --opt -T 48

   ID    Z sym.   atoms
    1    6 C      1-5, 7-11, 13-18, 20-25, 27-31, 33-39, 68-72, 74-78, 80-85,
                  87-92, 94-98, 100-106, 135, 136
    2    7 N      6, 12, 19, 26, 32, 40, 73, 79, 86, 93, 99, 107
    3    1 H      41-67, 108-134
########################################################################
[WARNING] Please study the warnings concerning your input carefully
-1- prog_main_parseArguments: Unknown option '-T' provided
########################################################################

          :  Hamiltonian                  GFN1-xTB          :
 * total energy  :  -215.0629952 Eh     change       -0.1415401E-10 Eh
 * total energy  :  -215.1568767 Eh     change       -0.9388152E-01 Eh
 * total energy  :  -215.2121496 Eh     change       -0.5527295E-01 Eh
 * total energy  :  -215.2296108 Eh     change       -0.1746120E-01 Eh
 * total energy  :  -215.2444955 Eh     change       -0.1488465E-01 Eh
 * total energy  :  -215.2548826 Eh     change       -0.1038708E-01 Eh
 * total energy  :  -215.2626840 Eh     change       -0.7801388E-02 Eh
 * total energy  :  -215.2687647 Eh     change       -0.6080725E-02 Eh
 * total energy  :  -215.2738165 Eh     change       -0.5051793E-02 Eh
 * total energy  :  -215.2783211 Eh     change       -0.4504641E-02 Eh
 * total energy  :  -215.3155826 Eh     change       -0.2673460E-04 Eh
 * total energy  :  -215.3156030 Eh     change       -0.2042760E-04 Eh
 * total energy  :  -215.3156209 Eh     change       -0.1787295E-04 Eh
 * total energy  :  -215.3156415 Eh     change       -0.2061402E-04 Eh
 * total energy  :  -215.3156672 Eh     change       -0.2567809E-04 Eh
 * total energy  :  -215.3156926 Eh     change       -0.2543592E-04 Eh
 * total energy  :  -215.3157104 Eh     change       -0.1779765E-04 Eh
 * total energy  :  -215.3157215 Eh     change       -0.1107295E-04 Eh
 * total energy  :  -215.3157252 Eh     change       -0.3680921E-05 Eh
   *** GEOMETRY OPTIMIZATION CONVERGED AFTER 94 ITERATIONS ***

 final structure:
================
136
 xtb: 6.5.1 (b24c23e)
C           15.48043326729571        0.51966598590768        0.00481724525909
C           16.08094232424189        0.59659468297349       -1.24519725191094
C           15.42301822100033        0.75930170157832       -2.49601440938419
C           16.37404668212206        0.73965102362015       -3.47762650408366
C           17.64560355623779        0.58147326040491       -2.85669601885100
N           17.41705219897526        0.49446137059633       -1.51214314970090
C           18.89945275997716        0.51280190050537       -3.47496997616947
C           18.92331421465549        0.64271849611639       -4.95065500290273
C           19.44347327165335       -0.38312786845292       -5.74220913264371
C           19.44618067652054       -0.29110360352088       -7.12347101160701
C           18.92648250544988        0.84406986070752       -7.75198615964567
N           18.94635970714075        1.00831519100264       -9.13006172893326
C           18.95930083043928       -0.16731304847052       -9.99094799554230
C           18.42529414811607        1.88585962687280       -6.96227694682875
C           18.41806273966655        1.78150754030349       -5.58392879904451
C           20.11342024223597        0.33498946406569       -2.80429725959443
C           21.40775335418589        0.41168093127441       -3.45568495163538
C           22.33265066291246        0.23422433961411       -2.48924596775345
N           20.27455714911560        0.11706830334929       -1.47030007769146
C           21.60440597647668        0.03793312354029       -1.25195638083826
C           22.24424602943789       -0.19635436847729       -0.01799269833206
C           21.60461303186486       -0.37770956605612        1.22347681626900
C           22.23938463289129       -0.64944380917518        2.46342417227301
C           21.27321593352428       -0.71683743528564        3.42894800208174
C           20.01422928819670       -0.49771653645174        2.80577774359041
N           20.26560922449262       -0.30469003999283        1.47252564134248
C           18.76221584860684       -0.43008272824190        3.42865184672716
C           18.72758029471617       -0.66133244426901        4.89142400454001
C           18.24746110070812        0.32485652755405        5.75536135724973
C           18.20934033958736        0.12203704805832        7.12422168484897
C           18.65448687523413       -1.08665026388933        7.66712272130677
N           18.58452275827184       -1.36623527411444        9.02413534557885
C           18.56152810958693       -0.27161008203257        9.98500092917322
C           19.12779169507261       -2.08283250217215        6.80431935553794
C           19.16861366679804       -1.86908050707934        5.43936499622695
C           17.55764778182826       -0.15159094113723        2.77320407052270
C           16.25778821655417       -0.13520812247288        3.42603465943237
C           15.35118982568936        0.14350740784448        2.46755814154682
C           16.09373157710288        0.28067938525820        1.22765467213061
N           17.41864138856919        0.09825350887395        1.44943291448105
H           14.40086055809682        0.63191498983055        0.01391899090052
H           14.35650934303233        0.86426117624616       -2.61700994788466
H           16.21173671417954        0.81637459278133       -4.54054436751949
H           18.14205225346969        0.35523979990628       -0.81632043249352
H           19.83230132871186       -1.27691779482331       -5.26640119126683
H           19.85316218787458       -1.10750201046863       -7.70746022915211
H           18.28598789314653        1.70808747366377       -9.44732735205755
H           18.16323090017421       -0.87143911351999       -9.72293072813627
H           18.81458587711054        0.16597171301499      -11.01859561034641
H           19.92351045951709       -0.67233478812913       -9.92047230526493
H           18.03908363052177        2.77979374702646       -7.44076116630506
H           18.03484980523864        2.60107994498333       -4.98572167237600
H           21.56687730590972        0.60603497633783       -4.50405554296522
H           23.40643099053714        0.24295392167817       -2.58117271410836
H           23.30094488331689       -0.77945391653447        2.59394102890627
H           21.42001022922104       -0.88952751609268        4.48260140009182
H           19.55092287626189       -0.11141754971873        0.77857962717683
H           17.91725595931280        1.27438957277670        5.34823779882793
H           17.83133060383039        0.90935011793417        7.76478104952268
H           19.21160944160005       -2.11121738602730        9.30301828312555
H           17.61630803959688        0.26814886242446        9.91383668153896
H           19.38936937919526        0.42761182972837        9.82013592675192
H           18.64435561538194       -0.69890048695356       10.98435744934637
H           19.46140338386260       -3.02991052919111        7.21533695926247
H           19.52534399829434       -2.65565225158702        4.78328021401739
H           16.08349077806703       -0.33118230507522        4.47178312037244
H           14.28012725904773        0.23759638259339        2.55743862549497
C           33.04559687836559        0.51667974353928       -0.03095184549321
C           32.44504075413351        0.65743566249181        1.21347303759619
C           33.10294096541426        0.88355080322467        2.45440417234052
C           32.15183564647472        0.91448975997462        3.43564271957705
C           30.88025696391995        0.72533678711725        2.82348706799167
N           31.10887050779177        0.56960641426340        1.48516379107617
C           29.62634025199762        0.68885803714693        3.44436804919082
C           29.60244860473280        0.89435120238593        4.91144125547286
C           29.08188392299964       -0.08929298330796        5.75460906568445
C           29.07908565727362        0.07359253801072        7.12932102306880
C           29.59912971510025        1.23938163566722        7.69872955700163
N           29.57913899455608        1.47428219922932        9.06652788301597
C           29.56543784478249        0.34452637818624        9.98676875924750
C           30.10078658710211        2.23902815359242        6.85658322296111
C           30.10806916502822        2.06399509852557        5.48541761707851
C           28.41235808851475        0.47728077584028        2.78360684420967
C           27.11800115882022        0.58770906916778        3.43008648853280
C           26.19311292427053        0.36097065593380        2.47399403674203
N           28.25123407902780        0.19148133113518        1.46248079393083
C           26.92137837561145        0.10169248162526        1.24836325362824
C           26.28154294676651       -0.19522708924633        0.02795209838310
C           26.92117073735295       -0.43972204874862       -1.20264200181845
C           26.28636352918738       -0.77407003816133       -2.42717293532087
C           27.25250584963945       -0.89048331939157       -3.38804160920898
C           28.51153256572854       -0.64022301481139       -2.77679335790300
N           28.26018927306098       -0.37970549717713       -1.45506183757207
C           29.76356017407396       -0.60455633366546       -3.40227460836543
C           29.79813585211493       -0.90947954975452       -4.85148524482837
C           30.27845009586839        0.03173212373203       -5.76411420105764
C           30.31642559339271       -0.23991264863773       -7.12099683550171
C           29.87093948896134       -1.47434360211169       -7.60218526296750
N           29.94068285200776       -1.82203762948662       -8.94338118915057
C           29.96374606374819       -0.77724750796816       -9.95821398952785
C           29.39750168949490       -2.42561891910996       -6.69017889843412
C           29.35681961635456       -2.14324951156138       -5.33774558224776
C           30.96821398669205       -0.29360887272961       -2.76174598502135
C           32.26808527730961       -0.31085421029196       -3.41453147100577
C           33.17479362602519        0.01566599877897       -2.47136139917651
C           32.43226203005747        0.21605764456009       -1.24008766243688
N           31.10729966387969        0.02296965672280       -1.45234341078922
H           34.12522582527959        0.62782110787794       -0.04566026004607
H           34.16948475797685        0.99411361326393        2.56997824874101
H           32.31409824267944        1.04536934103758        4.49326491630179
H           30.38386113263809        0.39532916959866        0.79729414993422
H           28.69278581659688       -1.00622288298970        5.32531888888486
H           28.67178476201295       -0.71158637045936        7.75444871971726
H           30.23977295043596        2.18915080762705        9.34750846244475
H           30.36125408941853       -0.37281571709242        9.75557224526085
H           29.71004069210034        0.73019811720504       10.99594062841686
H           28.60101292248373       -0.16302082422334        9.94210760731917
H           30.48728602583238        3.15622877211221        7.28854504195213
H           30.49166140926800        2.85159084511854        4.84592212109556
H           26.95886187882002        0.83559581221615        4.46710523124695
H           25.11932943426257        0.37459379856278        2.56529214747514
H           25.22478444501112       -0.91037646858999       -2.55092422190289
H           27.10567327370588       -1.11640289149491       -4.43157315126497
H           28.97491003825798       -0.15153814731536       -0.77183089155050
H           30.60891968385676        1.00051509172614       -5.40543845360497
H           30.69457792072170        0.51398315081643       -7.80048989433216
H           29.31335805837312       -2.57996874613366       -9.18425528502375
H           30.90906458192286       -0.23475171144512       -9.91445645587638
H           29.13604165952791       -0.07046004839680       -9.82871357796031
H           29.88072639193030       -1.25435954051850      -10.93475014278419
H           29.06365788934075       -3.39215929595169       -7.05285924304571
H           28.99996571059352       -2.89563301440491       -4.64278307875644
H           32.44230793117170       -0.55965826942507       -4.44899674607346
H           34.24589602875625        0.10464171099604       -2.56585579667062
C           23.65420100454081       -0.23394142315428       -0.00593305333032
C           24.87158664268471       -0.23335835288449        0.01784064185294

          :  Hamiltonian                  GFN1-xTB          :
         :: total energy            -215.315725176377 Eh    ::
         :: gradient norm              0.000234386100 Eh/a0 ::
         :: HOMO-LUMO gap              0.956181399253 eV    ::
         :: SCC energy              -218.724029550495 Eh    ::
         :: repulsion energy           3.519886403852 Eh    ::

    * Orbital Energies and Occupations

         #    Occupation            Energy/Eh            Energy/eV
      -------------------------------------------------------------
         1        2.0000           -0.7924945             -21.5649
       ...           ...                  ...                  ...
       185        2.0000           -0.4085429             -11.1170
       186        2.0000           -0.4052212             -11.0266
       187        2.0000           -0.4051296             -11.0241
       188        2.0000           -0.4043391             -11.0026
       189        2.0000           -0.4043229             -11.0022
       190        2.0000           -0.3929798             -10.6935
       191        2.0000           -0.3918930             -10.6640
       192        2.0000           -0.3895990             -10.6015
       193        2.0000           -0.3895949             -10.6014
       194        2.0000           -0.3880779             -10.5601
       195        2.0000           -0.3871156             -10.5340
       196        2.0000           -0.3760442             -10.2327
       197        2.0000           -0.3650774              -9.9343 (HOMO)
       198                         -0.3299384              -8.9781 (LUMO)
       199                         -0.3192874              -8.6883
       200                         -0.3191891              -8.6856
       201                         -0.3142096              -8.5501
       202                         -0.2870153              -7.8101
       203                         -0.2785661              -7.5802
       204                         -0.2546629              -6.9297
       205                         -0.2546621              -6.9297
       206                         -0.2539872              -6.9113
       207                         -0.2539831              -6.9112
       208                         -0.2431268              -6.6158
       ...                                ...                  ...
       436                          1.3441352              36.5758
      -------------------------------------------------------------
                  HL-Gap            0.0351390 Eh            0.9562 eV

Wiberg/Mayer (AO) data.
largest (>0.10) Wiberg bond orders for each atom

     #   Z sym  total        # sym  WBO       # sym  WBO       # sym  WBO
 ---------------------------------------------------------------------------
     1   6 C    3.923 --    39 C    1.365     2 C    1.345    41 H    0.971
     2   6 C    3.903 --     1 C    1.345     3 C    1.232     6 N    1.170
     3   6 C    3.951 --     4 C    1.592     2 C    1.232    42 H    0.977
     4   6 C    3.959 --     3 C    1.592     5 C    1.237    43 H    0.974
     5   6 C    3.895 --     7 C    1.302     4 C    1.237     6 N    1.175
     6   7 N    3.467 --     5 C    1.175     2 C    1.170    44 H    0.874
     7   6 C    3.938 --    16 C    1.330     5 C    1.302     8 C    1.035
     8   6 C    3.988 --     9 C    1.383    15 C    1.375     7 C    1.035
     9   6 C    3.986 --    10 C    1.465     8 C    1.383    45 H    0.973
    10   6 C    3.990 --     9 C    1.465    11 C    1.354    46 H    0.970
    11   6 C    3.952 --    10 C    1.354    14 C    1.347    12 N    1.107
    12   7 N    3.177 --    11 C    1.107    13 C    0.971    47 H    0.932
    13   6 C    3.968 --    49 H    0.990    50 H    0.986    48 H    0.984
                            12 N    0.971
    14   6 C    3.989 --    15 C    1.475    11 C    1.347    51 H    0.971
    15   6 C    3.987 --    14 C    1.475     8 C    1.375    52 H    0.973
    16   6 C    3.915 --     7 C    1.330    19 N    1.290    17 C    1.128
    17   6 C    3.965 --    18 C    1.705    16 C    1.128    53 H    0.974
    18   6 C    3.964 --    17 C    1.705    20 C    1.132    54 H    0.969
    19   7 N    3.020 --    20 C    1.339    16 C    1.290
    20   6 C    3.914 --    19 N    1.339    21 C    1.260    18 C    1.132
    21   6 C    3.935 --    20 C    1.260    22 C    1.254   135 C    1.179
    22   6 C    3.891 --    21 C    1.254    23 C    1.252    26 N    1.188
    23   6 C    3.959 --    24 C    1.579    22 C    1.252    55 H    0.970
    24   6 C    3.955 --    23 C    1.579    25 C    1.244    56 H    0.974
    25   6 C    3.897 --    27 C    1.305    24 C    1.244    26 N    1.166
    26   7 N    3.473 --    22 C    1.188    25 C    1.166    57 H    0.873
    27   6 C    3.925 --    36 C    1.320    25 C    1.305    28 C    1.036
    28   6 C    3.988 --    29 C    1.383    35 C    1.375    27 C    1.036
    29   6 C    3.987 --    30 C    1.464    28 C    1.383    58 H    0.972
    30   6 C    3.989 --    29 C    1.464    31 C    1.353    59 H    0.970
    31   6 C    3.951 --    30 C    1.353    34 C    1.345    32 N    1.108
    32   7 N    3.179 --    31 C    1.108    33 C    0.972    60 H    0.931
    33   6 C    3.968 --    63 H    0.990    61 H    0.986    62 H    0.984
                            32 N    0.972
    34   6 C    3.989 --    35 C    1.476    31 C    1.345    64 H    0.971
    35   6 C    3.986 --    34 C    1.476    28 C    1.375    65 H    0.973
    36   6 C    3.927 --    27 C    1.320    40 N    1.317    37 C    1.119
    37   6 C    3.967 --    38 C    1.720    36 C    1.119    66 H    0.973
    38   6 C    3.966 --    37 C    1.720    39 C    1.119    67 H    0.976
    39   6 C    3.930 --     1 C    1.365    40 N    1.300    38 C    1.119
    40   7 N    3.010 --    36 C    1.317    39 C    1.300
    41   1 H    1.002 --     1 C    0.971
    42   1 H    0.998 --     3 C    0.977
    43   1 H    1.006 --     4 C    0.974
    44   1 H    0.986 --     6 N    0.874
    45   1 H    1.006 --     9 C    0.973
    46   1 H    1.001 --    10 C    0.970
    47   1 H    0.966 --    12 N    0.932
    48   1 H    1.004 --    13 C    0.984
    49   1 H    1.007 --    13 C    0.990
    50   1 H    1.012 --    13 C    0.986
    51   1 H    0.999 --    14 C    0.971
    52   1 H    1.005 --    15 C    0.973
    53   1 H    1.005 --    17 C    0.974
    54   1 H    1.007 --    18 C    0.969
    55   1 H    1.007 --    23 C    0.970
    56   1 H    1.006 --    24 C    0.974
    57   1 H    0.988 --    26 N    0.873
    58   1 H    1.006 --    29 C    0.972
    59   1 H    1.001 --    30 C    0.970
    60   1 H    0.966 --    32 N    0.931
    61   1 H    1.012 --    33 C    0.986
    62   1 H    1.003 --    33 C    0.984
    63   1 H    1.007 --    33 C    0.990
    64   1 H    0.999 --    34 C    0.971
    65   1 H    1.005 --    35 C    0.973
    66   1 H    1.006 --    37 C    0.973
    67   1 H    0.999 --    38 C    0.976
    68   6 C    3.923 --   106 C    1.365    69 C    1.345   108 H    0.971
    69   6 C    3.903 --    68 C    1.345    70 C    1.232    73 N    1.170
    70   6 C    3.951 --    71 C    1.592    69 C    1.232   109 H    0.977
    71   6 C    3.959 --    70 C    1.592    72 C    1.237   110 H    0.974
    72   6 C    3.895 --    74 C    1.302    71 C    1.237    73 N    1.175
    73   7 N    3.467 --    72 C    1.175    69 C    1.170   111 H    0.874
    74   6 C    3.938 --    83 C    1.330    72 C    1.302    75 C    1.035
    75   6 C    3.988 --    76 C    1.383    82 C    1.375    74 C    1.035
    76   6 C    3.986 --    77 C    1.465    75 C    1.383   112 H    0.973
    77   6 C    3.990 --    76 C    1.465    78 C    1.354   113 H    0.970
    78   6 C    3.952 --    77 C    1.354    81 C    1.347    79 N    1.107
    79   7 N    3.177 --    78 C    1.107    80 C    0.971   114 H    0.932
    80   6 C    3.968 --   116 H    0.990   117 H    0.986   115 H    0.984
                            79 N    0.971
    81   6 C    3.989 --    82 C    1.475    78 C    1.347   118 H    0.971
    82   6 C    3.987 --    81 C    1.475    75 C    1.375   119 H    0.973
    83   6 C    3.915 --    74 C    1.330    86 N    1.290    84 C    1.128
    84   6 C    3.965 --    85 C    1.705    83 C    1.128   120 H    0.974
    85   6 C    3.964 --    84 C    1.705    87 C    1.132   121 H    0.969
    86   7 N    3.020 --    87 C    1.339    83 C    1.290
    87   6 C    3.914 --    86 N    1.339    88 C    1.260    85 C    1.132
    88   6 C    3.935 --    87 C    1.260    89 C    1.254   136 C    1.179
    89   6 C    3.890 --    88 C    1.254    90 C    1.252    93 N    1.188
    90   6 C    3.959 --    91 C    1.579    89 C    1.252   122 H    0.970
    91   6 C    3.955 --    90 C    1.579    92 C    1.244   123 H    0.974
    92   6 C    3.897 --    94 C    1.305    91 C    1.244    93 N    1.166
    93   7 N    3.473 --    89 C    1.188    92 C    1.166   124 H    0.873
    94   6 C    3.925 --   103 C    1.320    92 C    1.305    95 C    1.036
    95   6 C    3.988 --    96 C    1.383   102 C    1.375    94 C    1.036
    96   6 C    3.987 --    97 C    1.464    95 C    1.383   125 H    0.972
    97   6 C    3.989 --    96 C    1.464    98 C    1.353   126 H    0.970
    98   6 C    3.951 --    97 C    1.353   101 C    1.345    99 N    1.108
    99   7 N    3.179 --    98 C    1.108   100 C    0.972   127 H    0.931
   100   6 C    3.968 --   130 H    0.990   128 H    0.986   129 H    0.984
                            99 N    0.972
   101   6 C    3.989 --   102 C    1.476    98 C    1.345   131 H    0.971
   102   6 C    3.986 --   101 C    1.476    95 C    1.375   132 H    0.973
   103   6 C    3.927 --    94 C    1.320   107 N    1.317   104 C    1.119
   104   6 C    3.967 --   105 C    1.720   103 C    1.119   133 H    0.973
   105   6 C    3.966 --   104 C    1.720   106 C    1.119   134 H    0.976
   106   6 C    3.930 --    68 C    1.365   107 N    1.300   105 C    1.119
   107   7 N    3.010 --   103 C    1.317   106 C    1.300
   108   1 H    1.002 --    68 C    0.971
   109   1 H    0.998 --    70 C    0.977
   110   1 H    1.006 --    71 C    0.974
   111   1 H    0.986 --    73 N    0.874
   112   1 H    1.006 --    76 C    0.973
   113   1 H    1.001 --    77 C    0.970
   114   1 H    0.966 --    79 N    0.932
   115   1 H    1.004 --    80 C    0.984
   116   1 H    1.007 --    80 C    0.990
   117   1 H    1.012 --    80 C    0.986
   118   1 H    0.999 --    81 C    0.971
   119   1 H    1.005 --    82 C    0.973
   120   1 H    1.005 --    84 C    0.974
   121   1 H    1.007 --    85 C    0.969
   122   1 H    1.007 --    90 C    0.970
   123   1 H    1.006 --    91 C    0.974
   124   1 H    0.988 --    93 N    0.873
   125   1 H    1.006 --    96 C    0.972
   126   1 H    1.001 --    97 C    0.970
   127   1 H    0.966 --    99 N    0.931
   128   1 H    1.012 --   100 C    0.986
   129   1 H    1.003 --   100 C    0.984
   130   1 H    1.007 --   100 C    0.990
   131   1 H    0.999 --   101 C    0.971
   132   1 H    1.005 --   102 C    0.973
   133   1 H    1.006 --   104 C    0.973
   134   1 H    0.999 --   105 C    0.976
   135   6 C    3.932 --   136 C    2.575    21 C    1.179
   136   6 C    3.932 --   135 C    2.575    88 C    1.179
 ---------------------------------------------------------------------------

           -------------------------------------------------
          | TOTAL ENERGY             -215.315725176377 Eh   |
          | GRADIENT NORM               0.000234386100 Eh/α |
          | HOMO-LUMO GAP               0.956181399253 eV   |
           -------------------------------------------------

 * finished run on 2022/07/30 at 15:53:14.066
