   * xtb version 6.5.1 (b24c23e) compiled by 'conda@728c89f4b128' on 2022-07-12
          program call               : xtb PhCN_C8_3.xyz --gfn 1 --opt -T 48

   ID    Z sym.   atoms
    1    6 C      1-5, 7-12, 14-18, 20-25, 27-32, 34-39, 60-64, 66-71, 73-77,
                  79-84, 86-91, 93-98, 119-139, 141-146, 148-152, 154-159,
                  161-166, 168-173
    2    7 N      6, 13, 19, 26, 33, 40, 65, 72, 78, 85, 92, 99, 140, 147,
                  153, 160, 167, 174
    3    1 H      41-59, 100-118, 175-192

          :  Hamiltonian                  GFN1-xTB          :
 * total energy  :  -333.8924915 Eh     change        0.2132936E-08 Eh
 * total energy  :  -335.4662866 Eh     change       -0.1573795E+01 Eh
 * total energy  :  -335.7776544 Eh     change       -0.3113678E+00 Eh
 * total energy  :  -335.9393131 Eh     change       -0.1616587E+00 Eh
 * total energy  :  -336.0475058 Eh     change       -0.1081927E+00 Eh
 * total energy  :  -336.1360754 Eh     change       -0.8856965E-01 Eh
 * total energy  :  -336.1950252 Eh     change       -0.5894979E-01 Eh
 * total energy  :  -336.2306550 Eh     change       -0.3562981E-01 Eh
 * total energy  :  -336.2563137 Eh     change       -0.2565864E-01 Eh
 * total energy  :  -336.2741138 Eh     change       -0.1780016E-01 Eh
 * total energy  :  -336.3333521 Eh     change       -0.1295689E-05 Eh
 * total energy  :  -336.3333579 Eh     change       -0.5743182E-05 Eh
 * total energy  :  -336.3333570 Eh     change        0.8878988E-06 Eh
 * total energy  :  -336.3333705 Eh     change       -0.1356176E-04 Eh
 * total energy  :  -336.3333783 Eh     change       -0.7781797E-05 Eh
 * total energy  :  -336.3333861 Eh     change       -0.7830276E-05 Eh
 * total energy  :  -336.3333931 Eh     change       -0.6928771E-05 Eh
 * total energy  :  -336.3333930 Eh     change        0.7945965E-07 Eh
 * total energy  :  -336.3333944 Eh     change       -0.1376850E-05 Eh
   *** GEOMETRY OPTIMIZATION CONVERGED AFTER 95 ITERATIONS ***

 final structure:
================
192
 xtb: 6.5.1 (b24c23e)
C           23.85836358556097        0.08851123694551        0.06076609638310
C           24.46792813425027        1.33523968781890        0.00805801168290
C           23.81761543930876        2.60116881706191        0.00030064633194
C           24.77963911557451        3.56827669397090       -0.07682228656719
C           26.04876675814509        2.92351175059557       -0.12774674703578
N           25.81033685186338        1.58045541966433       -0.06268784279104
C           27.31156570218520        3.52220950509882       -0.20536635795973
C           27.33987721993075        5.00147462460938       -0.29927503272388
C           27.97271456620727        5.76303790740750        0.68598647780052
C           27.99563289381750        7.14363428948938        0.60330748570486
C           27.38682998318964        7.79162098786762       -0.47564857888072
C           27.40971337909425        9.21209729602072       -0.56553834918732
N           27.42677514980650       10.36045381625689       -0.63782073958990
C           26.75466512960425        7.03405800758666       -1.46603275750833
C           26.73061837659510        5.65405847782770       -1.37370199591027
C           28.52788915196936        2.83487155605020       -0.20279510085309
C           29.82285945349180        3.47688646307652       -0.34222098703010
C           30.74458682534328        2.49335592161952       -0.28894497486374
N           28.68409555283667        1.48714432963026       -0.09107479904346
C           30.01124690062987        1.25251154810357       -0.12905256160136
C           30.64992494804850        0.00003024013102       -0.02365521638092
C           30.01430812462023       -1.25184857577761        0.08170285092237
C           30.65876414849660       -2.51139974440220        0.20310027804028
C           29.69191037038434       -3.47691847204806        0.25355565119222
C           28.42589595408681       -2.83530387284791        0.15705838865031
N           28.67264007818165       -1.49114530722505        0.06533641472538
C           27.16349872604016       -3.43826317625325        0.17909887644762
C           27.13163222485221       -4.91823511213536        0.24487371306535
C           26.51512754165809       -5.56778036625230        1.31716727722514
C           26.48128753162403       -6.94915534685445        1.37945471962216
C           27.06225519822959       -7.71141509692061        0.36151839752879
C           27.02552146526306       -9.13319242213908        0.41983423627923
N           26.99473250023371      -10.28253034266088        0.46493790195928
C           27.67981965168627       -7.06661146343665       -0.71430811989010
C           27.71508208861993       -5.68482676245843       -0.76696851119979
C           25.94563566119297       -2.75032194433957        0.14228869049796
C           24.64107930178197       -3.39422850197567        0.11645297006815
C           23.72689844426246       -2.40397136426302        0.08960432327357
C           24.47153547040172       -1.15698549209246        0.08436936208099
N           25.80438242095812       -1.40447796318994        0.10721703312042
H           22.77327647256238        0.09828782792121        0.08033301062659
H           22.74964587995487        2.74020473336641        0.05297483031109
H           24.62968061168499        4.63564627310651       -0.08804717949814
H           26.53446076034620        0.86994172943865       -0.06449377373881
H           28.43485030651056        5.26491499117526        1.53071974396122
H           28.48343091709640        7.72789326200135        1.37471400993816
H           26.28556808672937        7.53247615340645       -2.30626824320908
H           26.25091633513675        5.06992627451095       -2.15099370692177
H           29.98286941621341        4.53433273632037       -0.47667459823998
H           31.81764553752481        2.57231332289223       -0.35826662705349
H           31.72674006887184       -2.65057805105885        0.24976956705509
H           29.83935389439394       -4.53924829211298        0.35972109652005
H           27.95061853859374       -0.78110366393212        0.00088738495056
H           26.07465944107159       -4.98056405552761        2.11493769752190
H           26.00594142417694       -7.44551594591140        2.21735748113340
H           28.12798074696960       -7.65393539554778       -1.50719048004398
H           28.18195313026985       -5.18916000747281       -1.61069699009326
H           24.47250476018654       -4.45899225848836        0.10645210645430
H           22.65107037202167       -2.47823854588262        0.06459339792078
C           67.79147349310578       -0.08594652472530        0.05443289646922
C           67.17470762749160       -1.29143529539841        0.36282901450880
C           67.81823748730226       -2.51392652300434        0.70476160937826
C           66.85010428093480       -3.45425454390826        0.91747883526596
C           65.58374169602048       -2.83819093012514        0.70370280039475
N           65.83012385862922       -1.53407474563342        0.38215004779749
C           64.31670012486124       -3.42175590005590        0.81852484197610
C           64.27902212269503       -4.86643048553940        1.14927469413787
C           63.66060110356523       -5.31056132422875        2.32034944468247
C           63.62846188296992       -6.65760360584142        2.63308916677940
C           64.21330133529055       -7.59133537205748        1.77242621183915
C           64.18032029549761       -8.97871268993623        2.08935450207017
N           64.15489111007297      -10.10032641850930        2.34563954857534
C           64.83108832249106       -7.15244908156763        0.59764983779199
C           64.86450671698354       -5.80325670366254        0.29430193748292
C           63.10423056178834       -2.75022253287118        0.64349972008818
C           61.80374893020616       -3.39225442915423        0.71440961437647
C           60.88825818860683       -2.42600455963557        0.49561956851953
N           62.95696997472623       -1.42581123878724        0.36473215490106
C           61.63071163661140       -1.19915973475471        0.27930204431047
C           61.00017284727212        0.03498486143354        0.01960721886178
C           61.64351847176854        1.25743608730896       -0.25205524342016
C           61.00701163146626        2.50356433881189       -0.49398939922357
C           61.97962546072424        3.43592053924781       -0.72698443412118
C           63.24134176712171        2.78419643658538       -0.64213911690730
N           62.98629704938563        1.47169158034447       -0.34473064157129
C           64.50748561500264        3.35897669815023       -0.79756124148768
C           64.54906771063200        4.79830938475554       -1.14728265121974
C           65.17654368500236        5.71499747573005       -0.30001938214809
C           65.21771361047355        7.05940312069118       -0.62244008283171
C           64.63317669409435        7.51421410340722       -1.80826884488335
C           64.67701386605187        8.89652061346153       -2.14524896816930
N           64.71165199628479       10.01402686863154       -2.41771798702601
C           64.00575662733381        6.60097848236081       -2.66082575050031
C           63.96326952245384        5.25875270503172       -2.32904584315348
C           65.72092856447415        2.67872408750794       -0.64685505403249
C           67.02874852979160        3.27879218609119       -0.86294776886762
C           67.93702322796166        2.31313182232327       -0.61888193473667
C           67.18542131088749        1.12112699854377       -0.26715710438781
N           65.85425790899376        1.37620117688380       -0.30326845821272
H           68.87665732199035       -0.09940251774432        0.06391905912987
H           68.88615506691869       -2.64244360701790        0.78022827131992
H           66.99424030973312       -4.48259865481233        1.20666161346884
H           65.10972366024387       -0.84635181651395        0.18908803749150
H           63.21713367491239       -4.58850038536185        2.99652209371977
H           63.15183668289536       -6.99394005495079        3.54636287772499
H           65.28149177862730       -7.87361802604135       -0.07430381243184
H           65.33280108005054       -5.46860385627936       -0.62450587130109
H           61.63581281579544       -4.44189391906601        0.89299613100989
H           59.81381088319139       -2.51116089592375        0.46790028010225
H           59.94018471346413        2.65817184988589       -0.48330748974184
H           61.83879573802927        4.48522794955191       -0.92866616144687
H           63.70389940830423        0.76773406597922       -0.20637928020480
H           65.61959226240344        5.36838923595508        0.62671673979978
H           65.70143590491645        7.76494928425637        0.04286106698107
H           63.55533900829041        6.94901061476877       -3.58301179430991
H           63.48834792873291        4.55220573778088       -3.00042323507477
H           67.20309030050267        4.29655502397685       -1.17281092960263
H           69.01292517267886        2.36840488306202       -0.67292333609456
C           32.05544633719073       -0.01509973168125       -0.02598494848107
C           33.28012211112731       -0.02981109633555       -0.02490387239056
C           34.62260792198061       -0.04119257572924       -0.02421430722108
C           35.85346336734544       -0.05010308276112       -0.02250181409723
C           37.19113205040582       -0.05730732534249       -0.02111174895381
C           38.42205840026456       -0.06262582685419       -0.01828889328344
C           39.76435353852765       -0.06483044466485       -0.01888512085555
C           40.98938830557351       -0.06778706496581       -0.01765970273735
C           50.66129721397267        0.03598828125335        0.03652956095437
C           51.88613781033531        0.05313748167357        0.04615867961949
C           53.22828321681034        0.06847116366437        0.04996440646023
C           54.45924192594995        0.07797243786648        0.05153075244363
C           55.79686333217675        0.08432895809104        0.04554359518325
C           57.02773658879613        0.08328417126505        0.04059248443370
C           58.37015851832817        0.07469241227118        0.03269785950366
C           59.59482675540419        0.05905605205765        0.02534858598466
C           42.39392478332184       -0.06243385561904       -0.01912489740983
C           43.01559943770492        0.84269698897128       -0.90112903271987
C           42.36152688850185        1.75571093706535       -1.76804911374573
C           43.32199275407817        2.42536178722684       -2.47567385458462
C           44.59129843986942        1.93437683272461       -2.06484229353374
N           44.35550483093282        0.98838042453808       -1.10379420042585
C           45.84824572930398        2.34280454626602       -2.52810054851781
C           45.85277703872136        3.35012901518846       -3.61659434113836
C           45.26104052253998        3.06116533383848       -4.84855432683863
C           45.26733349801043        3.99402571073808       -5.86986330409117
C           45.86338389691536        5.24325386475883       -5.67392422958035
C           45.87025777043199        6.20541545581568       -6.72306572151440
N           45.87398543446124        6.98233573166742       -7.57196346211694
C           46.45319002281707        5.53913830990474       -4.44133367387148
C           46.44847030200077        4.59911717700839       -3.42647450137395
C           47.07795582186071        1.88090550845180       -2.05559095601106
C           48.36069164033932        2.29205243637278       -2.59832561839195
C           49.30356163437658        1.64666427177456       -1.88132064214812
N           47.26235789960515        0.98561863026300       -1.04670632453407
C           48.59536247916111        0.83342221682615       -0.91261684422200
C           49.25705088796251        0.01332142258693        0.02355791925794
C           48.63478563539500       -0.84398891801999        0.95165165922679
C           49.28730436721467       -1.65962876173147        1.91180416418138
C           48.32718117707348       -2.35281178020718        2.59688325371941
C           47.05979341880808       -1.98529048399308        2.06795496022313
N           47.29606931771718       -1.06284018082808        1.08430904959189
C           45.80361614008215       -2.45143174883598        2.47541934547881
C           45.79853195977878       -3.48876626159280        3.53538515154231
C           46.41702442569588       -4.72278536459537        3.32106766514071
C           46.41075758359206       -5.69486318369957        4.30522433507133
C           45.78775884024170       -5.44616593609037        5.53174252317479
C           45.78342581287053       -6.44281415364988        6.54821307969244
N           45.78087015401291       -7.24899982082291        7.36934452892087
C           45.17082701242461       -4.21119309845441        5.75284651589527
C           45.17575065478675       -3.24604157299161        4.76192205199994
C           44.57464416256166       -2.02370970059331        1.96963813771113
C           43.29442462461280       -2.57291480058919        2.38015855304440
C           42.35106748694451       -1.90289050515771        1.68669789725784
C           43.05675174966613       -0.95587844403958        0.84626393676655
N           44.38896116359436       -1.05822271489888        1.02808395308902
H           41.29279132280782        1.88055293399093       -1.83311331014122
H           43.16679375965777        3.19881952798463       -3.20992965647590
H           45.07931775877662        0.47388587836390       -0.61327498323678
H           44.80930028127648        2.08870948935134       -5.00907829629928
H           44.81270519351423        3.75941564957742       -6.82520672992618
H           46.91290293435045        6.50790901277533       -4.28476078158445
H           46.89631418658568        4.83655158467027       -2.46820252745284
H           48.49950928033848        2.97082082733707       -3.42402195466380
H           50.37586739173463        1.69097345754911       -1.98450661077496
H           50.35471360715027       -1.70107665743401        2.05655082686271
H           48.48128683524463       -3.04954503128771        3.40451583868674
H           46.57315851477439       -0.60696874329620        0.53768534187283
H           46.88966482363776       -4.92479501895949        2.36643806600824
H           46.88688622641092       -6.65223968903207        4.12873517948019
H           44.69047589334601       -4.01346426097258        6.70392876561151
H           44.70643293569713       -2.28539899268250        4.94126278139369
H           43.15799648299194       -3.37133439781289        3.09129581962116
H           41.28017449835024       -2.02476087294964        1.71531228497850

          :  Hamiltonian                  GFN1-xTB          :
         :: total energy            -336.333394365015 Eh    ::
         :: gradient norm              0.000674230468 Eh/a0 ::
         :: HOMO-LUMO gap              0.915358303888 eV    ::
         :: SCC energy              -342.469535402290 Eh    ::
         :: repulsion energy           6.300409713912 Eh    ::

    * Orbital Energies and Occupations

         #    Occupation            Energy/Eh            Energy/eV
      -------------------------------------------------------------
         1        2.0000           -0.8175980             -22.2480
       ...           ...                  ...                  ...
       297        2.0000           -0.4280088             -11.6467
       298        2.0000           -0.4271530             -11.6234
       299        2.0000           -0.4271157             -11.6224
       300        2.0000           -0.4255962             -11.5811
       301        2.0000           -0.4216439             -11.4735
       302        2.0000           -0.4192864             -11.4094
       303        2.0000           -0.4178574             -11.3705
       304        2.0000           -0.4121059             -11.2140
       305        2.0000           -0.4107512             -11.1771
       306        2.0000           -0.4107045             -11.1758
       307        2.0000           -0.3979722             -10.8294
       308        2.0000           -0.3944607             -10.7338
       309        2.0000           -0.3895602             -10.6005 (HOMO)
       310                         -0.3559214              -9.6851 (LUMO)
       311                         -0.3488514              -9.4927
       312                         -0.3460692              -9.4170
       313                         -0.3449707              -9.3871
       314                         -0.3442559              -9.3677
       315                         -0.3437990              -9.3552
       316                         -0.3232878              -8.7971
       317                         -0.3162640              -8.6060
       318                         -0.3157264              -8.5914
       319                         -0.3083819              -8.3915
       320                         -0.3077102              -8.3732
       ...                                ...                  ...
       656                          1.5951594              43.4065
      -------------------------------------------------------------
                  HL-Gap            0.0336388 Eh            0.9154 eV

Wiberg/Mayer (AO) data.
largest (>0.10) Wiberg bond orders for each atom

     #   Z sym  total        # sym  WBO       # sym  WBO       # sym  WBO
 ---------------------------------------------------------------------------
     1   6 C    3.926 --    39 C    1.367     2 C    1.347    41 H    0.971
     2   6 C    3.901 --     1 C    1.347     3 C    1.229     6 N    1.169
     3   6 C    3.954 --     4 C    1.596     2 C    1.229    42 H    0.976
     4   6 C    3.959 --     3 C    1.596     5 C    1.233    43 H    0.974
     5   6 C    3.896 --     7 C    1.301     4 C    1.233     6 N    1.179
     6   7 N    3.470 --     5 C    1.179     2 C    1.169    44 H    0.873
     7   6 C    3.938 --    16 C    1.334     5 C    1.301     8 C    1.032
     8   6 C    3.963 --    15 C    1.385     9 C    1.385     7 C    1.032
     9   6 C    3.988 --    10 C    1.464     8 C    1.385    45 H    0.971
                            14 C    0.102
    10   6 C    3.993 --     9 C    1.464    11 C    1.364    46 H    0.972
                            15 C    0.102
    11   6 C    3.984 --    14 C    1.364    10 C    1.364    12 C    1.098
    12   6 C    3.958 --    13 N    2.820    11 C    1.098
    13   7 N    2.973 --    12 C    2.820
    14   6 C    3.993 --    15 C    1.464    11 C    1.364    47 H    0.972
                             9 C    0.102
    15   6 C    3.987 --    14 C    1.464     8 C    1.385    48 H    0.971
                            10 C    0.102
    16   6 C    3.914 --     7 C    1.334    19 N    1.286    17 C    1.124
    17   6 C    3.965 --    18 C    1.711    16 C    1.124    49 H    0.973
    18   6 C    3.964 --    17 C    1.711    20 C    1.127    50 H    0.974
    19   7 N    3.022 --    20 C    1.344    16 C    1.286
    20   6 C    3.907 --    19 N    1.344    21 C    1.254    18 C    1.127
    21   6 C    3.938 --    20 C    1.254    22 C    1.251   119 C    1.192
    22   6 C    3.884 --    21 C    1.251    23 C    1.248    26 N    1.189
    23   6 C    3.959 --    24 C    1.584    22 C    1.248    51 H    0.975
    24   6 C    3.954 --    23 C    1.584    25 C    1.240    52 H    0.974
    25   6 C    3.898 --    27 C    1.308    24 C    1.240    26 N    1.166
    26   7 N    3.474 --    22 C    1.189    25 C    1.166    53 H    0.873
    27   6 C    3.924 --    36 C    1.319    25 C    1.308    28 C    1.034
    28   6 C    3.963 --    35 C    1.384    29 C    1.384    27 C    1.034
    29   6 C    3.987 --    30 C    1.464    28 C    1.384    54 H    0.971
                            34 C    0.102
    30   6 C    3.993 --    29 C    1.464    31 C    1.364    55 H    0.972
                            35 C    0.102
    31   6 C    3.983 --    34 C    1.364    30 C    1.364    32 C    1.098
    32   6 C    3.958 --    33 N    2.819    31 C    1.098
    33   7 N    2.973 --    32 C    2.819
    34   6 C    3.993 --    35 C    1.464    31 C    1.364    56 H    0.972
                            29 C    0.102
    35   6 C    3.986 --    34 C    1.464    28 C    1.384    57 H    0.971
                            30 C    0.102
    36   6 C    3.928 --    27 C    1.319    40 N    1.319    37 C    1.117
    37   6 C    3.967 --    38 C    1.724    36 C    1.117    58 H    0.973
    38   6 C    3.966 --    37 C    1.724    39 C    1.116    59 H    0.975
    39   6 C    3.928 --     1 C    1.367    40 N    1.299    38 C    1.116
    40   7 N    3.012 --    36 C    1.319    39 C    1.299
    41   1 H    1.002 --     1 C    0.971
    42   1 H    0.997 --     3 C    0.976
    43   1 H    1.004 --     4 C    0.974
    44   1 H    0.986 --     6 N    0.873
    45   1 H    1.004 --     9 C    0.971
    46   1 H    1.000 --    10 C    0.972
    47   1 H    1.000 --    14 C    0.972
    48   1 H    1.003 --    15 C    0.971
    49   1 H    1.004 --    17 C    0.973
    50   1 H    1.002 --    18 C    0.974
    51   1 H    1.002 --    23 C    0.975
    52   1 H    1.004 --    24 C    0.974
    53   1 H    0.987 --    26 N    0.873
    54   1 H    1.004 --    29 C    0.971
    55   1 H    1.000 --    30 C    0.972
    56   1 H    1.000 --    34 C    0.972
    57   1 H    1.003 --    35 C    0.971
    58   1 H    1.004 --    37 C    0.973
    59   1 H    0.998 --    38 C    0.975
    60   6 C    3.926 --    98 C    1.367    61 C    1.347   100 H    0.971
    61   6 C    3.901 --    60 C    1.347    62 C    1.229    65 N    1.169
    62   6 C    3.954 --    63 C    1.596    61 C    1.229   101 H    0.976
    63   6 C    3.959 --    62 C    1.596    64 C    1.233   102 H    0.974
    64   6 C    3.896 --    66 C    1.301    63 C    1.233    65 N    1.179
    65   7 N    3.470 --    64 C    1.179    61 C    1.169   103 H    0.873
    66   6 C    3.938 --    75 C    1.335    64 C    1.301    67 C    1.032
    67   6 C    3.963 --    74 C    1.385    68 C    1.385    66 C    1.032
    68   6 C    3.988 --    69 C    1.464    67 C    1.385   104 H    0.971
                            73 C    0.102
    69   6 C    3.993 --    68 C    1.464    70 C    1.364   105 H    0.972
                            74 C    0.102
    70   6 C    3.984 --    73 C    1.364    69 C    1.364    71 C    1.098
    71   6 C    3.958 --    72 N    2.820    70 C    1.098
    72   7 N    2.973 --    71 C    2.820
    73   6 C    3.993 --    74 C    1.464    70 C    1.364   106 H    0.972
                            68 C    0.102
    74   6 C    3.987 --    73 C    1.464    67 C    1.385   107 H    0.971
                            69 C    0.102
    75   6 C    3.914 --    66 C    1.335    78 N    1.286    76 C    1.124
    76   6 C    3.965 --    77 C    1.711    75 C    1.124   108 H    0.973
    77   6 C    3.964 --    76 C    1.711    79 C    1.127   109 H    0.974
    78   7 N    3.022 --    79 C    1.344    75 C    1.286
    79   6 C    3.907 --    78 N    1.344    80 C    1.253    77 C    1.127
    80   6 C    3.938 --    79 C    1.253    81 C    1.252   134 C    1.192
    81   6 C    3.884 --    80 C    1.252    82 C    1.248    85 N    1.189
    82   6 C    3.959 --    83 C    1.584    81 C    1.248   110 H    0.975
    83   6 C    3.954 --    82 C    1.584    84 C    1.240   111 H    0.974
    84   6 C    3.898 --    86 C    1.308    83 C    1.240    85 N    1.166
    85   7 N    3.474 --    81 C    1.189    84 C    1.166   112 H    0.873
    86   6 C    3.924 --    95 C    1.319    84 C    1.308    87 C    1.034
    87   6 C    3.963 --    94 C    1.385    88 C    1.384    86 C    1.034
    88   6 C    3.987 --    89 C    1.464    87 C    1.384   113 H    0.971
                            93 C    0.102
    89   6 C    3.993 --    88 C    1.464    90 C    1.364   114 H    0.972
                            94 C    0.102
    90   6 C    3.983 --    93 C    1.364    89 C    1.364    91 C    1.098
    91   6 C    3.958 --    92 N    2.819    90 C    1.098
    92   7 N    2.973 --    91 C    2.819
    93   6 C    3.993 --    94 C    1.464    90 C    1.364   115 H    0.972
                            88 C    0.102
    94   6 C    3.986 --    93 C    1.464    87 C    1.385   116 H    0.971
                            89 C    0.102
    95   6 C    3.928 --    86 C    1.319    99 N    1.319    96 C    1.117
    96   6 C    3.967 --    97 C    1.724    95 C    1.117   117 H    0.973
    97   6 C    3.966 --    96 C    1.724    98 C    1.116   118 H    0.975
    98   6 C    3.928 --    60 C    1.367    99 N    1.299    97 C    1.116
    99   7 N    3.012 --    95 C    1.319    98 C    1.299
   100   1 H    1.002 --    60 C    0.971
   101   1 H    0.997 --    62 C    0.976
   102   1 H    1.004 --    63 C    0.974
   103   1 H    0.986 --    65 N    0.873
   104   1 H    1.004 --    68 C    0.971
   105   1 H    1.000 --    69 C    0.972
   106   1 H    1.000 --    73 C    0.972
   107   1 H    1.003 --    74 C    0.971
   108   1 H    1.004 --    76 C    0.973
   109   1 H    1.002 --    77 C    0.974
   110   1 H    1.001 --    82 C    0.975
   111   1 H    1.004 --    83 C    0.974
   112   1 H    0.987 --    85 N    0.873
   113   1 H    1.004 --    88 C    0.971
   114   1 H    1.000 --    89 C    0.972
   115   1 H    1.000 --    93 C    0.972
   116   1 H    1.003 --    94 C    0.971
   117   1 H    1.004 --    96 C    0.973
   118   1 H    0.998 --    97 C    0.975
   119   6 C    3.876 --   120 C    2.438    21 C    1.192   122 C    0.186
   120   6 C    3.932 --   119 C    2.438   121 C    1.345
   121   6 C    3.891 --   122 C    2.334   120 C    1.345   124 C    0.182
   122   6 C    3.924 --   121 C    2.334   123 C    1.370   119 C    0.186
   123   6 C    3.922 --   124 C    2.333   122 C    1.370   126 C    0.186
   124   6 C    3.892 --   123 C    2.333   125 C    1.346   121 C    0.182
   125   6 C    3.929 --   126 C    2.435   124 C    1.346
   126   6 C    3.877 --   125 C    2.435   135 C    1.195   123 C    0.186
   127   6 C    3.877 --   128 C    2.434   155 C    1.195   130 C    0.186
   128   6 C    3.929 --   127 C    2.434   129 C    1.346
   129   6 C    3.892 --   130 C    2.333   128 C    1.346   132 C    0.182
   130   6 C    3.922 --   129 C    2.333   131 C    1.370   127 C    0.186
   131   6 C    3.924 --   132 C    2.334   130 C    1.370   134 C    0.186
   132   6 C    3.891 --   131 C    2.334   133 C    1.345   129 C    0.182
   133   6 C    3.932 --   134 C    2.437   132 C    1.345
   134   6 C    3.876 --   133 C    2.437    80 C    1.192   131 C    0.186
   135   6 C    3.926 --   173 C    1.253   136 C    1.247   126 C    1.195
   136   6 C    3.884 --   137 C    1.253   135 C    1.247   140 N    1.189
   137   6 C    3.955 --   138 C    1.578   136 C    1.253   175 H    0.975
   138   6 C    3.955 --   137 C    1.578   139 C    1.245   176 H    0.974
   139   6 C    3.893 --   141 C    1.298   138 C    1.245   140 N    1.168
   140   7 N    3.472 --   136 C    1.189   139 C    1.168   177 H    0.874
   141   6 C    3.927 --   150 C    1.337   139 C    1.298   142 C    1.031
   142   6 C    3.963 --   143 C    1.385   149 C    1.385   141 C    1.031
   143   6 C    3.987 --   144 C    1.464   142 C    1.385   178 H    0.971
                           148 C    0.102
   144   6 C    3.993 --   143 C    1.464   145 C    1.364   179 H    0.972
                           149 C    0.102
   145   6 C    3.984 --   148 C    1.364   144 C    1.364   146 C    1.098
   146   6 C    3.958 --   147 N    2.820   145 C    1.098
   147   7 N    2.973 --   146 C    2.820
   148   6 C    3.993 --   149 C    1.464   145 C    1.364   180 H    0.972
                           143 C    0.102
   149   6 C    3.987 --   148 C    1.464   142 C    1.385   181 H    0.971
                           144 C    0.102
   150   6 C    3.916 --   141 C    1.337   153 N    1.284   151 C    1.124
   151   6 C    3.966 --   152 C    1.710   150 C    1.124   182 H    0.973
   152   6 C    3.963 --   151 C    1.710   154 C    1.128   183 H    0.974
   153   7 N    3.010 --   154 C    1.344   150 C    1.284
   154   6 C    3.907 --   153 N    1.344   155 C    1.253   152 C    1.128
   155   6 C    3.926 --   154 C    1.253   156 C    1.247   127 C    1.195
   156   6 C    3.884 --   157 C    1.253   155 C    1.247   160 N    1.189
   157   6 C    3.956 --   158 C    1.578   156 C    1.253   184 H    0.975
   158   6 C    3.955 --   157 C    1.578   159 C    1.245   185 H    0.974
   159   6 C    3.893 --   161 C    1.298   158 C    1.245   160 N    1.167
   160   7 N    3.472 --   156 C    1.189   159 C    1.167   186 H    0.874
   161   6 C    3.927 --   170 C    1.337   159 C    1.298   162 C    1.031
   162   6 C    3.963 --   163 C    1.385   169 C    1.385   161 C    1.031
   163   6 C    3.987 --   164 C    1.463   162 C    1.385   187 H    0.971
                           168 C    0.102
   164   6 C    3.993 --   163 C    1.463   165 C    1.364   188 H    0.972
                           169 C    0.102
   165   6 C    3.984 --   164 C    1.364   168 C    1.364   166 C    1.098
   166   6 C    3.958 --   167 N    2.820   165 C    1.098
   167   7 N    2.973 --   166 C    2.820
   168   6 C    3.993 --   169 C    1.464   165 C    1.364   189 H    0.972
                           163 C    0.102
   169   6 C    3.987 --   168 C    1.464   162 C    1.385   190 H    0.971
                           164 C    0.102
   170   6 C    3.916 --   161 C    1.337   174 N    1.285   171 C    1.124
   171   6 C    3.966 --   172 C    1.710   170 C    1.124   191 H    0.973
   172   6 C    3.964 --   171 C    1.710   173 C    1.129   192 H    0.974
   173   6 C    3.907 --   174 N    1.344   135 C    1.253   172 C    1.129
   174   7 N    3.010 --   173 C    1.344   170 C    1.285
   175   1 H    1.001 --   137 C    0.975
   176   1 H    1.004 --   138 C    0.974
   177   1 H    0.987 --   140 N    0.874
   178   1 H    1.003 --   143 C    0.971
   179   1 H    1.000 --   144 C    0.972
   180   1 H    1.000 --   148 C    0.972
   181   1 H    1.004 --   149 C    0.971
   182   1 H    1.004 --   151 C    0.973
   183   1 H    1.002 --   152 C    0.974
   184   1 H    1.001 --   157 C    0.975
   185   1 H    1.004 --   158 C    0.974
   186   1 H    0.987 --   160 N    0.874
   187   1 H    1.003 --   163 C    0.971
   188   1 H    1.000 --   164 C    0.972
   189   1 H    1.000 --   168 C    0.972
   190   1 H    1.004 --   169 C    0.971
   191   1 H    1.004 --   171 C    0.973
   192   1 H    1.002 --   172 C    0.974
 ---------------------------------------------------------------------------

           -------------------------------------------------
          | TOTAL ENERGY             -336.333394365015 Eh   |
          | GRADIENT NORM               0.000674230468 Eh/α |
          | HOMO-LUMO GAP               0.915358303888 eV   |
           -------------------------------------------------

 * finished run on 2022/07/27 at 22:27:31.257
