   * xtb version 6.5.1 (b24c23e) compiled by 'conda@728c89f4b128' on 2022-07-12
          program call               : xtb Fe_Ph2Me_C6_2.xyz --gfn 1 --opt -T 48

   ID    Z sym.   atoms
    1   26 Fe     1, 69
    2    6 C      2-6, 8-11, 13-31, 34-41, 70-74, 76-79, 81-99, 102-109,
                  137-142
    3    7 N      7, 12, 32, 33, 75, 80, 100, 101
    4    1 H      42-68, 110-136
########################################################################
[WARNING] Please study the warnings concerning your input carefully
-1- prog_main_parseArguments: Unknown option '-T' provided
########################################################################

          :  Hamiltonian                  GFN1-xTB          :
 * total energy  :  -225.2956295 Eh     change       -0.6428223E-08 Eh
 * total energy  :  -225.3997734 Eh     change       -0.1041439E+00 Eh
 * total energy  :  -225.4443759 Eh     change       -0.4460252E-01 Eh
 * total energy  :  -225.4561619 Eh     change       -0.1178598E-01 Eh
 * total energy  :  -225.4611010 Eh     change       -0.4939102E-02 Eh
 * total energy  :  -225.4636077 Eh     change       -0.2506658E-02 Eh
 * total energy  :  -225.4646006 Eh     change       -0.9929562E-03 Eh
 * total energy  :  -225.4648963 Eh     change       -0.2956972E-03 Eh
 * total energy  :  -225.4652299 Eh     change       -0.3336110E-03 Eh
 * total energy  :  -225.4653800 Eh     change       -0.1500480E-03 Eh
 * total energy  :  -225.4673471 Eh     change       -0.1540416E-04 Eh
 * total energy  :  -225.4673638 Eh     change       -0.1673379E-04 Eh
 * total energy  :  -225.4673821 Eh     change       -0.1832360E-04 Eh
 * total energy  :  -225.4673873 Eh     change       -0.5150278E-05 Eh
 * total energy  :  -225.4673562 Eh     change        0.3103898E-04 Eh
 * total energy  :  -225.4673949 Eh     change       -0.3868562E-04 Eh
 * total energy  :  -225.4673436 Eh     change        0.5131983E-04 Eh
 * total energy  :  -225.4674078 Eh     change       -0.6418816E-04 Eh
 * total energy  :  -225.4674123 Eh     change       -0.4539799E-05 Eh
   *** GEOMETRY OPTIMIZATION CONVERGED AFTER 49 ITERATIONS ***

 final structure:
================
142
 xtb: 6.5.1 (b24c23e)
Fe          14.21022170607708        0.06622556587998       -0.08532950468313
C           10.87112606824054        0.28958288466279       -0.66101271781936
C           11.51630845056876        1.40489305832052       -0.16799677577150
C           10.84140045326365        2.61987488665994        0.17484055186881
C           11.78470959414833        3.46570730984843        0.65166403317087
C           13.03965907911462        2.77550278602102        0.57200184425738
N           12.85852111098566        1.50827925350369        0.08620255306360
C           14.26076926915007        3.34816805296980        0.91059525447862
C           15.46789364317562        2.67208170177122        0.80262181551038
C           16.74286354261286        3.27929253731612        1.04484072908279
C           17.67970682986807        2.33117868436484        0.80445225448430
N           15.62934000111414        1.36589589122250        0.40530952390770
C           16.97517980675999        1.14784965781055        0.42189043097074
C           17.61700789546022       -0.06104472176935        0.13077131006133
C           16.92336351303225       -1.23687461818316       -0.17655668976743
C           17.57198308957031       -2.49522670959438       -0.37332314025753
C           16.59523272484980       -3.40003838724411       -0.62224762441783
C           15.35303241064018       -2.68697894503071       -0.58900474756422
C           14.12946653424466       -3.26337338214076       -0.89750319446279
C           14.09215480315268       -4.71509448338313       -1.20315732013931
C           13.77679234634939       -5.15485846561543       -2.48665327986636
C           13.74864413724053       -6.51511725873999       -2.77943690011132
C           13.39620079514002       -6.98036128145927       -4.16644852228304
C           14.03021982458171       -7.43391587227487       -1.77433368370776
C           14.34500369397579       -7.00887388086869       -0.48587710429736
C           14.66092280831590       -8.01842869332107        0.58435966133945
C           14.37949408153690       -5.64770398896207       -0.20712616001385
C           12.94654104433284       -2.53692024935599       -0.96955859221504
C           11.68120276637227       -3.10531710092588       -1.33446182550863
C           10.77624266209906       -2.09905372307722       -1.30402648949892
C           11.48399880337449       -0.92405286952919       -0.89380915914366
N           12.81228144433989       -1.20061797452370       -0.70329278002711
N           15.57235825263144       -1.35808769102098       -0.31272043633850
C           14.28225162032860        4.75985656200280        1.36437117147638
C           13.86190555848954        5.77643645811758        0.50763652143505
C           13.88785493895332        7.10379971549412        0.92083841373465
C           13.45671785448719        8.19960760372808       -0.01609955653298
C           14.33774038781080        7.41017875176407        2.20182425066405
C           14.76131234348058        6.40670299735679        3.06804003557530
C           15.22730902426488        6.74851700976894        4.45746050458732
C           14.73238252923008        5.08247434792355        2.64351515572619
H            9.80390037335971        0.35994226695482       -0.83904949112092
H            9.77974702863731        2.77964707589491        0.07254529460249
H           11.65418129965830        4.46681112251415        1.02926462846155
H           16.89239378934034        4.30321253745557        1.34598360386959
H           18.75241494223726        2.40957130153142        0.87793985347477
H           18.63749224360768       -2.65067158628253       -0.31948188405451
H           16.69638180211576       -4.45331240559341       -0.82715295469797
H           13.57029896834348       -4.42785312398272       -3.26438751274959
H           13.78778958681475       -7.98019068034332       -4.35370354549279
H           12.31051295627250       -7.01128380502143       -4.28301912966929
H           13.79675727873280       -6.29765735015001       -4.91637218607284
H           14.00650759314959       -8.49602402444344       -1.99577988589485
H           14.63951531920563       -7.55957092168912        1.57265108211087
H           13.94350973445529       -8.83968736958555        0.56151057103486
H           15.65661269234716       -8.43626557558082        0.42061355684164
H           14.61633046561240       -5.30199064942630        0.79304181833807
H           11.51878073345585       -4.14314226638188       -1.57615316587701
H            9.71953578010548       -2.13360199984418       -1.51698373250717
H           13.52987049021524        5.52604860232721       -0.49394138960984
H           12.98200910206133        9.01380470385154        0.53207165732096
H           12.75776322972744        7.82079574183857       -0.76192832150083
H           14.32626006954872        8.60458871893109       -0.53880556842952
H           14.35995985358733        8.44479686402756        2.52848331308778
H           14.37492132107688        6.76966777755802        5.14034725052797
H           15.70136015541567        7.73012074916526        4.47689545030935
H           15.93682331896645        6.00595719108699        4.82291246552219
H           15.04840884415154        4.29013066503106        3.31315371783917
Fe          30.18926675557666        0.06702823522556       -0.09100532415860
C           33.52898216706400        0.55550367436894       -0.46381765117356
C           32.88424865588699       -0.22980442000255       -1.39701788818735
C           33.55968365691935       -0.90001890209900       -2.46653588990722
C           32.61656983868799       -1.59454443199900       -3.14536744404706
C           31.36119399369887       -1.32343331810317       -2.50648607011469
N           31.54194743456215       -0.50213218830186       -1.42602254855525
C           30.13986784068145       -1.80598542683917       -2.96380332816502
C           28.93224738071233       -1.51026284249800       -2.34737100856273
C           27.65732227101481       -1.90891583085094       -2.86558288847111
C           26.72006131836567       -1.41159350089076       -2.02378422092145
N           28.77040553098265       -0.76416036943831       -1.20405011278268
C           27.42429486800221       -0.71633910546261       -0.99242452257323
C           26.78200515422636       -0.09930868263437        0.08685932576352
C           27.47521909658529        0.52250287603190        1.13136120438818
C           26.82601487831232        1.06395621015125        2.28385154650388
C           27.80260383305284        1.55333147856935        3.08477009753630
C           29.04539106567968        1.31949058544370        2.41136421761403
C           30.26940986816109        1.77272930086092        2.88143983526937
C           30.30635561434029        2.46887736262854        4.19145576081126
C           30.62914941152243        3.82221503122934        4.25932079984483
C           30.65797147482112        4.48011602732367        5.48535723198607
C           31.02008493606201        5.93926419843003        5.54922880393903
C           30.36823560895733        3.77068952686244        6.64580766998445
C           30.04507460793652        2.41689234763548        6.59340564584737
C           29.71965001181064        1.67055025013704        7.85881221396806
C           30.01124041912672        1.77196876047746        5.36273348038082
C           31.45305223378976        1.63780942284244        2.16508269064637
C           32.71870289970367        2.14469019196931        2.61064840553357
C           33.62358811195956        1.83670076658976        1.65211837959672
C           32.91571571898446        1.11722797299682        0.63669924744217
N           31.58731979213891        1.01148067732048        0.95497471569159
N           28.82645349079713        0.68435460533304        1.21178989334348
C           30.11893967161634       -2.63573225164218       -4.19281340194151
C           30.54050567508688       -2.09663834481198       -5.40761147460496
C           30.51534253206968       -2.86364867038188       -6.56706909787580
C           30.94731333927695       -2.26944713707902       -7.88040140103256
C           30.06547961870080       -4.17927347862497       -6.50426143759227
C           29.64084888244990       -4.73114486188796       -5.29934308498174
C           29.17529993876676       -6.16091600149248       -5.24027321218067
C           29.66848605831203       -3.95395610029574       -4.14612747378216
H           34.59623738134769        0.70687954415216       -0.58067417135733
H           34.62153327343355       -0.84729835812212       -2.64764778260760
H           32.74735520296078       -2.23800732708696       -4.00017142871590
H           27.50830258873007       -2.48299363662319       -3.76542437164527
H           25.64722764875193       -1.50124400556326       -2.08073458937114
H           25.76025105082325        1.05805582921105        2.44655267178886
H           27.70096817229497        2.04458333690841        4.03868115151243
H           30.84079305753188        4.36701356115082        3.34590997333026
H           30.63049621678408        6.39845069867060        6.45774312371212
H           32.10656664721917        6.05235462524947        5.54808355213433
H           30.62437426181302        6.47381194424602        4.68518808170856
H           30.39217145914076        4.27759120248734        7.60504821979044
H           29.73441508801033        0.59369637956355        7.69189115712224
H           30.43571057425016        1.91533438931096        8.64426405376921
H           28.72451036271407        1.95036750341518        8.21114423210417
H           29.76892724880680        0.71649376235864        5.30696525266828
H           32.88148288750762        2.66376893156376        3.54119981283854
H           34.68038556080173        2.05046513293267        1.62646768783781
H           30.87295953059855       -1.06509303572554       -5.44613661188337
H           31.42231057817684       -3.02290026144418       -8.50923844167223
H           31.64622728654304       -1.44761624008484       -7.72414971101491
H           30.07808588417918       -1.88029796286831       -8.41551801019308
H           30.04413877353850       -4.78164114498289       -7.40666491908745
H           30.02775186544870       -6.82216394087788       -5.06870654860441
H           28.70269518140294       -6.45389975640656       -6.17806261435733
H           28.46473349680970       -6.30480146602495       -4.42617927748085
H           29.35127651418341       -4.37579483655969       -3.19875205269832
C           22.81430305378532       -0.14070776926903        0.18570789879662
C           21.58485713311592       -0.13719067544484        0.19318456083776
C           20.24258956777739       -0.12160008996027        0.18760546684060
C           19.01788977580338       -0.10021142021823        0.17238706111624
C           24.15649438161781       -0.13769634571745        0.16452596927550
C           25.38107621982902       -0.12781018402809        0.13561061333894

          :  Hamiltonian                  GFN1-xTB          :
         :: total energy            -225.467412328431 Eh    ::
         :: gradient norm              0.000445990975 Eh/a0 ::
         :: HOMO-LUMO gap              0.093226119536 eV    ::
         :: SCC energy              -229.178729748084 Eh    ::
         :: repulsion energy           3.831807607591 Eh    ::

    * Orbital Energies and Occupations

         #    Occupation            Energy/Eh            Energy/eV
      -------------------------------------------------------------
         1        2.0000           -0.7667151             -20.8634
       ...           ...                  ...                  ...
       199        2.0000           -0.4247090             -11.5569
       200        2.0000           -0.4196785             -11.4200
       201        2.0000           -0.4164347             -11.3318
       202        2.0000           -0.3945135             -10.7353
       203        2.0000           -0.3945124             -10.7352
       204        1.9999           -0.3912994             -10.6478
       205        1.9938           -0.3874396             -10.5428
       206        1.9877           -0.3867897             -10.5251
       207        1.9434           -0.3853162             -10.4850
       208        1.9432           -0.3853135             -10.4849
       209        1.9418           -0.3852897             -10.4843
       210        1.9415           -0.3852850             -10.4841
       211        1.7253           -0.3837028             -10.4411 (HOMO)
       212        0.2914           -0.3802768             -10.3479 (LUMO)
       213        0.2319           -0.3800273             -10.3411
       214                         -0.3358426              -9.1387
       215                         -0.3271403              -8.9019
       216                         -0.3248558              -8.8398
       217                         -0.3248517              -8.8397
       218                         -0.2997694              -8.1571
       219                         -0.2997420              -8.1564
       220                         -0.2975196              -8.0959
       221                         -0.2941939              -8.0054
       222                         -0.2801958              -7.6245
       ...                                ...                  ...
       470                          1.5760891              42.8876
      -------------------------------------------------------------
                  HL-Gap            0.0034260 Eh            0.0932 eV

Wiberg/Mayer (AO) data.
largest (>0.10) Wiberg bond orders for each atom

     #   Z sym  total        # sym  WBO       # sym  WBO       # sym  WBO
 ---------------------------------------------------------------------------
     1  26 Fe   3.161 --    32 N    0.671     7 N    0.669    12 N    0.664
                            33 N    0.664
     2   6 C    3.925 --    31 C    1.363     3 C    1.362    42 H    0.970
     3   6 C    3.925 --     2 C    1.362     7 N    1.211     4 C    1.174
     4   6 C    3.959 --     5 C    1.648     3 C    1.174    43 H    0.975
     5   6 C    3.962 --     4 C    1.648     6 C    1.176    44 H    0.972
     6   6 C    3.920 --     8 C    1.314     7 N    1.224     5 C    1.176
     7   7 N    3.382 --     6 C    1.224     3 C    1.211     1 Fe   0.669
     8   6 C    3.928 --     9 C    1.332     6 C    1.314    34 C    1.025
     9   6 C    3.916 --     8 C    1.332    12 N    1.201    10 C    1.180
    10   6 C    3.958 --    11 C    1.638     9 C    1.180    45 H    0.973
    11   6 C    3.960 --    10 C    1.638    13 C    1.188    46 H    0.973
    12   7 N    3.383 --    13 C    1.244     9 C    1.201     1 Fe   0.664
    13   6 C    3.905 --    14 C    1.253    12 N    1.244    11 C    1.188
    14   6 C    3.927 --    13 C    1.253    15 C    1.253   140 C    1.197
    15   6 C    3.905 --    14 C    1.253    33 N    1.245    16 C    1.188
    16   6 C    3.960 --    17 C    1.638    15 C    1.188    47 H    0.973
    17   6 C    3.958 --    16 C    1.638    18 C    1.180    48 H    0.973
    18   6 C    3.916 --    19 C    1.334    33 N    1.200    17 C    1.180
    19   6 C    3.928 --    18 C    1.334    28 C    1.315    20 C    1.021
    20   6 C    3.988 --    21 C    1.402    27 C    1.393    19 C    1.021
                            24 C    0.103
    21   6 C    3.986 --    22 C    1.412    20 C    1.402    49 H    0.972
                            25 C    0.104
    22   6 C    3.988 --    24 C    1.421    21 C    1.412    23 C    1.020
                            27 C    0.103
    23   6 C    3.995 --    22 C    1.020    50 H    0.984    52 H    0.981
                            51 H    0.971
    24   6 C    3.989 --    22 C    1.421    25 C    1.410    53 H    0.972
                            20 C    0.103
    25   6 C    3.988 --    27 C    1.422    24 C    1.410    26 C    1.020
                            21 C    0.104
    26   6 C    3.995 --    25 C    1.020    54 H    0.985    55 H    0.979
                            56 H    0.972
    27   6 C    3.986 --    25 C    1.422    20 C    1.393    57 H    0.972
                            22 C    0.103
    28   6 C    3.920 --    19 C    1.315    32 N    1.224    29 C    1.176
    29   6 C    3.962 --    30 C    1.649    28 C    1.176    58 H    0.973
    30   6 C    3.959 --    29 C    1.649    31 C    1.173    59 H    0.975
    31   6 C    3.925 --     2 C    1.363    32 N    1.210    30 C    1.173
    32   7 N    3.383 --    28 C    1.224    31 C    1.210     1 Fe   0.671
    33   7 N    3.382 --    15 C    1.245    18 C    1.200     1 Fe   0.664
    34   6 C    3.988 --    41 C    1.397    35 C    1.395     8 C    1.025
                            38 C    0.103
    35   6 C    3.986 --    36 C    1.418    34 C    1.395    60 H    0.972
                            39 C    0.103
    36   6 C    3.988 --    35 C    1.418    38 C    1.414    37 C    1.020
                            41 C    0.103
    37   6 C    3.995 --    36 C    1.020    62 H    0.984    61 H    0.982
                            63 H    0.971
    38   6 C    3.988 --    39 C    1.416    36 C    1.414    64 H    0.972
                            34 C    0.103
    39   6 C    3.988 --    41 C    1.416    38 C    1.416    40 C    1.020
                            35 C    0.103
    40   6 C    3.995 --    39 C    1.020    67 H    0.983    66 H    0.982
                            65 H    0.971
    41   6 C    3.986 --    39 C    1.416    34 C    1.397    68 H    0.972
                            36 C    0.103
    42   1 H    1.001 --     2 C    0.970
    43   1 H    0.998 --     4 C    0.975
    44   1 H    1.005 --     5 C    0.972
    45   1 H    1.005 --    10 C    0.973
    46   1 H    1.002 --    11 C    0.973
    47   1 H    1.002 --    16 C    0.973
    48   1 H    1.005 --    17 C    0.973
    49   1 H    1.002 --    21 C    0.972
    50   1 H    1.004 --    23 C    0.984
    51   1 H    1.006 --    23 C    0.971
    52   1 H    1.004 --    23 C    0.981
    53   1 H    1.000 --    24 C    0.972
    54   1 H    1.004 --    26 C    0.985
    55   1 H    1.005 --    26 C    0.979
    56   1 H    1.006 --    26 C    0.972
    57   1 H    1.002 --    27 C    0.972
    58   1 H    1.005 --    29 C    0.973
    59   1 H    0.998 --    30 C    0.975
    60   1 H    1.003 --    35 C    0.972
    61   1 H    1.004 --    37 C    0.982
    62   1 H    1.004 --    37 C    0.984
    63   1 H    1.006 --    37 C    0.971
    64   1 H    1.000 --    38 C    0.972
    65   1 H    1.006 --    40 C    0.971
    66   1 H    1.004 --    40 C    0.982
    67   1 H    1.004 --    40 C    0.983
    68   1 H    1.002 --    41 C    0.972
    69  26 Fe   3.160 --   100 N    0.671    75 N    0.669    80 N    0.665
                           101 N    0.664
    70   6 C    3.925 --    99 C    1.363    71 C    1.362   110 H    0.970
    71   6 C    3.925 --    70 C    1.362    75 N    1.211    72 C    1.174
    72   6 C    3.959 --    73 C    1.648    71 C    1.174   111 H    0.975
    73   6 C    3.962 --    72 C    1.648    74 C    1.176   112 H    0.972
    74   6 C    3.920 --    76 C    1.314    75 N    1.224    73 C    1.176
    75   7 N    3.382 --    74 C    1.224    71 C    1.211    69 Fe   0.669
    76   6 C    3.928 --    77 C    1.333    74 C    1.314   102 C    1.025
    77   6 C    3.916 --    76 C    1.333    80 N    1.201    78 C    1.180
    78   6 C    3.958 --    79 C    1.638    77 C    1.180   113 H    0.973
    79   6 C    3.960 --    78 C    1.638    81 C    1.188   114 H    0.973
    80   7 N    3.383 --    81 C    1.244    77 C    1.201    69 Fe   0.665
    81   6 C    3.905 --    82 C    1.253    80 N    1.244    79 C    1.188
    82   6 C    3.927 --    81 C    1.253    83 C    1.253   142 C    1.197
    83   6 C    3.905 --    82 C    1.253   101 N    1.245    84 C    1.188
    84   6 C    3.960 --    85 C    1.638    83 C    1.188   115 H    0.973
    85   6 C    3.958 --    84 C    1.638    86 C    1.180   116 H    0.973
    86   6 C    3.916 --    87 C    1.334   101 N    1.200    85 C    1.180
    87   6 C    3.928 --    86 C    1.334    96 C    1.315    88 C    1.022
    88   6 C    3.988 --    89 C    1.402    95 C    1.393    87 C    1.022
                            92 C    0.103
    89   6 C    3.986 --    90 C    1.412    88 C    1.402   117 H    0.972
                            93 C    0.104
    90   6 C    3.988 --    92 C    1.421    89 C    1.412    91 C    1.020
                            95 C    0.103
    91   6 C    3.995 --    90 C    1.020   118 H    0.984   120 H    0.981
                           119 H    0.971
    92   6 C    3.989 --    90 C    1.421    93 C    1.410   121 H    0.972
                            88 C    0.103
    93   6 C    3.988 --    95 C    1.422    92 C    1.410    94 C    1.020
                            89 C    0.104
    94   6 C    3.995 --    93 C    1.020   122 H    0.985   123 H    0.979
                           124 H    0.972
    95   6 C    3.986 --    93 C    1.422    88 C    1.393   125 H    0.972
                            90 C    0.103
    96   6 C    3.920 --    87 C    1.315   100 N    1.224    97 C    1.176
    97   6 C    3.962 --    98 C    1.649    96 C    1.176   126 H    0.973
    98   6 C    3.959 --    97 C    1.649    99 C    1.173   127 H    0.975
    99   6 C    3.925 --    70 C    1.363   100 N    1.210    98 C    1.173
   100   7 N    3.382 --    96 C    1.224    99 C    1.210    69 Fe   0.671
   101   7 N    3.382 --    83 C    1.245    86 C    1.200    69 Fe   0.664
   102   6 C    3.988 --   109 C    1.397   103 C    1.395    76 C    1.025
                           106 C    0.103
   103   6 C    3.986 --   104 C    1.418   102 C    1.395   128 H    0.972
                           107 C    0.103
   104   6 C    3.988 --   103 C    1.418   106 C    1.414   105 C    1.020
                           109 C    0.103
   105   6 C    3.995 --   104 C    1.020   130 H    0.984   129 H    0.982
                           131 H    0.971
   106   6 C    3.988 --   107 C    1.416   104 C    1.414   132 H    0.972
                           102 C    0.103
   107   6 C    3.988 --   109 C    1.416   106 C    1.416   108 C    1.020
                           103 C    0.103
   108   6 C    3.995 --   107 C    1.020   135 H    0.983   134 H    0.982
                           133 H    0.971
   109   6 C    3.986 --   107 C    1.416   102 C    1.397   136 H    0.972
                           104 C    0.103
   110   1 H    1.001 --    70 C    0.970
   111   1 H    0.998 --    72 C    0.975
   112   1 H    1.005 --    73 C    0.972
   113   1 H    1.005 --    78 C    0.973
   114   1 H    1.002 --    79 C    0.973
   115   1 H    1.002 --    84 C    0.973
   116   1 H    1.005 --    85 C    0.973
   117   1 H    1.002 --    89 C    0.972
   118   1 H    1.004 --    91 C    0.984
   119   1 H    1.006 --    91 C    0.971
   120   1 H    1.004 --    91 C    0.981
   121   1 H    1.000 --    92 C    0.972
   122   1 H    1.004 --    94 C    0.985
   123   1 H    1.005 --    94 C    0.979
   124   1 H    1.006 --    94 C    0.972
   125   1 H    1.002 --    95 C    0.972
   126   1 H    1.005 --    97 C    0.973
   127   1 H    0.998 --    98 C    0.975
   128   1 H    1.003 --   103 C    0.972
   129   1 H    1.004 --   105 C    0.982
   130   1 H    1.004 --   105 C    0.984
   131   1 H    1.006 --   105 C    0.971
   132   1 H    1.000 --   106 C    0.972
   133   1 H    1.006 --   108 C    0.971
   134   1 H    1.004 --   108 C    0.982
   135   1 H    1.004 --   108 C    0.983
   136   1 H    1.002 --   109 C    0.972
   137   6 C    3.915 --   138 C    2.350   141 C    1.345   140 C    0.187
   138   6 C    3.915 --   137 C    2.350   139 C    1.345   142 C    0.187
   139   6 C    3.924 --   140 C    2.431   138 C    1.345
   140   6 C    3.880 --   139 C    2.431    14 C    1.197   137 C    0.187
   141   6 C    3.924 --   142 C    2.431   137 C    1.345
   142   6 C    3.880 --   141 C    2.431    82 C    1.197   138 C    0.187
 ---------------------------------------------------------------------------

           -------------------------------------------------
          | TOTAL ENERGY             -225.467412328431 Eh   |
          | GRADIENT NORM               0.000445990975 Eh/α |
          | HOMO-LUMO GAP               0.093226119536 eV   |
           -------------------------------------------------

 * finished run on 2022/07/29 at 18:52:26.633
