   * xtb version 6.5.1 (b24c23e) compiled by 'conda@728c89f4b128' on 2022-07-12
          program call               : xtb BSA_C2_3.xyz --gfn 1 --opt -T 48

   ID    Z sym.   atoms
    1    6 C      1-5, 7-11, 16-20, 22-27, 29-33, 38-43, 66-70, 72-76, 81-85,
                  87-92, 94-98, 103-108, 131-139, 141-145, 150-154, 156-161,
                  163-167, 172-177
    2    7 N      6, 21, 28, 44, 71, 86, 93, 109, 140, 155, 162, 178
    3   16 S      12, 34, 77, 99, 146, 168
    4    8 O      13-15, 35-37, 78-80, 100-102, 147-149, 169-171
    5    1 H      45-65, 110-130, 179-198
########################################################################
[WARNING] Please study the warnings concerning your input carefully
-1- prog_main_parseArguments: Unknown option '-T' provided
########################################################################

          :  Hamiltonian                  GFN1-xTB          :
 * total energy  :  -388.3766013 Eh     change        0.1820695E-09 Eh
 * total energy  :  -388.7670563 Eh     change       -0.3904550E+00 Eh
 * total energy  :  -388.9133614 Eh     change       -0.1463051E+00 Eh
 * total energy  :  -388.9888889 Eh     change       -0.7552745E-01 Eh
 * total energy  :  -389.0199383 Eh     change       -0.3104940E-01 Eh
 * total energy  :  -389.0427206 Eh     change       -0.2278233E-01 Eh
 * total energy  :  -389.0604521 Eh     change       -0.1773143E-01 Eh
 * total energy  :  -389.0749586 Eh     change       -0.1450654E-01 Eh
 * total energy  :  -389.0868205 Eh     change       -0.1186195E-01 Eh
 * total energy  :  -389.0961953 Eh     change       -0.9374762E-02 Eh
 * total energy  :  -389.1430850 Eh     change       -0.1263556E-04 Eh
 * total energy  :  -389.1430983 Eh     change       -0.1331288E-04 Eh
 * total energy  :  -389.1431137 Eh     change       -0.1535140E-04 Eh
 * total energy  :  -389.1431325 Eh     change       -0.1884483E-04 Eh
 * total energy  :  -389.1431558 Eh     change       -0.2328565E-04 Eh
 * total energy  :  -389.1431823 Eh     change       -0.2649632E-04 Eh
 * total energy  :  -389.1432091 Eh     change       -0.2677257E-04 Eh
 * total energy  :  -389.1432333 Eh     change       -0.2420005E-04 Eh
 * total energy  :  -389.1432374 Eh     change       -0.4131461E-05 Eh
   *** GEOMETRY OPTIMIZATION CONVERGED AFTER 122 ITERATIONS ***

 final structure:
================
198
 xtb: 6.5.1 (b24c23e)
C           32.10463342280057        0.03237985876829       -0.07940734864217
C           32.71212601779615       -1.19240671428541       -0.32194308380666
C           32.05842516461026       -2.43276003322961       -0.56942748962075
C           33.01912627688752       -3.38645642679688       -0.75100931966386
C           34.29203348896452       -2.75752143023066       -0.62923333793052
N           34.05547755339580       -1.43867799349682       -0.36544331854516
C           35.55421378218578       -3.35364896504397       -0.71801648662653
C           35.58480408515529       -4.80433336236128       -1.02463752834581
C           35.06036453738820       -5.27858789590190       -2.22970573388643
C           35.09238957289870       -6.63100205649603       -2.52704721395173
C           35.64775521178797       -7.50167149872988       -1.60356884433931
S           35.69765383682360       -9.21365983248387       -1.97731842927306
O           35.64645187919395       -9.42795093429769       -3.39354201532930
O           34.25885313806730       -9.63165998074354       -1.34945029095389
O           36.72372410734416       -9.87060725493996       -1.22263933981943
C           36.17548515504931       -7.06194214323350       -0.40041322966557
C           36.14259215866267       -5.70682018435088       -0.11561304828329
C           36.77225029847046       -2.68845778843762       -0.55027455316525
C           38.07114160871810       -3.32271461604323       -0.69589044682776
C           38.99175820974241       -2.35956674488746       -0.48753159114741
N           36.92523057364103       -1.36678556261160       -0.27266080729602
C           38.25514345235861       -1.13704968854559       -0.22661683070187
C           38.88762737817043        0.09632019745172        0.00564026687220
C           38.25865087819651        1.33041628128035        0.23521882851359
C           38.90699300637681        2.56382400292780        0.51449147973336
C           37.94284135798193        3.51128060589775        0.71659270658043
C           36.67392319923187        2.88740061801440        0.55424837583890
N           36.91657264170545        1.57120956696574        0.26740028008896
C           35.41138554697672        3.47322065861028        0.69435404926183
C           35.37962686483415        4.91772395151169        1.02649428906527
C           35.93255728226538        5.85816860482683        0.15364903640647
C           35.90663200212180        7.20758323888743        0.46534017858222
C           35.32858260326530        7.60310173371064        1.66065320684498
S           35.29298741635599        9.30949307156804        2.06095581846760
O           35.37944451515579       10.10988301359961        0.87566531298845
O           36.71461736063087        9.39577935983150        2.84233855557169
O           34.25159511996576        9.59341255015475        3.00423622947363
C           34.76880542724980        6.69504939878079        2.54473709538876
C           34.79511200361490        5.34889352200402        2.22028871890360
C           34.19348275599176        2.80099812342759        0.54728780499935
C           32.88967039442978        3.44203884748172        0.63072620902122
C           31.97541221415130        2.47717701232524        0.40823367500066
C           32.71910146088226        1.24942894155016        0.18368260784060
N           34.05163251772685        1.48387187910296        0.26912779766636
H           31.01953276314945        0.02851913684189       -0.09838871268850
H           30.98868633257325       -2.56523866755652       -0.59569925955215
H           32.86646065619319       -4.43611744423687       -0.94289468322323
H           34.78146186316039       -0.74588634910767       -0.21639193104696
H           34.64334957842409       -4.57905612180442       -2.94481828513298
H           34.70046195768673       -7.00777431563308       -3.46342720089810
H           34.10423527506277      -10.57657095080357       -1.46928292508804
H           36.60664661373132       -7.77001795680765        0.29605251227794
H           36.54042587643733       -5.34294819272392        0.82444969549509
H           38.23513176134946       -4.35979935498030       -0.93953944863279
H           40.06666097454130       -2.44008381585838       -0.51265601398085
H           39.97587498436232        2.69587062496383        0.56337288373930
H           38.09395209978075        4.54861942286418        0.96689377464436
H           36.19200033961079        0.87656202026455        0.11847616873215
H           36.36795794089449        5.52945772372826       -0.78282118651007
H           36.32220916094116        7.94590301458569       -0.20885472952490
H           36.83270006356295       10.27347026126906        3.22555639477760
H           34.31949406438456        7.03979954347873        3.46758576958922
H           34.37327040527549        4.62072551672679        2.90313219649666
H           32.72302967943338        4.49051126997776        0.81820317714826
H           30.90009477225563        2.55786705603155        0.38523947235405
C           60.59579931887659        0.06107521723952       -0.04179333875626
C           60.00099453604121        1.26852458793107        0.29921773367703
C           60.66635763499936        2.47172053645926        0.66885350414427
C           59.71520308984037        3.41920119390388        0.92008565183888
C           58.43708272212250        2.82968403583943        0.69715817308201
N           58.66064741424128        1.53145217003182        0.33692124232991
C           57.17971109957345        3.42913822790872        0.82426694917475
C           57.15520709733637        4.85603899909585        1.22534792174001
C           57.76581113585664        5.83131866485972        0.43308253078814
C           57.74287644922396        7.16293271917244        0.81466423501089
C           57.10846222927539        7.50532353077203        1.99765949002107
S           57.07212839952108        9.18824822488664        2.48693172402706
O           57.26619382545303       10.05300610219977        1.36058530369043
O           58.43230750550492        9.20235660186879        3.37542266677500
O           55.96382822598734        9.43994136417086        3.36007231214701
C           56.49070896051752        6.56183063449714        2.80260816899385
C           56.51601609412302        5.23443164922385        2.40932977061682
C           55.95667869862024        2.78504689317693        0.61220465290354
C           54.66883913769541        3.45583030179519        0.65772828093924
C           53.73768127546592        2.51122504730074        0.41334351608498
N           55.78850264725677        1.46792640411884        0.32372786126727
C           54.45723207516836        1.26700277358660        0.21657801809034
C           53.81028816470322        0.03814678889303       -0.00010285045321
C           54.42832175750499       -1.20343341608163       -0.22128466320351
C           53.77126058436987       -2.44704620209615       -0.42332501022146
C           54.72680833318477       -3.39580430298737       -0.65894662682745
C           55.99814092138378       -2.75772057006658       -0.61558985526018
N           55.76701422745986       -1.43875834857195       -0.33308273746201
C           57.25319325983346       -3.34599360471265       -0.80505755028025
C           57.26690833080819       -4.78566874420450       -1.15837974754915
C           56.65507177652260       -5.22450957264461       -2.33556134507600
C           56.67099813468303       -6.56611087349780       -2.67902399181055
C           57.29738256162669       -7.46257269007515       -1.82849551351058
S           57.32738169122244       -9.16085179050470       -2.26262832915122
O           57.16504150300781       -9.32460694145730       -3.67694929466516
O           55.94858458166655       -9.61379598492504       -1.53341282644169
O           58.41397764329555       -9.83615051291079       -1.61608763931237
C           57.91181509362912       -7.05842310076776       -0.65433801446035
C           57.89572389131127       -5.71331611428579       -0.32402879335432
C           58.47734352558678       -2.67812881210581       -0.69651753453672
C           59.77196868210244       -3.29208972717812       -0.95094893673814
C           60.69656067985046       -2.33543317190198       -0.73566393167511
C           59.96781215120308       -1.13559908569339       -0.36110972548194
N           58.63380590767657       -1.37636494025176       -0.35942270875757
H           61.68100324535700        0.06036337967547       -0.05348953879272
H           61.73673600684772        2.58184263923064        0.73778518723585
H           59.87826093993952        4.43593819725416        1.23868622868597
H           57.92806955313664        0.86031210005522        0.13178526210767
H           58.24352896769373        5.54552929425588       -0.49679332221963
H           58.20315351809941        7.92839895938191        0.20262122658380
H           58.59663808595720       10.08872411952097        3.71959203416062
H           55.99812390092043        6.86543620728560        3.71775837585210
H           56.04881681623363        4.47855831767462        3.02971000971141
H           54.52059011167113        4.50873465251527        0.83470366573925
H           52.66623082382298        2.62054501531386        0.36212323080082
H           52.70286303221942       -2.58750897263884       -0.38898927655963
H           54.56935885159040       -4.44671280520304       -0.83907302252934
H           56.49592798088153       -0.74045467714287       -0.22950535147917
H           56.18211608660322       -4.50494932976074       -2.99374471491117
H           56.21199558902560       -6.91488923555395       -3.59554472749297
H           55.83131732609997      -10.56912025368837       -1.60208955759839
H           58.39624777468553       -7.78589802226568       -0.01520629359006
H           58.36180444208267       -5.37747283450630        0.59486744432963
H           59.92589401856274       -4.31240299716806       -1.26314708185082
H           61.76968634525821       -2.40167822745801       -0.82148811399885
C           40.30315658473499        0.10905609053111        0.01137075735736
C           41.51796353343588        0.11217667888146        0.01504921863310
C           51.18059294202183        0.04444352623578        0.01312645485606
C           52.39554877174491        0.03772241703691        0.00585172904087
C           42.93309353955426        0.10893647392782        0.01870908527345
C           43.55676426955100        0.93173591137816       -0.93292708410661
C           42.90549888002818        1.71771193727332       -1.92078830681364
C           43.86783805143603        2.34231253026135       -2.66424965658036
C           45.13731729786762        1.96727645146133       -2.14256631026991
N           44.89816101910430        1.11094019313589       -1.10216885754065
C           46.39875810163920        2.36211835222291       -2.60219676028347
C           46.42299676980736        3.28544003406466       -3.76251616035647
C           47.03120854786813        2.88441223426612       -4.95533525090439
C           47.04565711668951        3.72505382870549       -6.05559337904548
C           46.44944020049794        4.97108991868586       -5.94794205236026
S           46.46356427050726        6.03980600691281       -7.33801834266321
O           46.30320284770693        7.40205704396362       -6.92592585288540
O           45.08174277025263        5.54241339533925       -8.03301785864539
O           47.53912734705095        5.71331918561968       -8.22806409012962
C           45.84978566144536        5.40209751706581       -4.77590053149154
C           45.83694440510348        4.55100603372334       -3.68270780367330
C           47.62156275674563        1.94363127357681       -2.07077903129639
C           48.91115732960896        2.44191661449441       -2.51730603937359
C           49.84255299809453        1.80765219879350       -1.77642828399833
N           47.78905904331452        1.04227306812357       -1.06768928692937
C           49.12140515866714        0.92597289501946       -0.87830668181021
C           49.76622999144477        0.05645153389329        0.01765809989456
C           49.14100531727482       -0.81165926042458        0.92789353929389
C           49.78976115063270       -1.69272342977892        1.83346435043311
C           48.82673567064793       -2.31702757319309        2.57677974867801
C           47.55989436672348       -1.83093845032325        2.14960902876217
N           47.79996611315187       -0.93498157325940        1.14385114281736
C           46.30022041324631       -2.20297937724941        2.63327097036488
C           46.28385569560906       -3.14928038326578        3.77557782246925
C           45.68238172303503       -4.40395469409364        3.65062259628078
C           45.66077412869041       -5.28314013432703        4.72097501812709
C           46.24134912832281       -4.89086333309632        5.91611874420627
S           46.22224942436242       -5.99932361453037        7.27461727914251
O           46.06935610357796       -7.34917773784890        6.82032475706249
O           44.82692808333415       -5.52040323962709        7.95341525439276
O           47.28083493255673       -5.70158847849097        8.19490061929320
C           46.84921219716504       -3.65538238305356        6.06949500913156
C           46.87005047564271       -2.78655717575350        4.99112764752481
C           45.07592581922101       -1.74789338105758        2.13823931884448
C           43.78513875863132       -2.12937559449398        2.68529338135768
C           42.85416234634463       -1.49279925375042        1.94604971018176
C           43.57704256808674       -0.71155777178699        0.96034271255562
N           44.90882809313158       -0.88094174794142        1.10452908394917
H           41.83658597883962        1.78110281991947       -2.04580197683094
H           43.71402632453174        2.99720393852404       -3.50621080963935
H           45.62240640542843        0.66138632583703       -0.55203107090578
H           47.48087042560547        1.90060486368658       -5.02176372941090
H           47.51274234190009        3.42314332653769       -6.98461669078221
H           45.02106622765803        5.88498983351138       -8.93311310395344
H           45.40631969139258        6.38842341414760       -4.72242803562005
H           45.38449880209993        4.87532161800424       -2.75283365587258
H           49.06020529100104        3.18801009311618       -3.28084382004899
H           50.91524298487389        1.91033541194269       -1.81226444621645
H           50.85758779356922       -1.82549686768909        1.89962177686043
H           48.97690793238222       -3.05598576971208        3.34682670807666
H           47.07757264477308       -0.43296413639891        0.63844581715680
H           45.24388612153580       -4.69581434937242        2.70360017225912
H           45.20583612056605       -6.26166382555861        4.63235909621549
H           44.73117682163214       -5.91017332795225        8.83095229232589
H           47.29880353290202       -3.38334358630653        7.01622262333929
H           47.32966330193202       -1.81042057669920        5.09413888047654
H           43.63351641395969       -2.78527362243149        3.52707786505650
H           41.78088013752333       -1.52244638891704        2.04455432176381

          :  Hamiltonian                  GFN1-xTB          :
         :: total energy            -389.143237417390 Eh    ::
         :: gradient norm              0.000425281551 Eh/a0 ::
         :: HOMO-LUMO gap              1.042786804427 eV    ::
         :: SCC energy              -394.330671731750 Eh    ::
         :: repulsion energy           5.364752774375 Eh    ::

    * Orbital Energies and Occupations

         #    Occupation            Energy/Eh            Energy/eV
      -------------------------------------------------------------
         1        2.0000           -1.0382477             -28.2522
       ...           ...                  ...                  ...
       321        2.0000           -0.4376805             -11.9099
       322        2.0000           -0.4375448             -11.9062
       323        2.0000           -0.4357781             -11.8581
       324        2.0000           -0.4353745             -11.8471
       325        2.0000           -0.4352860             -11.8447
       326        2.0000           -0.4345145             -11.8237
       327        2.0000           -0.4332664             -11.7898
       328        2.0000           -0.4196908             -11.4204
       329        2.0000           -0.4181833             -11.3793
       330        2.0000           -0.4173435             -11.3565
       331        2.0000           -0.4085424             -11.1170
       332        2.0000           -0.4038486             -10.9893
       333        2.0000           -0.3986868             -10.8488 (HOMO)
       334                         -0.3603651              -9.8060 (LUMO)
       335                         -0.3535154              -9.6196
       336                         -0.3533397              -9.6149
       337                         -0.3520101              -9.5787
       338                         -0.3509288              -9.5493
       339                         -0.3471069              -9.4453
       340                         -0.3240455              -8.8177
       341                         -0.3203576              -8.7174
       342                         -0.3192669              -8.6877
       343                         -0.3118430              -8.4857
       344                         -0.3111050              -8.4656
       ...                                ...                  ...
       698                          1.3215514              35.9612
      -------------------------------------------------------------
                  HL-Gap            0.0383217 Eh            1.0428 eV

Wiberg/Mayer (AO) data.
largest (>0.10) Wiberg bond orders for each atom

     #   Z sym  total        # sym  WBO       # sym  WBO       # sym  WBO
 ---------------------------------------------------------------------------
     1   6 C    3.932 --    43 C    1.367     2 C    1.349    45 H    0.970
     2   6 C    3.900 --     1 C    1.349     3 C    1.227     6 N    1.169
     3   6 C    3.955 --     4 C    1.600     2 C    1.227    46 H    0.976
     4   6 C    3.959 --     3 C    1.600     5 C    1.230    47 H    0.974
     5   6 C    3.899 --     7 C    1.307     4 C    1.230     6 N    1.178
     6   7 N    3.472 --     5 C    1.178     2 C    1.169    48 H    0.873
     7   6 C    3.938 --    18 C    1.329     5 C    1.307     8 C    1.030
     8   6 C    3.986 --     9 C    1.391    17 C    1.391     7 C    1.030
     9   6 C    3.986 --    10 C    1.450     8 C    1.391    49 H    0.971
                            16 C    0.106
    10   6 C    3.989 --     9 C    1.450    11 C    1.407    50 H    0.967
                            17 C    0.106
    11   6 C    3.930 --    10 C    1.407    16 C    1.407    12 S    0.754
    12  16 S    5.265 --    15 O    1.720    13 O    1.719    14 O    1.012
                            11 C    0.754
    13   8 O    2.078 --    12 S    1.719    15 O    0.139
    14   8 O    2.087 --    12 S    1.012    51 H    0.828
    15   8 O    2.079 --    12 S    1.720    13 O    0.139
    16   6 C    3.989 --    17 C    1.450    11 C    1.407    52 H    0.967
                             9 C    0.106
    17   6 C    3.987 --    16 C    1.450     8 C    1.391    53 H    0.971
                            10 C    0.106
    18   6 C    3.918 --     7 C    1.329    21 N    1.296    19 C    1.122
    19   6 C    3.967 --    20 C    1.714    18 C    1.122    54 H    0.973
    20   6 C    3.966 --    19 C    1.714    22 C    1.125    55 H    0.974
    21   7 N    3.024 --    22 C    1.331    18 C    1.296
    22   6 C    3.918 --    21 N    1.331    23 C    1.274    20 C    1.125
    23   6 C    3.939 --    22 C    1.274    24 C    1.269   131 C    1.150
    24   6 C    3.894 --    23 C    1.269    25 C    1.243    28 N    1.183
    25   6 C    3.959 --    26 C    1.588    24 C    1.243    56 H    0.975
    26   6 C    3.957 --    25 C    1.588    27 C    1.237    57 H    0.974
    27   6 C    3.899 --    29 C    1.309    26 C    1.237    28 N    1.169
    28   7 N    3.475 --    24 C    1.183    27 C    1.169    58 H    0.872
    29   6 C    3.928 --    40 C    1.321    27 C    1.309    30 C    1.031
    30   6 C    3.986 --    31 C    1.391    39 C    1.390    29 C    1.031
    31   6 C    3.986 --    32 C    1.450    30 C    1.391    59 H    0.971
                            38 C    0.106
    32   6 C    3.989 --    31 C    1.450    33 C    1.407    60 H    0.967
                            39 C    0.106
    33   6 C    3.930 --    32 C    1.407    38 C    1.407    34 S    0.754
    34  16 S    5.265 --    35 O    1.722    37 O    1.718    36 O    1.012
                            33 C    0.754
    35   8 O    2.081 --    34 S    1.722    37 O    0.139
    36   8 O    2.087 --    34 S    1.012    61 H    0.827
    37   8 O    2.077 --    34 S    1.718    35 O    0.139
    38   6 C    3.989 --    39 C    1.451    33 C    1.407    62 H    0.967
                            31 C    0.106
    39   6 C    3.986 --    38 C    1.451    30 C    1.390    63 H    0.971
                            32 C    0.106
    40   6 C    3.929 --    29 C    1.321    44 N    1.318    41 C    1.115
    41   6 C    3.967 --    42 C    1.726    40 C    1.115    64 H    0.973
    42   6 C    3.967 --    41 C    1.726    43 C    1.114    65 H    0.975
    43   6 C    3.927 --     1 C    1.367    44 N    1.300    42 C    1.114
    44   7 N    3.018 --    40 C    1.318    43 C    1.300
    45   1 H    1.001 --     1 C    0.970
    46   1 H    0.997 --     3 C    0.976
    47   1 H    1.003 --     4 C    0.974
    48   1 H    0.986 --     6 N    0.873
    49   1 H    1.003 --     9 C    0.971
    50   1 H    0.999 --    10 C    0.967
    51   1 H    0.854 --    14 O    0.828
    52   1 H    0.999 --    16 C    0.967
    53   1 H    1.003 --    17 C    0.971
    54   1 H    1.004 --    19 C    0.973
    55   1 H    1.002 --    20 C    0.974
    56   1 H    1.002 --    25 C    0.975
    57   1 H    1.003 --    26 C    0.974
    58   1 H    0.986 --    28 N    0.872
    59   1 H    1.003 --    31 C    0.971
    60   1 H    0.999 --    32 C    0.967
    61   1 H    0.854 --    36 O    0.827
    62   1 H    0.999 --    38 C    0.967
    63   1 H    1.003 --    39 C    0.971
    64   1 H    1.003 --    41 C    0.973
    65   1 H    0.998 --    42 C    0.975
    66   6 C    3.931 --   108 C    1.366    67 C    1.349   110 H    0.970
    67   6 C    3.900 --    66 C    1.349    68 C    1.227    71 N    1.169
    68   6 C    3.955 --    69 C    1.600    67 C    1.227   111 H    0.976
    69   6 C    3.959 --    68 C    1.600    70 C    1.230   112 H    0.974
    70   6 C    3.899 --    72 C    1.307    69 C    1.230    71 N    1.178
    71   7 N    3.472 --    70 C    1.178    67 C    1.169   113 H    0.873
    72   6 C    3.938 --    83 C    1.327    70 C    1.307    73 C    1.032
    73   6 C    3.986 --    74 C    1.391    82 C    1.388    72 C    1.032
    74   6 C    3.986 --    75 C    1.449    73 C    1.391   114 H    0.971
                            81 C    0.105
    75   6 C    3.989 --    74 C    1.449    76 C    1.408   115 H    0.967
                            82 C    0.106
    76   6 C    3.929 --    75 C    1.408    81 C    1.406    77 S    0.754
    77  16 S    5.264 --    80 O    1.720    78 O    1.719    79 O    1.012
                            76 C    0.754
    78   8 O    2.078 --    77 S    1.719    80 O    0.139
    79   8 O    2.086 --    77 S    1.012   116 H    0.828
    80   8 O    2.079 --    77 S    1.720    78 O    0.139
    81   6 C    3.989 --    82 C    1.451    76 C    1.406   117 H    0.967
                            74 C    0.105
    82   6 C    3.986 --    81 C    1.451    73 C    1.388   118 H    0.971
                            75 C    0.106
    83   6 C    3.917 --    72 C    1.327    86 N    1.297    84 C    1.122
    84   6 C    3.967 --    85 C    1.713    83 C    1.122   119 H    0.974
    85   6 C    3.966 --    84 C    1.713    87 C    1.125   120 H    0.974
    86   7 N    3.023 --    87 C    1.330    83 C    1.297
    87   6 C    3.918 --    86 N    1.330    88 C    1.274    85 C    1.125
    88   6 C    3.939 --    87 C    1.274    89 C    1.267   134 C    1.153
    89   6 C    3.893 --    88 C    1.267    90 C    1.244    93 N    1.184
    90   6 C    3.959 --    91 C    1.587    89 C    1.244   121 H    0.975
    91   6 C    3.957 --    90 C    1.587    92 C    1.238   122 H    0.974
    92   6 C    3.899 --    94 C    1.308    91 C    1.238    93 N    1.170
    93   7 N    3.476 --    89 C    1.184    92 C    1.170   123 H    0.872
    94   6 C    3.927 --   105 C    1.321    92 C    1.308    95 C    1.031
    95   6 C    3.986 --   104 C    1.390    96 C    1.390    94 C    1.031
    96   6 C    3.985 --    97 C    1.450    95 C    1.390   124 H    0.971
                           103 C    0.106
    97   6 C    3.989 --    96 C    1.450    98 C    1.407   125 H    0.967
                           104 C    0.106
    98   6 C    3.930 --   103 C    1.407    97 C    1.407    99 S    0.754
    99  16 S    5.265 --   100 O    1.721   102 O    1.718   101 O    1.013
                            98 C    0.754
   100   8 O    2.080 --    99 S    1.721   102 O    0.139
   101   8 O    2.087 --    99 S    1.013   126 H    0.827
   102   8 O    2.077 --    99 S    1.718   100 O    0.139
   103   6 C    3.989 --   104 C    1.450    98 C    1.407   127 H    0.967
                            96 C    0.106
   104   6 C    3.986 --   103 C    1.450    95 C    1.390   128 H    0.971
                            97 C    0.106
   105   6 C    3.929 --    94 C    1.321   109 N    1.317   106 C    1.115
   106   6 C    3.967 --   107 C    1.726   105 C    1.115   129 H    0.973
   107   6 C    3.967 --   106 C    1.726   108 C    1.114   130 H    0.975
   108   6 C    3.927 --    66 C    1.366   109 N    1.300   107 C    1.114
   109   7 N    3.017 --   105 C    1.317   108 C    1.300
   110   1 H    1.001 --    66 C    0.970
   111   1 H    0.997 --    68 C    0.976
   112   1 H    1.003 --    69 C    0.974
   113   1 H    0.985 --    71 N    0.873
   114   1 H    1.003 --    74 C    0.971
   115   1 H    0.999 --    75 C    0.967
   116   1 H    0.854 --    79 O    0.828
   117   1 H    0.999 --    81 C    0.967
   118   1 H    1.003 --    82 C    0.971
   119   1 H    1.003 --    84 C    0.974
   120   1 H    1.003 --    85 C    0.974
   121   1 H    1.002 --    90 C    0.975
   122   1 H    1.003 --    91 C    0.974
   123   1 H    0.987 --    93 N    0.872
   124   1 H    1.003 --    96 C    0.971
   125   1 H    0.999 --    97 C    0.967
   126   1 H    0.854 --   101 O    0.827
   127   1 H    0.999 --   103 C    0.967
   128   1 H    1.003 --   104 C    0.971
   129   1 H    1.003 --   106 C    0.973
   130   1 H    0.998 --   107 C    0.975
   131   6 C    3.926 --   132 C    2.596    23 C    1.150
   132   6 C    3.929 --   131 C    2.596   135 C    1.151
   133   6 C    3.929 --   134 C    2.593   157 C    1.154
   134   6 C    3.927 --   133 C    2.593    88 C    1.153
   135   6 C    3.930 --   177 C    1.274   136 C    1.266   132 C    1.151
   136   6 C    3.894 --   135 C    1.266   137 C    1.245   140 N    1.183
   137   6 C    3.957 --   138 C    1.585   136 C    1.245   179 H    0.975
   138   6 C    3.958 --   137 C    1.585   139 C    1.240   180 H    0.974
   139   6 C    3.896 --   141 C    1.304   138 C    1.240   140 N    1.170
   140   7 N    3.473 --   136 C    1.183   139 C    1.170   181 H    0.873
   141   6 C    3.929 --   152 C    1.329   139 C    1.304   142 C    1.031
   142   6 C    3.986 --   151 C    1.392   143 C    1.389   141 C    1.031
   143   6 C    3.986 --   144 C    1.451   142 C    1.389   182 H    0.971
                           150 C    0.106
   144   6 C    3.989 --   143 C    1.451   145 C    1.406   183 H    0.967
                           151 C    0.106
   145   6 C    3.930 --   150 C    1.408   144 C    1.406   146 S    0.754
   146  16 S    5.266 --   147 O    1.726   149 O    1.715   148 O    1.013
                           145 C    0.754
   147   8 O    2.085 --   146 S    1.726   149 O    0.139
   148   8 O    2.087 --   146 S    1.013   184 H    0.828
   149   8 O    2.074 --   146 S    1.715   147 O    0.139
   150   6 C    3.989 --   151 C    1.449   145 C    1.408   185 H    0.967
                           143 C    0.106
   151   6 C    3.986 --   150 C    1.449   142 C    1.392   186 H    0.971
                           144 C    0.106
   152   6 C    3.919 --   141 C    1.329   155 N    1.296   153 C    1.122
   153   6 C    3.968 --   154 C    1.714   152 C    1.122   187 H    0.974
   154   6 C    3.966 --   153 C    1.714   156 C    1.126   188 H    0.974
   155   7 N    3.016 --   156 C    1.330   152 C    1.296
   156   6 C    3.918 --   155 N    1.330   157 C    1.274   154 C    1.126
   157   6 C    3.930 --   156 C    1.274   158 C    1.264   133 C    1.154
   158   6 C    3.893 --   157 C    1.264   159 C    1.247   162 N    1.184
   159   6 C    3.957 --   160 C    1.584   158 C    1.247   189 H    0.974
   160   6 C    3.957 --   159 C    1.584   161 C    1.241   190 H    0.974
   161   6 C    3.896 --   163 C    1.302   160 C    1.241   162 N    1.170
   162   7 N    3.473 --   158 C    1.184   161 C    1.170   191 H    0.873
   163   6 C    3.928 --   174 C    1.332   161 C    1.302   164 C    1.030
   164   6 C    3.986 --   165 C    1.391   173 C    1.390   163 C    1.030
   165   6 C    3.987 --   166 C    1.449   164 C    1.391   192 H    0.971
                           172 C    0.106
   166   6 C    3.989 --   165 C    1.449   167 C    1.408   193 H    0.967
                           173 C    0.106
   167   6 C    3.930 --   166 C    1.408   172 C    1.407   168 S    0.754
   168  16 S    5.266 --   169 O    1.725   171 O    1.715   170 O    1.014
                           167 C    0.754
   169   8 O    2.083 --   168 S    1.725   171 O    0.139
   170   8 O    2.088 --   168 S    1.014   194 H    0.827
   171   8 O    2.074 --   168 S    1.715   169 O    0.139
   172   6 C    3.989 --   173 C    1.450   167 C    1.407   195 H    0.967
                           165 C    0.106
   173   6 C    3.986 --   172 C    1.450   164 C    1.390   196 H    0.971
                           166 C    0.106
   174   6 C    3.919 --   163 C    1.332   178 N    1.293   175 C    1.122
   175   6 C    3.968 --   176 C    1.715   174 C    1.122   197 H    0.973
   176   6 C    3.966 --   175 C    1.715   177 C    1.125   198 H    0.974
   177   6 C    3.918 --   178 N    1.332   135 C    1.274   176 C    1.125
   178   7 N    3.014 --   177 C    1.332   174 C    1.293
   179   1 H    1.002 --   137 C    0.975
   180   1 H    1.004 --   138 C    0.974
   181   1 H    0.986 --   140 N    0.873
   182   1 H    1.003 --   143 C    0.971
   183   1 H    0.999 --   144 C    0.967
   184   1 H    0.854 --   148 O    0.828
   185   1 H    0.999 --   150 C    0.967
   186   1 H    1.003 --   151 C    0.971
   187   1 H    1.003 --   153 C    0.974
   188   1 H    1.003 --   154 C    0.974
   189   1 H    1.002 --   159 C    0.974
   190   1 H    1.003 --   160 C    0.974
   191   1 H    0.987 --   162 N    0.873
   192   1 H    1.003 --   165 C    0.971
   193   1 H    0.999 --   166 C    0.967
   194   1 H    0.854 --   170 O    0.827
   195   1 H    0.999 --   172 C    0.967
   196   1 H    1.003 --   173 C    0.971
   197   1 H    1.004 --   175 C    0.973
   198   1 H    1.002 --   176 C    0.974
 ---------------------------------------------------------------------------

           -------------------------------------------------
          | TOTAL ENERGY             -389.143237417390 Eh   |
          | GRADIENT NORM               0.000425281551 Eh/α |
          | HOMO-LUMO GAP               1.042786804427 eV   |
           -------------------------------------------------

 * finished run on 2022/07/31 at 16:34:33.277
