   * xtb version 6.5.1 (b24c23e) compiled by 'conda@728c89f4b128' on 2022-07-12
          program call               : xtb Ni_PhNH2_C8_3.xyz --gfn 1 --opt -T 48

   ID    Z sym.   atoms
    1   28 Ni     1, 61, 137
    2    6 C      2-6, 8-12, 14-18, 20-25, 27-31, 33-38, 62-66, 68-72, 74-78,
                  80-85, 87-91, 93-98, 121-136, 138-142, 144-148, 150-154,
                  156-161, 163-167, 169-174
    3    7 N      7, 13, 19, 26, 32, 39, 67, 73, 79, 86, 92, 99, 143, 149,
                  155, 162, 168, 175
    4    1 H      40-60, 100-120, 176-195

          :  Hamiltonian                  GFN1-xTB          :
 * total energy  :  -337.1976051 Eh     change       -0.9226255E-09 Eh
 * total energy  :  -338.9438300 Eh     change       -0.1746225E+01 Eh
 * total energy  :  -339.2748836 Eh     change       -0.3310536E+00 Eh
 * total energy  :  -339.4440138 Eh     change       -0.1691302E+00 Eh
 * total energy  :  -339.5658417 Eh     change       -0.1218280E+00 Eh
 * total energy  :  -339.6548917 Eh     change       -0.8904997E-01 Eh
 * total energy  :  -339.7063033 Eh     change       -0.5141158E-01 Eh
 * total energy  :  -339.7423427 Eh     change       -0.3603940E-01 Eh
 * total energy  :  -339.7658808 Eh     change       -0.2353809E-01 Eh
 * total energy  :  -339.7788616 Eh     change       -0.1298077E-01 Eh
 * total energy  :  -339.8056799 Eh     change       -0.4459458E-04 Eh
 * total energy  :  -339.8057181 Eh     change       -0.3824166E-04 Eh
 * total energy  :  -339.8057515 Eh     change       -0.3341892E-04 Eh
 * total energy  :  -339.8057757 Eh     change       -0.2421801E-04 Eh
 * total energy  :  -339.8057911 Eh     change       -0.1536725E-04 Eh
 * total energy  :  -339.8057997 Eh     change       -0.8574439E-05 Eh
 * total energy  :  -339.8058077 Eh     change       -0.8003812E-05 Eh
 * total energy  :  -339.8058140 Eh     change       -0.6310353E-05 Eh
 * total energy  :  -339.8058156 Eh     change       -0.1612767E-05 Eh
   *** GEOMETRY OPTIMIZATION CONVERGED AFTER 44 ITERATIONS ***

 final structure:
================
195
 xtb: 6.5.1 (b24c23e)
Ni          26.55869329628356        0.01338918499063        0.03005525997799
C           23.16903172241168        0.11005100971848        0.12322750164131
C           23.82919355503149        1.13766757839179       -0.51804124576548
C           23.16268289513363        2.21712430668578       -1.17892913021781
C           24.12748878737611        3.06695562021554       -1.60358586401469
C           25.38219943283687        2.51308146688518       -1.18720494569388
N           25.19074001014625        1.30886416373949       -0.55717539649864
C           26.60561394540573        3.15102226557021       -1.35603588169630
C           26.62724368083061        4.50701710672837       -1.95141849554854
C           27.32415485574428        4.75420758815320       -3.13659601380936
C           27.34422740219388        6.01913787805419       -3.69673055584163
C           26.67711460905849        7.07459138549676       -3.06948542018415
N           26.66283259450265        8.33243144826329       -3.64639450180913
C           25.97511216691420        6.83462631503064       -1.88535854278305
C           25.95111462906388        5.56434938066946       -1.33776695912635
C           27.80837025709742        2.56746004748772       -0.97882548718075
C           29.07572027822838        3.22538643581933       -1.07498538402708
C           30.01539441152737        2.32331257869833       -0.70160722600289
N           27.96876537508255        1.28338520310708       -0.50737410473539
C           29.31991931011705        1.12137833843860       -0.36987081678644
C           29.96934280854648       -0.06918496514491       -0.02930143453573
C           29.27604695194052       -1.23045565230149        0.32517112693248
C           29.92355035219583       -2.46806679473068        0.62048351237386
C           28.95378340652747       -3.33030163465874        1.01102740569164
C           27.71723061796855       -2.61102840800922        0.96623839725568
N           27.92383262116907       -1.32991355660933        0.50436818715348
C           26.50237798135533       -3.13674956962142        1.38699728863684
C           26.47553845098734       -4.49915829575673        1.96745019799781
C           27.20658616282047       -4.79799400200551        3.11969957677249
C           27.17709887172710       -6.06758038172631        3.66875574427270
C           26.42380705949256       -7.07647013877246        3.06281304574177
N           26.36023117353662       -8.33680457595702        3.63078186534963
C           25.68749798563615       -6.78461028054602        1.91160353217371
C           25.71380860774804       -5.50955332726478        1.37534998806696
C           25.30918500105808       -2.43057063283992        1.28601664165836
C           24.04951853225557       -2.91724213004906        1.76655952150793
C           23.11406062944316       -2.00575373786861        1.40958926148447
C           23.80402682464276       -0.95822820966589        0.72190550981690
N           25.15328067040104       -1.20885212614424        0.68067196179059
H           22.08612177641533        0.14198490340593        0.15529567147899
H           22.09339345793654        2.29550248102612       -1.29560496127967
H           24.01254635160894        3.98654551893208       -2.15403619108273
H           27.83822969616066        3.93852316382324       -3.63318026737564
H           27.87893862603441        6.19634255226785       -4.62349629838530
H           27.42460145860052        8.52006000672673       -4.27846598523704
H           26.46408430755382        9.08967812823431       -3.01225586349626
H           25.45291637340909        7.64919842324511       -1.39543952807075
H           25.41886593239031        5.38981792523549       -0.40905273316970
H           29.21816546798886        4.24856904531461       -1.38218482707372
H           31.08523336462707        2.44617844205247       -0.65064594107740
H           30.98424114036472       -2.64032385059434        0.53325796616987
H           29.05651893680130       -4.36356922026079        1.29984975390723
H           27.78683887236605       -4.01809434746257        3.60060004694270
H           27.73889496606899       -6.28440084096242        4.57074206189673
H           27.13548943988863       -8.57464936174240        4.22862807968866
H           26.09031482308431       -9.07510695755671        3.00064361550119
H           25.09825266718899       -7.56271431775265        1.43872979617854
H           25.15278984560992       -5.29486205227293        0.47233535609559
H           23.91206137405790       -3.83691770290755        2.31167323172117
H           22.05045953332003       -2.02336774109247        1.58728753532309
Ni          63.69233084841262       -0.01054171669091        0.03175676421951
C           67.08219900241248        0.01639409523980        0.16978828033536
C           66.42180510735113       -1.08539664032430        0.67264042089679
C           67.08833533850400       -2.23065195874103        1.21148813609863
C           66.12342039507924       -3.05335564567583        1.68625025369407
C           64.86847640207780       -2.40231187198010        1.44995885768073
N           65.06011994740479       -1.21338982017688        0.79167048663797
C           63.64428186917854       -2.89755858405624        1.88393910626998
C           63.62313736575957       -4.14093740371167        2.68837870583522
C           62.93120571386204       -5.26876956966915        2.24041524862956
C           62.91252951840713       -6.43266034069439        2.98823084633593
C           63.57643154507310       -6.48791649874230        4.21651205400288
N           63.59245407686937       -7.66188755864300        4.94900586221065
C           64.27368666456147       -5.36502116768184        4.66985883517575
C           64.29603065708085       -4.20855873195897        3.91084951992660
C           62.44086027354867       -2.26566143648035        1.59732996637691
C           61.17205654477653       -2.71435647876048        2.08433792429424
C           60.23262465529677       -1.90926266713128        1.53170565729100
N           62.28127981534839       -1.16447443070458        0.78571385394525
C           60.92954196617453       -0.96565548062664        0.71796386047045
C           60.28160546359942       -0.02299676953040       -0.08611068837274
C           60.97620675765560        0.91925372615465       -0.85048976677810
C           60.33006197042314        1.85159783607083       -1.71744811828357
C           61.30001752454744        2.65764101628192       -2.21318564094267
C           62.53532765952809        2.22273705975119       -1.63579175167607
N           62.32791590028381        1.12649673672853       -0.82820347810497
C           63.74990199693344        2.86596759314072       -1.83645216521829
C           63.77715358986710        4.10412367383626       -2.64896838345491
C           63.04597570649072        5.22896952114249       -2.25989507441502
C           63.07459807158004        6.38876448017207       -3.01375175859097
C           63.82697683514862        6.44231163020053       -4.18998211186237
N           63.88892065991380        7.61241139083258       -4.92629989106830
C           64.56392429964281        5.32234205108412       -4.58390318874949
C           64.53857231328092        4.17024579483164       -3.81837129960164
C           64.94248370019444        2.39121330028940       -1.30294167069250
C           66.20200324813302        3.06148187281921       -1.44051610970030
C           67.13736676040230        2.25905301106080       -0.87975854006634
C           66.44734581377135        1.10580195734452       -0.38963292271996
N           65.09823255338850        1.20994855518855       -0.62194845903698
H           68.16507133281968        0.02569134689186        0.21494010225484
H           68.15774005545676       -2.37031622295279        1.21455916455265
H           66.23855201527672       -4.01870364997764        2.15174181983839
H           62.42011805676998       -5.23629605239137        1.28440969865169
H           62.38159409722772       -7.30561226838157        2.62451236597610
H           62.83347174710681       -8.29554234148290        4.75560005884253
H           63.78869441164220       -7.54911261953057        5.93073730654847
H           64.79360792396312       -5.40276210625873        5.62091043365973
H           64.82459979308267       -3.33551925405731        4.27785426311906
H           61.02839086445808       -3.53576124570461        2.76712760805440
H           59.16203898684793       -1.93923918439291        1.65501330970287
H           59.27008935297325        1.87266442404410       -1.91331823213724
H           61.19832489102325        3.47209745565022       -2.91170168947748
H           62.46607362254065        5.19769141282849       -1.34395513997337
H           62.51260452563255        7.25984940737418       -2.69503908332365
H           63.11297826518184        8.24115818744627       -4.79357827785410
H           64.15806714455346        7.49550807381650       -5.89011451788515
H           65.15269999015300        5.35917762675304       -5.49398268112158
H           65.09997377062959        3.29953569706963       -4.13924253782721
H           66.33930095105389        4.02527279256298       -1.90323634384473
H           68.20087677554075        2.41693974132776       -0.79517692693778
C           31.37318207406861       -0.09760113763505       -0.04644121535773
C           32.59749506826130       -0.11056841408160       -0.06249918516827
C           33.94037913773889       -0.12096490915246       -0.07335739400210
C           35.17103739638659       -0.11966072930522       -0.08328622005678
C           36.50916777258390       -0.11343457130678       -0.08903227661664
C           37.73986361563684       -0.10269587502195       -0.08994908027120
C           39.08259362772305       -0.09050879342198       -0.08364423512262
C           40.30707125540750       -0.07503369102098       -0.07070220554821
C           49.94341739200649       -0.03715445062827       -0.08288801967672
C           51.16767021026030       -0.03787118870111       -0.11195676078914
C           52.51051738791726       -0.03524994174835       -0.13632758770571
C           53.74106650427562       -0.03164951473870       -0.15381479044859
C           55.07950079399490       -0.03283297642877       -0.16014065899744
C           56.31012763207244       -0.02892822641404       -0.15671148706754
C           57.65331413040096       -0.02541736397578       -0.14402038904712
C           58.87756116082248       -0.02258583652185       -0.12485201733844
Ni          45.12511453019913       -0.03371117423754        0.00202819209541
C           41.71057092586310       -0.06144333658212       -0.05137881063505
C           42.38125930391993        1.06129505113955       -0.54673386863596
C           41.70512883186313        2.20734218294533       -1.06395451754277
C           42.65425083147052        3.14607717923692       -1.29667827878395
C           43.91036525739530        2.56402073364045       -0.93520367830347
N           43.73171073373693        1.27103062168866       -0.49583429619614
C           45.11179692670246        3.26086998553661       -0.92711907015087
C           45.10891837519225        4.69277484048677       -1.31402142110574
C           44.77741187688869        5.07931621959850       -2.61401631584936
C           44.78479090737942        6.41410816427527       -2.97924787461025
C           45.12381841338080        7.39522089096771       -2.04403879231179
N           45.08722255674571        8.73422888272759       -2.39267184150446
C           45.44326661428531        7.01611478539786       -0.73775364077591
C           45.44224564576425        5.67857808371411       -0.38304441255645
C           46.32093462382571        2.67052436181812       -0.58232437225823
C           47.57669556566060        3.35562970293018       -0.61729193152154
C           48.53641038046187        2.42832921624228       -0.38200916399506
N           46.51030849105086        1.33546980641541       -0.30229461457711
C           47.86552514381217        1.18078576875469       -0.20556830903956
C           48.53997768212115       -0.03390440764438       -0.04533439813707
C           47.86914427565316       -1.24328837992927        0.16226070832456
C           48.53962873072057       -2.49419147424730        0.31282969032478
C           47.58841066075285       -3.41021600577950        0.61904936858977
C           46.34041404351844       -2.71231310189637        0.66150254850465
N           46.52016274872982       -1.38688856381477        0.33602117565911
C           45.13680021399674       -3.29919863719813        1.03345767744450
C           45.14420711936897       -4.70921558883918        1.48454650920544
C           44.39611536131093       -5.67709192893386        0.80943065185625
C           44.40864201076781       -6.99768139002333        1.22102747249286
C           45.17179158366032       -7.38036297549731        2.32739959605332
N           45.14957431653604       -8.69062153713169        2.77052410446395
C           45.91117889524647       -6.41548431723710        3.01674640820325
C           45.90165801670825       -5.09896760037001        2.59196335634030
C           43.92671530542846       -2.61836550898752        0.98440815383106
C           42.67678977541001       -3.18156059743071        1.39336792765953
C           41.71696259683029       -2.28027357266910        1.07113935620169
C           42.38486279948359       -1.16322405625267        0.48528049422678
N           43.73852048141464       -1.35458094105255        0.47041807348259
H           40.63872640445471        2.27688941088269       -1.20609347219693
H           42.52200594559397        4.15022928528195       -1.66479100751755
H           44.53051010213474        4.32200803478093       -3.34999815141267
H           44.53190343737375        6.70261786982047       -3.99363689394627
H           45.17972015803964        8.91998187077919       -3.37860172413201
H           45.64267822593262        9.34078160334196       -1.81074383561505
H           45.69402556614730        7.77420259540704       -0.00385480293892
H           45.68576724635489        5.39166238531530        0.63407826715776
H           47.70087425019593        4.40707518481764       -0.81839171125160
H           49.60559399425335        2.56011864547066       -0.34049072274834
H           49.60200270990398       -2.63762500710523        0.19854202061414
H           47.71155371980130       -4.46649212876824        0.79411834880162
H           43.81646388767979       -5.39168645253208       -0.06162492855828
H           43.83002088414256       -7.74127378477146        0.68393974795519
H           45.93990331060682       -8.96545861354591        3.33148997858004
H           44.88435877955802       -9.37151607570508        2.07704543265971
H           46.49363470342265       -6.70369544902927        3.88500307827802
H           46.47195627725661       -4.35460766598988        3.13685164253725
H           42.55766965816860       -4.14119957244384        1.86909859227528
H           40.65083558547786       -2.35016172767226        1.21503984945001

          :  Hamiltonian                  GFN1-xTB          :
         :: total energy            -339.805815603616 Eh    ::
         :: gradient norm              0.000653741961 Eh/a0 ::
         :: HOMO-LUMO gap              1.008436563019 eV    ::
         :: SCC energy              -345.480772655116 Eh    ::
         :: repulsion energy           5.846393754762 Eh    ::

    * Orbital Energies and Occupations

         #    Occupation            Energy/Eh            Energy/eV
      -------------------------------------------------------------
         1        2.0000           -0.7800811             -21.2271
       ...           ...                  ...                  ...
       303        2.0000           -0.3914556             -10.6520
       304        2.0000           -0.3912020             -10.6451
       305        2.0000           -0.3910661             -10.6415
       306        2.0000           -0.3908966             -10.6368
       307        2.0000           -0.3906151             -10.6292
       308        2.0000           -0.3902462             -10.6191
       309        2.0000           -0.3895424             -10.6000
       310        2.0000           -0.3894944             -10.5987
       311        2.0000           -0.3891701             -10.5899
       312        2.0000           -0.3891225             -10.5886
       313        2.0000           -0.3836217             -10.4389
       314        2.0000           -0.3797092             -10.3324
       315        2.0000           -0.3745833             -10.1929 (HOMO)
       316                         -0.3375239              -9.1845 (LUMO)
       317                         -0.3294601              -8.9651
       318                         -0.3246527              -8.8342
       319                         -0.3237554              -8.8098
       320                         -0.3222723              -8.7695
       321                         -0.3220158              -8.7625
       322                         -0.3216436              -8.7524
       323                         -0.3216410              -8.7523
       324                         -0.3212227              -8.7409
       325                         -0.3032552              -8.2520
       326                         -0.2957052              -8.0465
       ...                                ...                  ...
       671                          1.6104853              43.8235
      -------------------------------------------------------------
                  HL-Gap            0.0370594 Eh            1.0084 eV

Wiberg/Mayer (AO) data.
largest (>0.10) Wiberg bond orders for each atom

     #   Z sym  total        # sym  WBO       # sym  WBO       # sym  WBO
 ---------------------------------------------------------------------------
     1  28 Ni   3.015 --    39 N    0.664     7 N    0.664    19 N    0.662
                            26 N    0.661
     2   6 C    3.932 --    38 C    1.363     3 C    1.363    40 H    0.970
     3   6 C    3.924 --     2 C    1.363     7 N    1.212     4 C    1.177
     4   6 C    3.959 --     5 C    1.645     3 C    1.177    41 H    0.975
     5   6 C    3.963 --     4 C    1.645     6 C    1.179    42 H    0.973
     6   6 C    3.918 --     8 C    1.318     7 N    1.222     5 C    1.179
     7   7 N    3.401 --     6 C    1.222     3 C    1.212     1 Ni   0.664
     8   6 C    3.939 --    16 C    1.327     6 C    1.318     9 C    1.032
     9   6 C    3.988 --    10 C    1.381    15 C    1.381     8 C    1.032
    10   6 C    3.988 --    11 C    1.469     9 C    1.381    43 H    0.973
    11   6 C    3.990 --    10 C    1.469    12 C    1.354    44 H    0.972
    12   6 C    3.952 --    11 C    1.354    14 C    1.354    13 N    1.116
    13   7 N    3.135 --    12 C    1.116    46 H    0.933    45 H    0.933
    14   6 C    3.990 --    15 C    1.469    12 C    1.354    47 H    0.972
    15   6 C    3.988 --    14 C    1.469     9 C    1.381    48 H    0.973
    16   6 C    3.914 --     8 C    1.327    19 N    1.205    17 C    1.186
    17   6 C    3.959 --    18 C    1.633    16 C    1.186    49 H    0.973
    18   6 C    3.961 --    17 C    1.633    20 C    1.193    50 H    0.973
    19   7 N    3.404 --    20 C    1.239    16 C    1.205     1 Ni   0.662
    20   6 C    3.904 --    21 C    1.260    19 N    1.239    18 C    1.193
    21   6 C    3.942 --    22 C    1.260    20 C    1.260   121 C    1.188
    22   6 C    3.904 --    21 C    1.260    26 N    1.240    23 C    1.194
    23   6 C    3.961 --    24 C    1.633    22 C    1.194    51 H    0.973
    24   6 C    3.959 --    23 C    1.633    25 C    1.186    52 H    0.973
    25   6 C    3.914 --    27 C    1.328    26 N    1.204    24 C    1.186
    26   7 N    3.404 --    22 C    1.240    25 C    1.204     1 Ni   0.661
    27   6 C    3.939 --    25 C    1.328    35 C    1.318    28 C    1.032
    28   6 C    3.988 --    29 C    1.381    34 C    1.381    27 C    1.032
    29   6 C    3.988 --    30 C    1.469    28 C    1.381    53 H    0.973
    30   6 C    3.990 --    29 C    1.469    31 C    1.354    54 H    0.972
    31   6 C    3.952 --    30 C    1.354    33 C    1.354    32 N    1.117
    32   7 N    3.135 --    31 C    1.117    56 H    0.933    55 H    0.933
    33   6 C    3.989 --    34 C    1.469    31 C    1.354    57 H    0.972
    34   6 C    3.988 --    33 C    1.469    28 C    1.381    58 H    0.973
    35   6 C    3.918 --    27 C    1.318    39 N    1.223    36 C    1.179
    36   6 C    3.963 --    37 C    1.645    35 C    1.179    59 H    0.973
    37   6 C    3.959 --    36 C    1.645    38 C    1.177    60 H    0.975
    38   6 C    3.924 --     2 C    1.363    39 N    1.212    37 C    1.177
    39   7 N    3.401 --    35 C    1.223    38 C    1.212     1 Ni   0.664
    40   1 H    1.001 --     2 C    0.970
    41   1 H    0.998 --     4 C    0.975
    42   1 H    1.005 --     5 C    0.973
    43   1 H    1.005 --    10 C    0.973
    44   1 H    0.998 --    11 C    0.972
    45   1 H    0.960 --    13 N    0.933
    46   1 H    0.960 --    13 N    0.933
    47   1 H    0.999 --    14 C    0.972
    48   1 H    1.005 --    15 C    0.973
    49   1 H    1.005 --    17 C    0.973
    50   1 H    1.002 --    18 C    0.973
    51   1 H    1.002 --    23 C    0.973
    52   1 H    1.005 --    24 C    0.973
    53   1 H    1.005 --    29 C    0.973
    54   1 H    0.998 --    30 C    0.972
    55   1 H    0.960 --    32 N    0.933
    56   1 H    0.960 --    32 N    0.933
    57   1 H    0.999 --    33 C    0.972
    58   1 H    1.005 --    34 C    0.973
    59   1 H    1.005 --    36 C    0.973
    60   1 H    0.998 --    37 C    0.975
    61  28 Ni   3.014 --    99 N    0.664    67 N    0.664    79 N    0.662
                            86 N    0.661
    62   6 C    3.932 --    98 C    1.363    63 C    1.363   100 H    0.970
    63   6 C    3.924 --    62 C    1.363    67 N    1.212    64 C    1.177
    64   6 C    3.959 --    65 C    1.645    63 C    1.177   101 H    0.975
    65   6 C    3.963 --    64 C    1.645    66 C    1.179   102 H    0.973
    66   6 C    3.918 --    68 C    1.318    67 N    1.222    65 C    1.179
    67   7 N    3.401 --    66 C    1.222    63 C    1.212    61 Ni   0.664
    68   6 C    3.939 --    76 C    1.327    66 C    1.318    69 C    1.032
    69   6 C    3.988 --    70 C    1.381    75 C    1.381    68 C    1.032
    70   6 C    3.988 --    71 C    1.469    69 C    1.381   103 H    0.973
    71   6 C    3.990 --    70 C    1.469    72 C    1.354   104 H    0.972
    72   6 C    3.952 --    71 C    1.354    74 C    1.354    73 N    1.117
    73   7 N    3.135 --    72 C    1.117   106 H    0.933   105 H    0.933
    74   6 C    3.990 --    75 C    1.469    72 C    1.354   107 H    0.972
    75   6 C    3.988 --    74 C    1.469    69 C    1.381   108 H    0.973
    76   6 C    3.914 --    68 C    1.327    79 N    1.205    77 C    1.186
    77   6 C    3.959 --    78 C    1.633    76 C    1.186   109 H    0.973
    78   6 C    3.961 --    77 C    1.633    80 C    1.193   110 H    0.973
    79   7 N    3.404 --    80 C    1.239    76 C    1.205    61 Ni   0.662
    80   6 C    3.904 --    81 C    1.261    79 N    1.239    78 C    1.193
    81   6 C    3.942 --    82 C    1.261    80 C    1.261   136 C    1.187
    82   6 C    3.904 --    81 C    1.261    86 N    1.239    83 C    1.193
    83   6 C    3.961 --    84 C    1.633    82 C    1.193   111 H    0.973
    84   6 C    3.959 --    83 C    1.633    85 C    1.186   112 H    0.973
    85   6 C    3.914 --    87 C    1.328    86 N    1.205    84 C    1.186
    86   7 N    3.404 --    82 C    1.239    85 C    1.205    61 Ni   0.661
    87   6 C    3.939 --    85 C    1.328    95 C    1.318    88 C    1.031
    88   6 C    3.988 --    89 C    1.381    94 C    1.381    87 C    1.031
    89   6 C    3.988 --    90 C    1.469    88 C    1.381   113 H    0.973
    90   6 C    3.990 --    89 C    1.469    91 C    1.354   114 H    0.972
    91   6 C    3.952 --    90 C    1.354    93 C    1.354    92 N    1.116
    92   7 N    3.135 --    91 C    1.116   116 H    0.933   115 H    0.933
    93   6 C    3.990 --    94 C    1.469    91 C    1.354   117 H    0.972
    94   6 C    3.988 --    93 C    1.469    88 C    1.381   118 H    0.973
    95   6 C    3.918 --    87 C    1.318    99 N    1.222    96 C    1.179
    96   6 C    3.963 --    97 C    1.646    95 C    1.179   119 H    0.973
    97   6 C    3.959 --    96 C    1.646    98 C    1.177   120 H    0.975
    98   6 C    3.924 --    62 C    1.363    99 N    1.212    97 C    1.177
    99   7 N    3.401 --    95 C    1.222    98 C    1.212    61 Ni   0.664
   100   1 H    1.001 --    62 C    0.970
   101   1 H    0.998 --    64 C    0.975
   102   1 H    1.005 --    65 C    0.973
   103   1 H    1.005 --    70 C    0.973
   104   1 H    0.998 --    71 C    0.972
   105   1 H    0.960 --    73 N    0.933
   106   1 H    0.960 --    73 N    0.933
   107   1 H    0.998 --    74 C    0.972
   108   1 H    1.005 --    75 C    0.973
   109   1 H    1.005 --    77 C    0.973
   110   1 H    1.002 --    78 C    0.973
   111   1 H    1.002 --    83 C    0.973
   112   1 H    1.005 --    84 C    0.973
   113   1 H    1.005 --    89 C    0.973
   114   1 H    0.998 --    90 C    0.972
   115   1 H    0.960 --    92 N    0.933
   116   1 H    0.960 --    92 N    0.933
   117   1 H    0.998 --    93 C    0.972
   118   1 H    1.005 --    94 C    0.973
   119   1 H    1.005 --    96 C    0.973
   120   1 H    0.998 --    97 C    0.975
   121   6 C    3.877 --   122 C    2.442    21 C    1.188   124 C    0.187
   122   6 C    3.937 --   121 C    2.442   123 C    1.343
   123   6 C    3.893 --   124 C    2.338   122 C    1.343   126 C    0.183
   124   6 C    3.927 --   123 C    2.338   125 C    1.368   121 C    0.187
   125   6 C    3.926 --   126 C    2.337   124 C    1.368   128 C    0.187
   126   6 C    3.894 --   125 C    2.337   127 C    1.344   123 C    0.183
   127   6 C    3.934 --   128 C    2.440   126 C    1.344
   128   6 C    3.877 --   127 C    2.440   138 C    1.190   125 C    0.187
   129   6 C    3.877 --   130 C    2.441   157 C    1.189   132 C    0.187
   130   6 C    3.934 --   129 C    2.441   131 C    1.343
   131   6 C    3.894 --   132 C    2.338   130 C    1.343   134 C    0.183
   132   6 C    3.925 --   131 C    2.338   133 C    1.367   129 C    0.187
   133   6 C    3.927 --   134 C    2.339   132 C    1.367   136 C    0.187
   134   6 C    3.893 --   133 C    2.339   135 C    1.342   131 C    0.183
   135   6 C    3.937 --   136 C    2.443   134 C    1.342
   136   6 C    3.877 --   135 C    2.443    81 C    1.187   133 C    0.187
   137  28 Ni   3.005 --   155 N    0.662   143 N    0.661   175 N    0.661
                           162 N    0.661
   138   6 C    3.931 --   139 C    1.259   174 C    1.257   128 C    1.190
   139   6 C    3.904 --   138 C    1.259   143 N    1.240   140 C    1.193
   140   6 C    3.959 --   141 C    1.632   139 C    1.193   176 H    0.973
   141   6 C    3.960 --   140 C    1.632   142 C    1.187   177 H    0.972
   142   6 C    3.911 --   144 C    1.326   143 N    1.204   141 C    1.187
   143   7 N    3.400 --   139 C    1.240   142 C    1.204   137 Ni   0.661
   144   6 C    3.934 --   152 C    1.326   142 C    1.326   145 C    1.024
   145   6 C    3.988 --   146 C    1.384   151 C    1.384   144 C    1.024
   146   6 C    3.989 --   147 C    1.467   145 C    1.384   178 H    0.973
                           150 C    0.100
   147   6 C    3.990 --   146 C    1.467   148 C    1.355   179 H    0.972
                           151 C    0.101
   148   6 C    3.954 --   147 C    1.355   150 C    1.355   149 N    1.116
   149   7 N    3.135 --   148 C    1.116   180 H    0.933   181 H    0.933
   150   6 C    3.990 --   151 C    1.467   148 C    1.355   182 H    0.972
                           146 C    0.100
   151   6 C    3.989 --   150 C    1.467   145 C    1.384   183 H    0.973
                           147 C    0.101
   152   6 C    3.911 --   144 C    1.326   155 N    1.204   153 C    1.187
   153   6 C    3.960 --   154 C    1.632   152 C    1.187   184 H    0.973
   154   6 C    3.959 --   153 C    1.632   156 C    1.194   185 H    0.973
   155   7 N    3.400 --   156 C    1.240   152 C    1.204   137 Ni   0.662
   156   6 C    3.904 --   157 C    1.258   155 N    1.240   154 C    1.194
   157   6 C    3.932 --   158 C    1.258   156 C    1.258   129 C    1.189
   158   6 C    3.904 --   157 C    1.258   162 N    1.239   159 C    1.195
   159   6 C    3.959 --   160 C    1.629   158 C    1.195   186 H    0.973
   160   6 C    3.960 --   159 C    1.629   161 C    1.189   187 H    0.973
   161   6 C    3.911 --   163 C    1.321   162 N    1.206   160 C    1.189
   162   7 N    3.399 --   158 C    1.239   161 C    1.206   137 Ni   0.661
   163   6 C    3.934 --   171 C    1.323   161 C    1.321   164 C    1.034
   164   6 C    3.987 --   170 C    1.380   165 C    1.379   163 C    1.034
   165   6 C    3.988 --   166 C    1.470   164 C    1.379   188 H    0.973
   166   6 C    3.989 --   165 C    1.470   167 C    1.353   189 H    0.972
   167   6 C    3.952 --   169 C    1.353   166 C    1.353   168 N    1.118
   168   7 N    3.136 --   167 C    1.118   191 H    0.933   190 H    0.933
   169   6 C    3.989 --   170 C    1.470   167 C    1.353   192 H    0.972
   170   6 C    3.988 --   169 C    1.470   164 C    1.380   193 H    0.973
   171   6 C    3.911 --   163 C    1.323   175 N    1.203   172 C    1.188
   172   6 C    3.960 --   173 C    1.630   171 C    1.188   194 H    0.972
   173   6 C    3.959 --   172 C    1.630   174 C    1.195   195 H    0.973
   174   6 C    3.904 --   138 C    1.257   175 N    1.241   173 C    1.195
   175   7 N    3.399 --   174 C    1.241   171 C    1.203   137 Ni   0.661
   176   1 H    1.002 --   140 C    0.973
   177   1 H    1.005 --   141 C    0.972
   178   1 H    1.004 --   146 C    0.973
   179   1 H    0.998 --   147 C    0.972
   180   1 H    0.961 --   149 N    0.933
   181   1 H    0.960 --   149 N    0.933
   182   1 H    0.998 --   150 C    0.972
   183   1 H    1.004 --   151 C    0.973
   184   1 H    1.006 --   153 C    0.973
   185   1 H    1.002 --   154 C    0.973
   186   1 H    1.002 --   159 C    0.973
   187   1 H    1.005 --   160 C    0.973
   188   1 H    1.005 --   165 C    0.973
   189   1 H    0.998 --   166 C    0.972
   190   1 H    0.960 --   168 N    0.933
   191   1 H    0.960 --   168 N    0.933
   192   1 H    0.998 --   169 C    0.972
   193   1 H    1.005 --   170 C    0.973
   194   1 H    1.005 --   172 C    0.972
   195   1 H    1.002 --   173 C    0.973
 ---------------------------------------------------------------------------

           -------------------------------------------------
          | TOTAL ENERGY             -339.805815603616 Eh   |
          | GRADIENT NORM               0.000653741961 Eh/α |
          | HOMO-LUMO GAP               1.008436563019 eV   |
           -------------------------------------------------

 * finished run on 2022/07/30 at 04:35:21.914
