   * xtb version 6.5.1 (b24c23e) compiled by 'conda@728c89f4b128' on 2022-07-12
          program call               : xtb Ni_p-CP_C6_3.xyz --gfn 1 --opt -T 48

   ID    Z sym.   atoms
    1   28 Ni     1, 63, 137
    2    6 C      2-6, 8-11, 13-24, 27-32, 35-39, 42, 43, 64-68, 70-73,
                  75-86, 89-94, 97-101, 104, 105, 125-136, 138-142, 144-147,
                  149-160, 163-168, 171-175, 178, 179
    3    7 N      7, 12, 33, 34, 69, 74, 95, 96, 143, 148, 169, 170
    4    8 O      25, 26, 40, 41, 87, 88, 102, 103, 161, 162, 176, 177
    5    1 H      44-62, 106-124, 180-197

          :  Hamiltonian                  GFN1-xTB          :
 * total energy  :  -377.2051733 Eh     change       -0.1186771E-07 Eh
 * total energy  :  -377.6462870 Eh     change       -0.4411138E+00 Eh
 * total energy  :  -377.8016453 Eh     change       -0.1553582E+00 Eh
 * total energy  :  -377.9117846 Eh     change       -0.1101393E+00 Eh
 * total energy  :  -377.9835745 Eh     change       -0.7178994E-01 Eh
 * total energy  :  -378.0226749 Eh     change       -0.3910034E-01 Eh
 * total energy  :  -378.0479249 Eh     change       -0.2525002E-01 Eh
 * total energy  :  -378.0641889 Eh     change       -0.1626399E-01 Eh
 * total energy  :  -378.0736945 Eh     change       -0.9505655E-02 Eh
 * total energy  :  -378.0814442 Eh     change       -0.7749652E-02 Eh
 * total energy  :  -378.1164872 Eh     change       -0.8635280E-05 Eh
 * total energy  :  -378.1165000 Eh     change       -0.1275637E-04 Eh
 * total energy  :  -378.1164987 Eh     change        0.1247031E-05 Eh
 * total energy  :  -378.1165078 Eh     change       -0.9076318E-05 Eh
 * total energy  :  -378.1165136 Eh     change       -0.5855951E-05 Eh
 * total energy  :  -378.1165204 Eh     change       -0.6744190E-05 Eh
 * total energy  :  -378.1165278 Eh     change       -0.7384041E-05 Eh
 * total energy  :  -378.1165328 Eh     change       -0.5042075E-05 Eh
 * total energy  :  -378.1165355 Eh     change       -0.2716369E-05 Eh
   *** GEOMETRY OPTIMIZATION CONVERGED AFTER 64 ITERATIONS ***

 final structure:
================
197
 xtb: 6.5.1 (b24c23e)
Ni          33.42679193072583       -0.04628556055765        0.00831740761514
C           30.03267884681455       -0.12812898629301        0.03199150607475
C           30.69146643611957       -0.26257366931083        1.23594675112092
C           30.01765031056943       -0.42053508431872        2.48872068430522
C           30.97419057049231       -0.42521966375495        3.44562339500243
C           32.23338237186270       -0.27978627140769        2.77489050357872
N           32.05017387775531       -0.19303212868237        1.41759559061105
C           33.44921538091202       -0.15665582865222        3.43398953265748
C           34.65619864054673        0.00103814872310        2.76670963461271
C           35.92167940937627        0.09397842180920        3.42999735310526
C           36.86858305538486        0.13009713458962        2.46267059566752
N           34.82724468467228       -0.00853943815465        1.40085735084166
C           36.18098126508892        0.05371764046116        1.21294263381787
C           36.84147636175842       -0.01425388107949       -0.01600336369743
C           36.16330506844395       -0.08201796571936       -1.23511964280755
C           36.83152279366728       -0.16796925168491       -2.49459849878610
C           35.87034553415836       -0.12721660600966       -3.44784546330284
C           34.61686961659876       -0.01021976656471       -2.76601491679228
C           33.39597799714343        0.11082075233803       -3.41646038184142
C           33.38729096536638        0.19184030565350       -4.89610751180948
C           32.75471215387344       -0.79477460890196       -5.65670153551714
C           32.75065536813428       -0.71523975170142       -7.03718507664533
C           33.37444494751779        0.35437189223158       -7.68220043279670
C           33.34057137389441        0.39726148857892       -9.16382263131321
O           33.97175462504944        1.46040008040427       -9.68461743811194
O           32.80459134954403       -0.43027366455195       -9.85617410372655
C           34.00582846246672        1.34300881160567       -6.92683909949629
C           34.01316878179470        1.25871881367501       -5.54554439366226
C           32.18440767031599        0.15499714574739       -2.73927127333803
C           30.91273243281736        0.30433214570815       -3.38491650063257
C           29.97053687536903        0.22593657324103       -2.41678528193652
C           30.66734917302452        0.04468868842658       -1.17999890941382
N           32.02482917805217        0.02992928373867       -1.38203400585248
N           34.80686742753391       -0.01609907353939       -1.40302431587597
C           33.45980274499001       -0.20566422690485        4.91628588467296
C           33.10610922264060       -1.38082478459270        5.58350144492289
C           33.11988493519276       -1.42858564402641        6.96536632911660
C           33.48239592762684       -0.30096017807155        7.70442322117980
C           33.47996749926695       -0.40144861723208        9.18370577182104
O           33.83984871550150        0.73466617933319        9.79976110951001
O           33.18743259757870       -1.39619774038595        9.79708783543348
C           33.83347606469168        0.87560041029770        7.04198925470533
C           33.82395124558301        0.91979584945501        5.65852214054230
H           28.94919878433349       -0.14996398853145        0.04012125181966
H           28.94832085640111       -0.50244923681140        2.60103594764571
H           30.85094538772464       -0.50537250853883        4.51336734778675
H           36.05842292896782        0.11217979188266        4.49877763809354
H           37.93946598596761        0.19160806891000        2.56951596284072
H           37.89953777236786       -0.24830915096763       -2.61678892175617
H           35.98826307758439       -0.17929755569797       -4.51778970703664
H           32.28022527702417       -1.63215871534593       -5.15787945006146
H           32.26629193715516       -1.47995219926379       -7.63446517892877
H           33.90413333128859        1.41447579599659      -10.65217084260892
H           34.48861806781751        2.17641339271577       -7.42330670116853
H           34.49452812314882        2.03207042609878       -4.95760610317455
H           30.77282081857281        0.45271113575926       -4.44325232961134
H           28.89800238459411        0.28654377133029       -2.51041003570642
H           32.83466379198365       -2.25987282582371        5.01014114712405
H           32.85186302458426       -2.33866806952468        7.49073563610289
H           33.81327366517529        0.58588923067563       10.75893320837378
H           34.11244507327434        1.75382237785619        7.61214075772409
H           34.08731508782108        1.83657498985806        5.14321124836016
Ni          65.43235772181036       -0.03330046362236       -0.04084110640081
C           68.82596178993461       -0.11138646915820       -0.07816731967927
C           68.16544392573350       -0.11151084261748       -1.28871562905012
C           68.83699367663823       -0.13141631040089       -2.55244351267281
C           67.87904051477744       -0.02785755791581       -3.50236250346077
C           66.62128401975140        0.04663844284219       -2.81747267152568
N           66.80664890852744       -0.01958012529177       -1.45930006184082
C           65.40558693733702        0.25248676924117       -3.45595728433599
C           64.20069270775866        0.34258500067710       -2.77251324349013
C           62.93527213851227        0.52334059266165       -3.41746286542562
C           61.98972538312561        0.45170185439507       -2.45069944358486
N           64.03103042966261        0.17325229317757       -1.41693695944987
C           62.67801943286715        0.22150049255877       -1.22040704502039
C           62.01835103117708        0.00508064113282       -0.00814865991648
C           62.69760312405223       -0.21414522939521        1.19253567268304
C           62.03084513894055       -0.45293296845136        2.43293650292603
C           62.99312566894177       -0.52809629603915        3.38302426767210
C           64.24574634795627       -0.32807879513046        2.71918679190452
C           65.46716758510399       -0.28203724503269        3.37818991871944
C           65.47825007421160       -0.37688820530803        4.85695354293433
C           66.11743773618460       -1.44328048430729        5.49442279888514
C           66.12529999416969       -1.52694089523673        6.87464405572676
C           65.49882959197394       -0.54369682433152        7.64274137638528
C           65.53813328577483       -0.67488636881491        9.11909851103064
O           64.90530533101034        0.31730587536780        9.76309227979768
O           66.07979093442158       -1.57583773862673        9.70759408099993
C           64.86032148273266        0.52373934663782        7.01070842021421
C           64.84911260147510        0.60273458753463        5.62911374585283
C           66.67758516063307       -0.15344336655621        2.70960647965329
C           67.94971872045107       -0.07564369461837        3.36680665891201
C           68.89074883928548       -0.03765559192322        2.39509569252834
C           68.19276785443881       -0.07710477271147        1.14638313589248
N           66.83560824085035       -0.11898851017617        1.34690248465752
N           64.05415132686414       -0.16924036501696        1.36566079108687
C           65.39354656192869        0.37333612405176       -4.93410502341592
C           65.73746938222892       -0.72067207533637       -5.73171563984323
C           65.72388667614068       -0.60978340137645       -7.10994423242076
C           65.37134907912612        0.59812350766507       -7.71483427808434
C           65.37460062831666        0.66799260730994       -9.19583674819297
O           65.02641150118065        1.87072483174786       -9.67755176788370
O           65.65872699704074       -0.25245735789105       -9.91934263428857
C           65.02959452278418        1.69389970213052       -6.92182118839403
C           65.03886400669070        1.57929205932750       -5.54239929505773
H           69.90944115727655       -0.13120274955628       -0.09012895267357
H           69.90592321634431       -0.20314312585352       -2.67504222817279
H           68.00055014353647        0.01020609049833       -4.57263943448214
H           62.79744444245845        0.66930847255313       -4.47625376618899
H           60.91922449026019        0.53356166731294       -2.54733510335024
H           60.96296960477601       -0.54761774171270        2.54568521511879
H           62.87644900132849       -0.70981713182224        4.43884776676593
H           66.59430851766179       -2.21368724233790        4.89923234610583
H           66.61506662216490       -2.35425521804148        7.37646298165057
H           64.97669588448768        0.15870002095231       10.71838732958150
H           64.37523555321604        1.29047397965823        7.60310161188261
H           64.36248690428781        1.43764641309149        5.13762725197151
H           68.09072914450759       -0.05080836408452        4.43505217834502
H           69.96321264303715        0.01524155982582        2.49399779137957
H           66.00147464685195       -1.66177842174073       -5.26291072655868
H           65.98461419368546       -1.45588460987081       -7.73623266919371
H           65.05358693381332        1.83296780661489      -10.64743849837739
H           64.75826444272130        2.63394341888360       -7.38750825366504
H           64.78306719071995        2.43323626650095       -4.92537365688666
C           42.04486635963394        0.00023241781088       -0.03592863365012
C           40.81744858586475       -0.00231595127623       -0.03707262755452
C           39.47117295722088       -0.00713300597552       -0.03217860312268
C           38.24830103961191       -0.01190014874660       -0.02588891077669
C           43.39101060903754        0.00361933802008       -0.03502424636167
C           44.61403426176258        0.00508803871008       -0.03224239308929
C           58.04285945829481        0.01627033818814        0.01820921870654
C           56.81537031225697        0.01772417000811        0.02042402605994
C           55.46944823314507        0.01863880910264        0.01938122863400
C           54.24635221318493        0.01787894847966        0.01541140506308
C           59.38891693574565        0.01404207871443        0.01241284956571
C           60.61184205440229        0.00878483593519        0.00344582387857
Ni          49.43035626839497        0.01211157516242       -0.01363436953724
C           46.01978558555182        0.00725008318647       -0.02776717134083
C           46.69600854801349       -1.20569395744824       -0.18727557186853
C           46.03671538184542       -2.45403752930614       -0.40268697258939
C           46.99354139700757       -3.41265617140989       -0.35514821658098
C           48.23381709846610       -2.74583292233004       -0.09881068777009
N           48.04532710464737       -1.38377098598608       -0.04886101395240
C           49.43450584848768       -3.39928251545186        0.14886602427659
C           50.63258641554907       -2.72154134841295        0.33750521791367
C           51.87340750156156       -3.35781635810137        0.66001747501696
C           52.82772092708191       -2.39623054293650        0.62103578370228
N           50.81795449823929       -1.36982430821790        0.15993279737162
C           52.16637475103753       -1.17587607383222        0.28547405473428
C           52.84088686145793        0.01680864229535        0.00854907845215
C           52.16691580092607        1.20756526924543       -0.27770665609941
C           52.82908758297034        2.42904755763400       -0.60748185055767
C           51.87251703458755        3.38761795945363       -0.66220368833090
C           50.62939629341866        2.74857475065451       -0.35416068600790
C           49.42699159994748        3.42299872779318       -0.18180843614604
C           49.42689228886496        4.90206528148397       -0.25064100522488
C           50.19807261931937        5.65013833163368        0.64306854130169
C           50.19461489268541        7.03129336005161        0.58092436938891
C           49.42503550059613        7.69035013455957       -0.37961776309418
C           49.45703057241850        9.17248114010742       -0.40834586114935
O           48.68409056767923        9.70766372259128       -1.36523574121735
O           50.10554749073138        9.85319749423793        0.34484057312506
C           48.65589570362790        6.94804023322372       -1.27625718054362
C           48.65609540134672        5.56578377557833       -1.20849864216461
C           48.22586446161620        2.76642243781628        0.05600750231598
C           46.98175261316482        3.43018991883232        0.30113126054075
C           46.02731219094898        2.46887791779431        0.34362348452861
C           46.69171329944216        1.22202148569583        0.13579189688784
N           48.04162647131550        1.40376336903427        0.00715692933989
N           50.81636524180738        1.39784623445565       -0.17076792277313
C           49.43873593618446       -4.87868524910004        0.21189298234474
C           48.66291365828770       -5.54986047499953        1.16076347891048
C           48.67049518513201       -6.93138865169255        1.21667627674741
C           49.44859224017191       -7.66761622987273        0.32122922212801
C           49.41973953499668       -9.14707572250645        0.41746711936011
O           50.19723581548238       -9.75886855664449       -0.48840814164087
O           48.76842214111148       -9.76342303941098        1.22189469204856
C           50.22320879393375       -7.00222908982695       -0.62941029431303
C           50.21923356470742       -5.61930996758535       -0.67951079879064
H           44.97690582071853       -2.56687372868938       -0.56448562224801
H           46.87952487143362       -4.47671293986555       -0.48267131084633
H           51.98915397384194       -4.40470452443889        0.88835405894109
H           53.88713060102123       -2.49020431067757        0.79698473643682
H           53.89051386541640        2.52580672654556       -0.76923038972162
H           51.98845858182409        4.43417563584437       -0.89191061881786
H           50.78675987239968        5.14030356869152        1.39719394681630
H           50.78604643859131        7.61826490419276        1.27502887965168
H           48.76007981917192       10.67449307499526       -1.31708439540020
H           48.06016210052870        7.45549902098004       -2.02572724948179
H           48.06783498457951        4.98863401402301       -1.91296837097623
H           46.86376990067244        4.49413224499560        0.42616185175760
H           44.96599892225717        2.57890834424098        0.49736900610611
H           48.06721405148893       -4.97947259549862        1.86433283965957
H           48.07550825200715       -7.45895094058982        1.95408976234642
H           50.12244063366331      -10.71847542323114       -0.36023155167097
H           50.82604123284457       -7.56983095456301       -1.32838043641169
H           50.81192336120674       -5.10227466203152       -1.42572066965527

          :  Hamiltonian                  GFN1-xTB          :
         :: total energy            -378.116535527627 Eh    ::
         :: gradient norm              0.000451577687 Eh/a0 ::
         :: HOMO-LUMO gap              1.229900702869 eV    ::
         :: SCC energy              -383.732489312742 Eh    ::
         :: repulsion energy           5.791610578059 Eh    ::

    * Orbital Energies and Occupations

         #    Occupation            Energy/Eh            Energy/eV
      -------------------------------------------------------------
         1        2.0000           -0.8346443             -22.7118
       ...           ...                  ...                  ...
       325        2.0000           -0.4080151             -11.1027
       326        2.0000           -0.4080105             -11.1025
       327        2.0000           -0.4075326             -11.0895
       328        2.0000           -0.4074276             -11.0867
       329        2.0000           -0.4072370             -11.0815
       330        2.0000           -0.4072275             -11.0812
       331        2.0000           -0.4061769             -11.0526
       332        2.0000           -0.4061727             -11.0525
       333        2.0000           -0.4060973             -11.0505
       334        2.0000           -0.4060933             -11.0504
       335        2.0000           -0.4004326             -10.8963
       336        2.0000           -0.3988698             -10.8538
       337        2.0000           -0.3953221             -10.7573 (HOMO)
       338                         -0.3501241              -9.5274 (LUMO)
       339                         -0.3444550              -9.3731
       340                         -0.3433991              -9.3444
       341                         -0.3427568              -9.3269
       342                         -0.3410170              -9.2795
       343                         -0.3410069              -9.2793
       344                         -0.3386479              -9.2151
       345                         -0.3385830              -9.2133
       346                         -0.3385427              -9.2122
       347                         -0.3215799              -8.7506
       348                         -0.3161933              -8.6041
       ...                                ...                  ...
       691                          1.5697299              42.7145
      -------------------------------------------------------------
                  HL-Gap            0.0451980 Eh            1.2299 eV

Wiberg/Mayer (AO) data.
largest (>0.10) Wiberg bond orders for each atom

     #   Z sym  total        # sym  WBO       # sym  WBO       # sym  WBO
 ---------------------------------------------------------------------------
     1  28 Ni   3.010 --     7 N    0.664    33 N    0.664    34 N    0.661
                            12 N    0.661
     2   6 C    3.936 --     3 C    1.365    32 C    1.364    44 H    0.970
     3   6 C    3.922 --     2 C    1.365     7 N    1.213     4 C    1.174
     4   6 C    3.960 --     5 C    1.651     3 C    1.174    45 H    0.975
     5   6 C    3.963 --     4 C    1.651     6 C    1.175    46 H    0.972
     6   6 C    3.920 --     8 C    1.324     7 N    1.222     5 C    1.175
     7   7 N    3.403 --     6 C    1.222     3 C    1.213     1 Ni   0.664
     8   6 C    3.939 --     9 C    1.329     6 C    1.324    35 C    1.024
     9   6 C    3.914 --     8 C    1.329    12 N    1.207    10 C    1.182
    10   6 C    3.959 --    11 C    1.638     9 C    1.182    47 H    0.972
    11   6 C    3.961 --    10 C    1.638    13 C    1.190    48 H    0.973
    12   7 N    3.407 --    13 C    1.237     9 C    1.207     1 Ni   0.661
    13   6 C    3.904 --    14 C    1.266    12 N    1.237    11 C    1.190
    14   6 C    3.946 --    15 C    1.267    13 C    1.266   128 C    1.177
    15   6 C    3.904 --    14 C    1.267    34 N    1.236    16 C    1.190
    16   6 C    3.961 --    17 C    1.637    15 C    1.190    49 H    0.973
    17   6 C    3.959 --    16 C    1.637    18 C    1.183    50 H    0.973
    18   6 C    3.915 --    19 C    1.326    34 N    1.208    17 C    1.183
    19   6 C    3.939 --    18 C    1.326    29 C    1.323    20 C    1.028
    20   6 C    3.987 --    28 C    1.387    21 C    1.386    19 C    1.028
    21   6 C    3.987 --    22 C    1.464    20 C    1.386    51 H    0.972
                            27 C    0.103
    22   6 C    3.990 --    21 C    1.464    23 C    1.385    52 H    0.968
                            28 C    0.103
    23   6 C    3.983 --    27 C    1.389    22 C    1.385    24 C    1.009
    24   6 C    3.836 --    26 O    1.690    25 O    1.088    23 C    1.009
    25   8 O    2.097 --    24 C    1.088    53 H    0.838    26 O    0.129
    26   8 O    1.958 --    24 C    1.690    25 O    0.129
    27   6 C    3.991 --    28 C    1.461    23 C    1.389    54 H    0.970
                            21 C    0.103
    28   6 C    3.988 --    27 C    1.461    20 C    1.387    55 H    0.972
                            22 C    0.103
    29   6 C    3.920 --    19 C    1.323    33 N    1.222    30 C    1.176
    30   6 C    3.963 --    31 C    1.650    29 C    1.176    56 H    0.972
    31   6 C    3.960 --    30 C    1.650    32 C    1.174    57 H    0.975
    32   6 C    3.922 --     2 C    1.364    33 N    1.213    31 C    1.174
    33   7 N    3.403 --    29 C    1.222    32 C    1.213     1 Ni   0.664
    34   7 N    3.407 --    15 C    1.236    18 C    1.208     1 Ni   0.661
    35   6 C    3.986 --    43 C    1.389    36 C    1.387     8 C    1.024
    36   6 C    3.988 --    37 C    1.463    35 C    1.387    58 H    0.972
                            42 C    0.103
    37   6 C    3.990 --    36 C    1.463    38 C    1.386    59 H    0.968
                            43 C    0.103
    38   6 C    3.984 --    42 C    1.390    37 C    1.386    39 C    1.009
    39   6 C    3.836 --    41 O    1.690    40 O    1.088    38 C    1.009
    40   8 O    2.097 --    39 C    1.088    60 H    0.838    41 O    0.129
    41   8 O    1.959 --    39 C    1.690    40 O    0.129
    42   6 C    3.991 --    43 C    1.460    38 C    1.390    61 H    0.970
                            36 C    0.103
    43   6 C    3.988 --    42 C    1.460    35 C    1.389    62 H    0.972
                            37 C    0.103
    44   1 H    1.000 --     2 C    0.970
    45   1 H    0.997 --     4 C    0.975
    46   1 H    1.004 --     5 C    0.972
    47   1 H    1.004 --    10 C    0.972
    48   1 H    1.001 --    11 C    0.973
    49   1 H    1.001 --    16 C    0.973
    50   1 H    1.004 --    17 C    0.973
    51   1 H    1.004 --    21 C    0.972
    52   1 H    1.005 --    22 C    0.968
    53   1 H    0.873 --    25 O    0.838
    54   1 H    1.005 --    27 C    0.970
    55   1 H    1.004 --    28 C    0.972
    56   1 H    1.004 --    30 C    0.972
    57   1 H    0.997 --    31 C    0.975
    58   1 H    1.003 --    36 C    0.972
    59   1 H    1.005 --    37 C    0.968
    60   1 H    0.873 --    40 O    0.838
    61   1 H    1.005 --    42 C    0.970
    62   1 H    1.003 --    43 C    0.972
    63  28 Ni   3.011 --    69 N    0.664    95 N    0.664    96 N    0.661
                            74 N    0.661
    64   6 C    3.936 --    65 C    1.364    94 C    1.364   106 H    0.970
    65   6 C    3.922 --    64 C    1.364    69 N    1.213    66 C    1.174
    66   6 C    3.960 --    67 C    1.651    65 C    1.174   107 H    0.975
    67   6 C    3.963 --    66 C    1.651    68 C    1.175   108 H    0.972
    68   6 C    3.920 --    70 C    1.324    69 N    1.222    67 C    1.175
    69   7 N    3.403 --    68 C    1.222    65 C    1.213    63 Ni   0.664
    70   6 C    3.939 --    71 C    1.329    68 C    1.324    97 C    1.023
    71   6 C    3.914 --    70 C    1.329    74 N    1.207    72 C    1.182
    72   6 C    3.959 --    73 C    1.638    71 C    1.182   109 H    0.972
    73   6 C    3.961 --    72 C    1.638    75 C    1.190   110 H    0.973
    74   7 N    3.407 --    75 C    1.238    71 C    1.207    63 Ni   0.661
    75   6 C    3.904 --    76 C    1.266    74 N    1.238    73 C    1.190
    76   6 C    3.946 --    77 C    1.266    75 C    1.266   136 C    1.178
    77   6 C    3.904 --    76 C    1.266    96 N    1.236    78 C    1.190
    78   6 C    3.961 --    79 C    1.637    77 C    1.190   111 H    0.973
    79   6 C    3.959 --    78 C    1.637    80 C    1.183   112 H    0.973
    80   6 C    3.915 --    81 C    1.326    96 N    1.208    79 C    1.183
    81   6 C    3.939 --    80 C    1.326    91 C    1.322    82 C    1.028
    82   6 C    3.987 --    90 C    1.387    83 C    1.386    81 C    1.028
    83   6 C    3.987 --    84 C    1.464    82 C    1.386   113 H    0.972
                            89 C    0.103
    84   6 C    3.990 --    83 C    1.464    85 C    1.386   114 H    0.968
                            90 C    0.103
    85   6 C    3.983 --    89 C    1.389    84 C    1.386    86 C    1.009
    86   6 C    3.836 --    88 O    1.690    87 O    1.088    85 C    1.009
    87   8 O    2.097 --    86 C    1.088   115 H    0.838    88 O    0.129
    88   8 O    1.958 --    86 C    1.690    87 O    0.129
    89   6 C    3.991 --    90 C    1.461    85 C    1.389   116 H    0.970
                            83 C    0.103
    90   6 C    3.988 --    89 C    1.461    82 C    1.387   117 H    0.972
                            84 C    0.103
    91   6 C    3.920 --    81 C    1.322    95 N    1.222    92 C    1.176
    92   6 C    3.963 --    93 C    1.650    91 C    1.176   118 H    0.972
    93   6 C    3.960 --    92 C    1.650    94 C    1.174   119 H    0.975
    94   6 C    3.922 --    64 C    1.364    95 N    1.213    93 C    1.174
    95   7 N    3.403 --    91 C    1.222    94 C    1.213    63 Ni   0.664
    96   7 N    3.407 --    77 C    1.236    80 C    1.208    63 Ni   0.661
    97   6 C    3.986 --   105 C    1.389    98 C    1.387    70 C    1.023
    98   6 C    3.988 --    99 C    1.463    97 C    1.387   120 H    0.972
                           104 C    0.103
    99   6 C    3.990 --    98 C    1.463   100 C    1.386   121 H    0.968
                           105 C    0.103
   100   6 C    3.984 --   104 C    1.390    99 C    1.386   101 C    1.009
   101   6 C    3.836 --   103 O    1.690   102 O    1.088   100 C    1.009
   102   8 O    2.097 --   101 C    1.088   122 H    0.838   103 O    0.129
   103   8 O    1.958 --   101 C    1.690   102 O    0.129
   104   6 C    3.991 --   105 C    1.460   100 C    1.390   123 H    0.970
                            98 C    0.103
   105   6 C    3.988 --   104 C    1.460    97 C    1.389   124 H    0.972
                            99 C    0.103
   106   1 H    1.000 --    64 C    0.970
   107   1 H    0.997 --    66 C    0.975
   108   1 H    1.004 --    67 C    0.972
   109   1 H    1.004 --    72 C    0.972
   110   1 H    1.001 --    73 C    0.973
   111   1 H    1.001 --    78 C    0.973
   112   1 H    1.004 --    79 C    0.973
   113   1 H    1.004 --    83 C    0.972
   114   1 H    1.005 --    84 C    0.968
   115   1 H    0.873 --    87 O    0.838
   116   1 H    1.005 --    89 C    0.970
   117   1 H    1.004 --    90 C    0.972
   118   1 H    1.004 --    92 C    0.972
   119   1 H    0.997 --    93 C    0.975
   120   1 H    1.003 --    98 C    0.972
   121   1 H    1.005 --    99 C    0.968
   122   1 H    0.873 --   102 O    0.838
   123   1 H    1.005 --   104 C    0.970
   124   1 H    1.003 --   105 C    0.972
   125   6 C    3.926 --   126 C    2.381   129 C    1.325   128 C    0.190
   126   6 C    3.925 --   125 C    2.381   127 C    1.324   130 C    0.190
   127   6 C    3.938 --   128 C    2.463   126 C    1.324
   128   6 C    3.890 --   127 C    2.463    14 C    1.177   125 C    0.190
   129   6 C    3.935 --   130 C    2.461   125 C    1.325
   130   6 C    3.891 --   129 C    2.461   138 C    1.180   126 C    0.190
   131   6 C    3.925 --   132 C    2.380   135 C    1.325   134 C    0.190
   132   6 C    3.926 --   131 C    2.380   133 C    1.326   136 C    0.191
   133   6 C    3.935 --   134 C    2.460   132 C    1.326
   134   6 C    3.891 --   133 C    2.460   150 C    1.181   131 C    0.190
   135   6 C    3.938 --   136 C    2.462   131 C    1.325
   136   6 C    3.890 --   135 C    2.462    76 C    1.178   132 C    0.191
   137  28 Ni   3.013 --   148 N    0.661   170 N    0.661   169 N    0.661
                           143 N    0.661
   138   6 C    3.937 --   168 C    1.264   139 C    1.264   130 C    1.180
   139   6 C    3.904 --   138 C    1.264   143 N    1.236   140 C    1.192
   140   6 C    3.960 --   141 C    1.635   139 C    1.192   180 H    0.973
   141   6 C    3.960 --   140 C    1.635   142 C    1.185   181 H    0.973
   142   6 C    3.913 --   144 C    1.323   143 N    1.206   141 C    1.185
   143   7 N    3.400 --   139 C    1.236   142 C    1.206   137 Ni   0.661
   144   6 C    3.935 --   142 C    1.323   145 C    1.323   171 C    1.032
   145   6 C    3.913 --   144 C    1.323   148 N    1.206   146 C    1.185
   146   6 C    3.960 --   147 C    1.634   145 C    1.185   182 H    0.973
   147   6 C    3.960 --   146 C    1.634   149 C    1.192   183 H    0.973
   148   7 N    3.400 --   149 C    1.236   145 C    1.206   137 Ni   0.661
   149   6 C    3.904 --   150 C    1.263   148 N    1.236   147 C    1.192
   150   6 C    3.937 --   151 C    1.263   149 C    1.263   134 C    1.181
   151   6 C    3.904 --   150 C    1.263   170 N    1.236   152 C    1.192
   152   6 C    3.960 --   153 C    1.634   151 C    1.192   184 H    0.973
   153   6 C    3.960 --   152 C    1.634   154 C    1.185   185 H    0.973
   154   6 C    3.913 --   155 C    1.323   170 N    1.206   153 C    1.185
   155   6 C    3.935 --   154 C    1.323   165 C    1.323   156 C    1.032
   156   6 C    3.987 --   164 C    1.386   157 C    1.384   155 C    1.032
   157   6 C    3.987 --   158 C    1.464   156 C    1.384   186 H    0.972
                           163 C    0.103
   158   6 C    3.990 --   157 C    1.464   159 C    1.385   187 H    0.968
                           164 C    0.103
   159   6 C    3.982 --   163 C    1.389   158 C    1.385   160 C    1.009
   160   6 C    3.836 --   162 O    1.690   161 O    1.088   159 C    1.009
   161   8 O    2.097 --   160 C    1.088   188 H    0.838   162 O    0.129
   162   8 O    1.958 --   160 C    1.690   161 O    0.129
   163   6 C    3.991 --   164 C    1.461   159 C    1.389   189 H    0.970
                           157 C    0.103
   164   6 C    3.987 --   163 C    1.461   156 C    1.386   190 H    0.972
                           158 C    0.103
   165   6 C    3.913 --   155 C    1.323   169 N    1.206   166 C    1.185
   166   6 C    3.960 --   167 C    1.634   165 C    1.185   191 H    0.973
   167   6 C    3.960 --   166 C    1.634   168 C    1.192   192 H    0.973
   168   6 C    3.904 --   138 C    1.264   169 N    1.236   167 C    1.192
   169   7 N    3.400 --   168 C    1.236   165 C    1.206   137 Ni   0.661
   170   7 N    3.400 --   151 C    1.236   154 C    1.206   137 Ni   0.661
   171   6 C    3.987 --   179 C    1.386   172 C    1.385   144 C    1.032
   172   6 C    3.987 --   173 C    1.464   171 C    1.385   193 H    0.972
                           178 C    0.103
   173   6 C    3.990 --   172 C    1.464   174 C    1.385   194 H    0.968
                           179 C    0.103
   174   6 C    3.982 --   178 C    1.389   173 C    1.385   175 C    1.008
   175   6 C    3.836 --   177 O    1.691   176 O    1.089   174 C    1.008
   176   8 O    2.097 --   175 C    1.089   195 H    0.838   177 O    0.129
   177   8 O    1.959 --   175 C    1.691   176 O    0.129
   178   6 C    3.991 --   179 C    1.461   174 C    1.389   196 H    0.969
                           172 C    0.103
   179   6 C    3.987 --   178 C    1.461   171 C    1.386   197 H    0.972
                           173 C    0.103
   180   1 H    1.001 --   140 C    0.973
   181   1 H    1.003 --   141 C    0.973
   182   1 H    1.003 --   146 C    0.973
   183   1 H    1.001 --   147 C    0.973
   184   1 H    1.001 --   152 C    0.973
   185   1 H    1.003 --   153 C    0.973
   186   1 H    1.004 --   157 C    0.972
   187   1 H    1.005 --   158 C    0.968
   188   1 H    0.873 --   161 O    0.838
   189   1 H    1.005 --   163 C    0.970
   190   1 H    1.004 --   164 C    0.972
   191   1 H    1.004 --   166 C    0.973
   192   1 H    1.001 --   167 C    0.973
   193   1 H    1.004 --   172 C    0.972
   194   1 H    1.005 --   173 C    0.968
   195   1 H    0.873 --   176 O    0.838
   196   1 H    1.005 --   178 C    0.969
   197   1 H    1.004 --   179 C    0.972
 ---------------------------------------------------------------------------

           -------------------------------------------------
          | TOTAL ENERGY             -378.116535527627 Eh   |
          | GRADIENT NORM               0.000451577687 Eh/α |
          | HOMO-LUMO GAP               1.229900702869 eV   |
           -------------------------------------------------

 * finished run on 2022/07/30 at 06:36:14.304
