   * xtb version 6.5.1 (b24c23e) compiled by 'conda@728c89f4b128' on 2022-07-12
          program call               : xtb Zn_PhOH_C4_2.xyz --gfn 1 --opt -T 48

   ID    Z sym.   atoms
    1   30 Zn     1, 59
    2    6 C      2-6, 8-12, 14-18, 20-25, 27-31, 33-38, 60-64, 66-70, 72-76,
                  78-83, 85-89, 91-96, 117-120
    3    7 N      7, 19, 26, 39, 65, 77, 84, 97
    4    8 O      13, 32, 71, 90
    5    1 H      40-58, 98-116
########################################################################
[WARNING] Please study the warnings concerning your input carefully
-1- prog_main_parseArguments: Unknown option '-T' provided
########################################################################

          :  Hamiltonian                  GFN1-xTB          :
 * total energy  :  -209.0319605 Eh     change       -0.8780887E-09 Eh
 * total energy  :  -209.8576173 Eh     change       -0.8256568E+00 Eh
 * total energy  :  -209.9630528 Eh     change       -0.1054355E+00 Eh
 * total energy  :  -210.0191369 Eh     change       -0.5608406E-01 Eh
 * total energy  :  -210.0350237 Eh     change       -0.1588686E-01 Eh
 * total energy  :  -210.0434577 Eh     change       -0.8433989E-02 Eh
 * total energy  :  -210.0485125 Eh     change       -0.5054740E-02 Eh
 * total energy  :  -210.0521702 Eh     change       -0.3657737E-02 Eh
 * total energy  :  -210.0546387 Eh     change       -0.2468542E-02 Eh
 * total energy  :  -210.0565068 Eh     change       -0.1868106E-02 Eh
 * total energy  :  -210.0626489 Eh     change       -0.5179900E-04 Eh
 * total energy  :  -210.0626925 Eh     change       -0.4360571E-04 Eh
 * total energy  :  -210.0627133 Eh     change       -0.2075483E-04 Eh
 * total energy  :  -210.0627678 Eh     change       -0.5452981E-04 Eh
 * total energy  :  -210.0627824 Eh     change       -0.1462472E-04 Eh
 * total energy  :  -210.0628022 Eh     change       -0.1977835E-04 Eh
 * total energy  :  -210.0628080 Eh     change       -0.5763570E-05 Eh
 * total energy  :  -210.0628130 Eh     change       -0.5017468E-05 Eh
 * total energy  :  -210.0628179 Eh     change       -0.4895408E-05 Eh
   *** GEOMETRY OPTIMIZATION CONVERGED AFTER 39 ITERATIONS ***

 final structure:
================
120
 xtb: 6.5.1 (b24c23e)
Zn          15.55469676511528       -0.05220259694820       -0.00577359169235
C           12.14567491013239       -0.08922685328378       -0.09989354813509
C           12.77588534829292       -1.32575462529407       -0.02769620871868
C           12.10143772606211       -2.59086096443128        0.05358092873861
C           13.06006338633546       -3.54699636222440        0.13908109171634
C           14.33354168707491       -2.87803742836757        0.09903560458855
N           14.12518416994572       -1.53286903507445        0.00347438367433
C           15.58403406476711       -3.50384455633729        0.17658429449808
C           15.59626479086751       -4.98541608974072        0.27317633654864
C           15.06441746430142       -5.77019148495733       -0.75032024067758
C           15.07153207514422       -7.15373634792468       -0.65976548301837
C           15.60920999064725       -7.76983837547353        0.46773916267218
O           15.63193753905108       -9.12203212837369        0.59940179345081
C           16.14250858171796       -6.99820517439335        1.49802839258247
C           16.13664869084316       -5.61828648000098        1.39523937563753
C           16.82234436188646       -2.85175142585177        0.17560051056854
C           18.10249262168410       -3.50348324137883        0.19688413293941
C           19.04840025319721       -2.53004618229294        0.16446896117340
N           17.01548458246235       -1.49686832462229        0.11987924414109
C           18.35745123886670       -1.27529727480379        0.11667953896431
C           18.98846083954956       -0.01598855999394        0.06023910518235
C           18.33426492014741        1.23081554243719       -0.00895332621355
C           19.00100406189202        2.49672911152360       -0.08902716359280
C           18.03653962483413        3.45062119602123       -0.14897314059997
C           16.76912789069891        2.77607817564794       -0.09885600344766
N           16.98824415651161        1.42620621599018       -0.02186780318096
C           15.51822703109780        3.40162719377608       -0.15156530042273
C           15.50106715009083        4.88532580429980       -0.20102576737553
C           16.04036851168108        5.63732462992490        0.84550768799104
C           16.01836246434713        7.02055151595277        0.81061439458652
C           15.45743360757136        7.67505020609723       -0.28418047201570
O           15.45245224437759        9.03385144965218       -0.28797127499054
C           14.92022387396777        6.93929939865186       -1.33778200659058
C           14.94133956709546        5.55382834768047       -1.29037092006382
C           14.27978571151933        2.74749181946005       -0.15929274452877
C           12.99370898426651        3.39293034619416       -0.17040427388533
C           12.05350812206462        2.41487757953396       -0.16386030159071
C           12.75217202583074        1.16077459873246       -0.13664072591005
N           14.09723149388867        1.39546002157831       -0.13116858270106
H           11.06007251529684       -0.10003132350302       -0.11288277615467
H           11.03016162301973       -2.71878127633731        0.05401554882706
H           12.92035038872051       -4.61199719823462        0.23437590651142
H           14.65681785340045       -5.29278552365178       -1.63457903372924
H           14.66193647683723       -7.75855644952944       -1.46169633881497
H           15.23589959125404       -9.55653928409395       -0.16766815282214
H           16.55427955238810       -7.49042136686595        2.37043277790262
H           16.54008080793012       -5.01808829033433        2.20307589655687
H           18.25686336795091       -4.57033835100925        0.21820518086244
H           20.12076079747752       -2.64447354015802        0.16621016273629
H           20.07089081630897        2.63165244481796       -0.10337582289029
H           18.17086830112103        4.51691408559568       -0.23491922612358
H           16.46486973564350        5.12871817795253        1.70393118399370
H           16.42960111259751        7.60498039456646        1.62442271396587
H           15.03866213952296        9.38092798734714       -1.08954726315367
H           14.48892304926512        7.45334820127811       -2.19023134117514
H           14.53405612539029        4.98256092349727       -2.11725043499822
H           12.83356141674473        4.45929220003200       -0.16886035124367
H           10.97995888984989        2.52200940623901       -0.16733195317150
Zn          29.02890138861110        0.05149358616500       -0.01355203470775
C           32.43811105887405        0.07471406060406       -0.11198139274516
C           31.80780534176435        1.30891038473055       -0.21604206332866
C           32.48216134793159        2.57283385396137       -0.31455761897439
C           31.52344151232539        3.53128181682523       -0.36686283033486
C           30.25001425282808        2.86321485028628       -0.31300533559582
N           30.45843424097855        1.51818969224002       -0.21587573157115
C           28.99942383296981        3.49351238636333       -0.32764706386783
C           28.98711512543577        4.97356957537890       -0.44461660409800
C           29.52201069937987        5.60346983476921       -1.56862070390697
C           29.51440418017595        6.98566297864812       -1.67780485979877
C           28.97295424402131        7.75704121549669       -0.65224644348519
O           28.94924475777595        9.11409544406064       -0.71659086559685
C           28.43690434046495        7.14114212247470        0.47676823310293
C           28.44342819481858        5.76078762740706        0.57337573858929
C           27.76106899079233        2.84788070103361       -0.23679003140083
C           26.48085832656736        3.49572373118365       -0.31104697217072
C           25.53496138007337        2.52773271057856       -0.20341645325502
N           27.56796086185787        1.49911631599217       -0.09685501724825
C           26.22592221556770        1.27928876903413       -0.06902413385684
C           25.59512831214171        0.02497167343992        0.05713566353862
C           26.24939592612897       -1.21870284049506        0.16885028447676
C           25.58274182783809       -2.48289952272021        0.27339887119235
C           26.54730689824882       -3.43540710685528        0.35106245888200
C           27.81464892626057       -2.76076556798166        0.30165571351135
N           27.59540216180426       -1.41384888180369        0.18313626903488
C           29.06556467761254       -3.38735583355689        0.33768994919332
C           29.08280565175562       -4.86283267534838        0.50186518379252
C           28.54724247062691       -5.45648193916782        1.64741926286576
C           28.56970428148798       -6.83037603795096        1.81162765853715
C           29.12717962303640       -7.63543460307206        0.82032666586368
O           29.13298841281637       -8.98068173471254        1.01187663315865
C           29.66028657290660       -7.05885979732978       -0.33003356297928
C           29.63891087452263       -5.68094870985136       -0.48211990496549
C           30.30395581545132       -2.74135479229081        0.23442080676907
C           31.58999950560188       -3.38201934358361        0.31389364569815
C           32.53023181289191       -2.41313952298595        0.18010147385746
C           31.83159520385331       -1.16784454016010        0.02923173572477
N           30.48653426816424       -1.39915415432856        0.06916747975255
H           33.52372625308785        0.08354895389349       -0.12633939094153
H           33.55344360958528        2.69964058030344       -0.33094164799158
H           31.66308748385065        4.59904818491592       -0.42355163583849
H           29.93236112234989        5.00419049099948       -2.37387870105935
H           29.92639537499334        7.46923734921835       -2.55704973589246
H           29.34740208471587        9.43406890071711       -1.53710772619460
H           28.02250007823336        7.75330666224334        1.26825711195578
H           28.03785395614884        5.28267982789473        1.45797991274470
H           26.32651829736265        4.55445588681068       -0.44421758618187
H           24.46255101689548        2.64089634966024       -0.21916189294339
H           24.51287420856586       -2.61851478095002        0.27983219957752
H           26.41315612969391       -4.50292819697455        0.42052898393473
H           28.12537061592145       -4.82967469768354        2.42518861278924
H           28.16146045147358       -7.29171677197459        2.70240499545949
H           29.54388832107030       -9.43927578268144        0.26686041546723
H           30.08861540241341       -7.69018756266343       -1.10131782799771
H           30.04307606614223       -5.23432023923203       -1.38384479332694
H           31.75002677169048       -4.43736507291853        0.46693152423034
H           33.60378538982802       -2.51985901413407        0.19080249168221
C           21.61683122976486       -0.00035560080274        0.06607891123712
C           20.39451642077102       -0.00377023366835        0.06411375323517
C           22.96673028222373        0.00816891747049        0.06580853902548
C           24.18904982629207        0.01349926408911        0.06278464600035

          :  Hamiltonian                  GFN1-xTB          :
         :: total energy            -210.062817865116 Eh    ::
         :: gradient norm              0.000760968602 Eh/a0 ::
         :: HOMO-LUMO gap              1.076071250630 eV    ::
         :: SCC energy              -213.285857667994 Eh    ::
         :: repulsion energy           3.328976495525 Eh    ::

    * Orbital Energies and Occupations

         #    Occupation            Energy/Eh            Energy/eV
      -------------------------------------------------------------
         1        2.0000           -0.8024359             -21.8354
       ...           ...                  ...                  ...
       177        2.0000           -0.4183747             -11.3846
       178        2.0000           -0.4181640             -11.3788
       179        2.0000           -0.4177236             -11.3668
       180        2.0000           -0.4175155             -11.3612
       181        2.0000           -0.4173853             -11.3576
       182        2.0000           -0.4162649             -11.3271
       183        2.0000           -0.4148765             -11.2894
       184        2.0000           -0.4142790             -11.2731
       185        2.0000           -0.4133240             -11.2471
       186        2.0000           -0.3899822             -10.6120
       187        2.0000           -0.3899803             -10.6119
       188        2.0000           -0.3842471             -10.4559
       189        2.0000           -0.3721879             -10.1277 (HOMO)
       190                         -0.3326430              -9.0517 (LUMO)
       191                         -0.3222469              -8.7688
       192                         -0.3222465              -8.7688
       193                         -0.3187738              -8.6743
       194                         -0.2920126              -7.9461
       195                         -0.2843420              -7.7373
       196                         -0.2641061              -7.1867
       197                         -0.2641041              -7.1866
       198                         -0.2640956              -7.1864
       199                         -0.2640898              -7.1862
       200                         -0.2523412              -6.8666
       ...                                ...                  ...
       404                          1.5223938              41.4264
      -------------------------------------------------------------
                  HL-Gap            0.0395449 Eh            1.0761 eV

Wiberg/Mayer (AO) data.
largest (>0.10) Wiberg bond orders for each atom

     #   Z sym  total        # sym  WBO       # sym  WBO       # sym  WBO
 ---------------------------------------------------------------------------
     1  30 Zn   1.999 --    39 N    0.460     7 N    0.460    19 N    0.457
                            26 N    0.457
     2   6 C    3.926 --     3 C    1.357    38 C    1.356    40 H    0.971
     3   6 C    3.923 --     2 C    1.357     7 N    1.233     4 C    1.172
     4   6 C    3.960 --     5 C    1.657     3 C    1.172    41 H    0.976
     5   6 C    3.963 --     4 C    1.657     6 C    1.173    42 H    0.973
     6   6 C    3.918 --     8 C    1.314     7 N    1.244     5 C    1.173
     7   7 N    3.293 --     6 C    1.244     3 C    1.233     1 Zn   0.460
     8   6 C    3.933 --    16 C    1.323     6 C    1.314     9 C    1.028
     9   6 C    3.989 --    10 C    1.394    15 C    1.384     8 C    1.028
    10   6 C    3.987 --    11 C    1.451     9 C    1.394    43 H    0.973
                            14 C    0.105
    11   6 C    3.988 --    10 C    1.451    12 C    1.373    44 H    0.970
                            15 C    0.103
    12   6 C    3.901 --    11 C    1.373    14 C    1.365    13 O    1.038
    13   8 O    2.041 --    12 C    1.038    45 H    0.866
    14   6 C    3.990 --    15 C    1.466    12 C    1.365    46 H    0.971
                            10 C    0.105
    15   6 C    3.988 --    14 C    1.466     9 C    1.384    47 H    0.973
                            11 C    0.103
    16   6 C    3.913 --     8 C    1.323    19 N    1.225    17 C    1.180
    17   6 C    3.960 --    18 C    1.645    16 C    1.180    48 H    0.973
    18   6 C    3.962 --    17 C    1.645    20 C    1.187    49 H    0.974
    19   7 N    3.297 --    20 C    1.262    16 C    1.225     1 Zn   0.457
    20   6 C    3.903 --    19 N    1.262    21 C    1.254    18 C    1.187
    21   6 C    3.937 --    22 C    1.254    20 C    1.254   118 C    1.190
    22   6 C    3.903 --    26 N    1.262    21 C    1.254    23 C    1.188
    23   6 C    3.962 --    24 C    1.644    22 C    1.188    50 H    0.974
    24   6 C    3.960 --    23 C    1.644    25 C    1.180    51 H    0.973
    25   6 C    3.913 --    27 C    1.323    26 N    1.225    24 C    1.180
    26   7 N    3.297 --    22 C    1.262    25 C    1.225     1 Zn   0.457
    27   6 C    3.933 --    25 C    1.323    35 C    1.314    28 C    1.029
    28   6 C    3.989 --    34 C    1.394    29 C    1.384    27 C    1.029
    29   6 C    3.988 --    30 C    1.466    28 C    1.384    52 H    0.973
                            33 C    0.103
    30   6 C    3.990 --    29 C    1.466    31 C    1.365    53 H    0.971
                            34 C    0.105
    31   6 C    3.901 --    33 C    1.372    30 C    1.365    32 O    1.038
    32   8 O    2.041 --    31 C    1.038    54 H    0.866
    33   6 C    3.988 --    34 C    1.452    31 C    1.372    55 H    0.970
                            29 C    0.103
    34   6 C    3.987 --    33 C    1.452    28 C    1.394    56 H    0.973
                            30 C    0.105
    35   6 C    3.918 --    27 C    1.314    39 N    1.244    36 C    1.173
    36   6 C    3.963 --    37 C    1.657    35 C    1.173    57 H    0.973
    37   6 C    3.960 --    36 C    1.657    38 C    1.172    58 H    0.976
    38   6 C    3.923 --     2 C    1.356    39 N    1.233    37 C    1.172
    39   7 N    3.293 --    35 C    1.244    38 C    1.233     1 Zn   0.460
    40   1 H    1.002 --     2 C    0.971
    41   1 H    0.998 --     4 C    0.976
    42   1 H    1.005 --     5 C    0.973
    43   1 H    1.005 --    10 C    0.973
    44   1 H    0.999 --    11 C    0.970
    45   1 H    0.887 --    13 O    0.866
    46   1 H    0.999 --    14 C    0.971
    47   1 H    1.005 --    15 C    0.973
    48   1 H    1.005 --    17 C    0.973
    49   1 H    1.003 --    18 C    0.974
    50   1 H    1.003 --    23 C    0.974
    51   1 H    1.005 --    24 C    0.973
    52   1 H    1.005 --    29 C    0.973
    53   1 H    0.999 --    30 C    0.971
    54   1 H    0.887 --    32 O    0.866
    55   1 H    0.999 --    33 C    0.970
    56   1 H    1.005 --    34 C    0.973
    57   1 H    1.005 --    36 C    0.973
    58   1 H    0.998 --    37 C    0.976
    59  30 Zn   1.999 --    97 N    0.460    65 N    0.460    77 N    0.457
                            84 N    0.457
    60   6 C    3.926 --    61 C    1.357    96 C    1.356    98 H    0.971
    61   6 C    3.923 --    60 C    1.357    65 N    1.233    62 C    1.172
    62   6 C    3.960 --    63 C    1.657    61 C    1.172    99 H    0.976
    63   6 C    3.963 --    62 C    1.657    64 C    1.173   100 H    0.973
    64   6 C    3.918 --    66 C    1.314    65 N    1.244    63 C    1.173
    65   7 N    3.293 --    64 C    1.244    61 C    1.233    59 Zn   0.460
    66   6 C    3.933 --    74 C    1.323    64 C    1.314    67 C    1.028
    67   6 C    3.989 --    68 C    1.394    73 C    1.384    66 C    1.028
    68   6 C    3.987 --    69 C    1.451    67 C    1.394   101 H    0.973
                            72 C    0.105
    69   6 C    3.988 --    68 C    1.451    70 C    1.373   102 H    0.970
                            73 C    0.103
    70   6 C    3.901 --    69 C    1.373    72 C    1.365    71 O    1.038
    71   8 O    2.041 --    70 C    1.038   103 H    0.866
    72   6 C    3.990 --    73 C    1.466    70 C    1.365   104 H    0.971
                            68 C    0.105
    73   6 C    3.988 --    72 C    1.466    67 C    1.384   105 H    0.973
                            69 C    0.103
    74   6 C    3.913 --    66 C    1.323    77 N    1.225    75 C    1.180
    75   6 C    3.960 --    76 C    1.645    74 C    1.180   106 H    0.973
    76   6 C    3.962 --    75 C    1.645    78 C    1.187   107 H    0.974
    77   7 N    3.297 --    78 C    1.262    74 C    1.225    59 Zn   0.457
    78   6 C    3.903 --    77 N    1.262    79 C    1.254    76 C    1.187
    79   6 C    3.937 --    78 C    1.254    80 C    1.254   120 C    1.190
    80   6 C    3.903 --    84 N    1.262    79 C    1.254    81 C    1.188
    81   6 C    3.962 --    82 C    1.644    80 C    1.188   108 H    0.974
    82   6 C    3.960 --    81 C    1.644    83 C    1.180   109 H    0.973
    83   6 C    3.913 --    85 C    1.323    84 N    1.225    82 C    1.180
    84   7 N    3.297 --    80 C    1.262    83 C    1.225    59 Zn   0.457
    85   6 C    3.933 --    83 C    1.323    93 C    1.314    86 C    1.028
    86   6 C    3.989 --    92 C    1.394    87 C    1.384    85 C    1.028
    87   6 C    3.988 --    88 C    1.466    86 C    1.384   110 H    0.973
                            91 C    0.103
    88   6 C    3.990 --    87 C    1.466    89 C    1.365   111 H    0.971
                            92 C    0.105
    89   6 C    3.901 --    91 C    1.372    88 C    1.365    90 O    1.038
    90   8 O    2.041 --    89 C    1.038   112 H    0.866
    91   6 C    3.988 --    92 C    1.452    89 C    1.372   113 H    0.970
                            87 C    0.103
    92   6 C    3.987 --    91 C    1.452    86 C    1.394   114 H    0.973
                            88 C    0.105
    93   6 C    3.918 --    85 C    1.314    97 N    1.244    94 C    1.173
    94   6 C    3.963 --    95 C    1.657    93 C    1.173   115 H    0.973
    95   6 C    3.960 --    94 C    1.657    96 C    1.172   116 H    0.976
    96   6 C    3.923 --    60 C    1.356    97 N    1.233    95 C    1.172
    97   7 N    3.293 --    93 C    1.244    96 C    1.233    59 Zn   0.460
    98   1 H    1.002 --    60 C    0.971
    99   1 H    0.998 --    62 C    0.976
   100   1 H    1.005 --    63 C    0.973
   101   1 H    1.005 --    68 C    0.973
   102   1 H    0.999 --    69 C    0.970
   103   1 H    0.887 --    71 O    0.866
   104   1 H    0.999 --    72 C    0.971
   105   1 H    1.005 --    73 C    0.973
   106   1 H    1.005 --    75 C    0.973
   107   1 H    1.003 --    76 C    0.974
   108   1 H    1.003 --    81 C    0.974
   109   1 H    1.005 --    82 C    0.973
   110   1 H    1.005 --    87 C    0.973
   111   1 H    0.999 --    88 C    0.971
   112   1 H    0.888 --    90 O    0.866
   113   1 H    0.999 --    91 C    0.970
   114   1 H    1.005 --    92 C    0.973
   115   1 H    1.005 --    94 C    0.973
   116   1 H    0.998 --    95 C    0.976
   117   6 C    3.934 --   118 C    2.475   119 C    1.309
   118   6 C    3.925 --   117 C    2.475    21 C    1.190   120 C    0.199
   119   6 C    3.934 --   120 C    2.475   117 C    1.309
   120   6 C    3.925 --   119 C    2.475    79 C    1.190   118 C    0.199
 ---------------------------------------------------------------------------

           -------------------------------------------------
          | TOTAL ENERGY             -210.062817865116 Eh   |
          | GRADIENT NORM               0.000760968602 Eh/α |
          | HOMO-LUMO GAP               1.076071250630 eV   |
           -------------------------------------------------

 * finished run on 2022/07/30 at 11:34:40.532
