   * xtb version 6.5.1 (b24c23e) compiled by 'conda@728c89f4b128' on 2022-07-12
          program call               : xtb H_C2_3.xyz --gfn 1 --opt -T 48

   ID    Z sym.   atoms
    1    6 C      1-5, 7-10, 12-17, 19-23, 38-42, 44-47, 49-54, 56-60, 75-83,
                  85-88, 90-95, 97-101
    2    7 N      6, 11, 18, 24, 43, 48, 55, 61, 84, 89, 96, 102
    3    1 H      25-37, 62-74, 103-114

          :  Hamiltonian                  GFN1-xTB          :
 * total energy  :  -193.1904598 Eh     change       -0.9692371E-09 Eh
 * total energy  :  -193.3294593 Eh     change       -0.1389996E+00 Eh
 * total energy  :  -193.4151528 Eh     change       -0.8569342E-01 Eh
 * total energy  :  -193.4344665 Eh     change       -0.1931371E-01 Eh
 * total energy  :  -193.4451762 Eh     change       -0.1070975E-01 Eh
 * total energy  :  -193.4540464 Eh     change       -0.8870239E-02 Eh
 * total energy  :  -193.4672442 Eh     change       -0.1319776E-01 Eh
 * total energy  :  -193.4842823 Eh     change       -0.1703810E-01 Eh
 * total energy  :  -193.5068095 Eh     change       -0.2252723E-01 Eh
 * total energy  :  -193.5354875 Eh     change       -0.2867795E-01 Eh
 * total energy  :  -193.8836070 Eh     change       -0.4003170E-04 Eh
 * total energy  :  -193.8836432 Eh     change       -0.3612864E-04 Eh
 * total energy  :  -193.8836764 Eh     change       -0.3318981E-04 Eh
 * total energy  :  -193.8836831 Eh     change       -0.6721903E-05 Eh
 * total energy  :  -193.8836935 Eh     change       -0.1046342E-04 Eh
 * total energy  :  -193.8837085 Eh     change       -0.1498438E-04 Eh
 * total energy  :  -193.8837273 Eh     change       -0.1874523E-04 Eh
 * total energy  :  -193.8837371 Eh     change       -0.9873350E-05 Eh
 * total energy  :  -193.8837407 Eh     change       -0.3527190E-05 Eh
   *** GEOMETRY OPTIMIZATION CONVERGED AFTER 73 ITERATIONS ***

 final structure:
================
114
 xtb: 6.5.1 (b24c23e)
C           14.94658722694832       -0.01175028196377       -0.00943511545668
C           15.55509822479339       -1.25812442418820       -0.08411943996128
C           14.92813069538270       -2.53475461628890       -0.16319834729194
C           15.91096229985300       -3.48237061670452       -0.22237330364455
C           17.16896606423572       -2.81472973917742       -0.18158839742006
N           16.90300133881254       -1.47882960720358       -0.09712398817292
C           18.43088729696242       -3.39494579859748       -0.22557883861223
C           19.66176505829162       -2.75518400603035       -0.19107066039932
C           20.92324246208112       -3.47013443366503       -0.25929895028670
C           21.89329783769689       -2.53487760238661       -0.20069417457633
N           19.88648911899939       -1.41634085305032       -0.09354877093154
C           21.22438459374005       -1.25206572588863       -0.09270462041600
C           21.90591199985796       -0.01976625953297        0.00124780242699
C           21.26657114677115        1.23247237914835        0.09378418423919
C           21.88109626920599        2.50834411686535        0.19979720351646
C           20.89319225244154        3.45199872092097        0.25836947890569
C           19.64221532072204        2.77857322409619        0.19244654735223
N           19.91956494042810        1.44158172238927        0.09534288128058
C           18.38266076887649        3.36495357221974        0.22194204045534
C           17.14978852803972        2.72782647688830        0.17005524434342
C           15.87898442981745        3.43526165119081        0.20941662074112
C           14.91623334292262        2.49368572482533        0.14520879811945
C           15.59991134114191        1.21264437556213        0.06692368988978
N           16.94192187840425        1.39318727140722        0.08303248228082
H           13.86190627663201       -0.00241305227985       -0.01103135942006
H           13.86126429654126       -2.69203197552069       -0.17303290081953
H           15.78963031212304       -4.55195874170201       -0.28905146530707
H           17.60314562921610       -0.74605664239672       -0.05165726981384
H           18.44725891996497       -4.47783058631488       -0.29893808121052
H           21.02034329239196       -4.54124329357802       -0.34245595534977
H           22.96121444933280       -2.67308753068261       -0.22974312463238
H           22.94488722943289        2.67472002491026        0.23029463017895
H           21.00967903129634        4.52080770619622        0.34113382040588
H           19.22393235877544        0.70523201897966        0.03403493357283
H           18.37241740497612        4.44771359303969        0.29702011304689
H           15.77448212751836        4.50696241293288        0.27743373891542
H           13.84468434725330        2.61921057202276        0.14884191303639
C           43.97097441976439        0.02592654610916       -0.00175048420868
C           43.35999209043064        1.25212648709054       -0.23083458282036
C           43.98547513568463        2.51066713402319       -0.46348414714483
C           43.00169632348802        3.44089906524117       -0.64858240010510
C           41.74450537927254        2.78028527511776       -0.53482847695335
N           42.01189676264143        1.46631646258966       -0.28031810824824
C           40.48185723921549        3.34537704208595       -0.66728037933644
C           39.25328361571898        2.70886575947959       -0.56242389870963
C           37.98848797472412        3.39830115218577       -0.74262348585756
C           37.02291046485355        2.47318868888895       -0.56578862757102
N           39.03536316070323        1.39456031341965       -0.28432393778164
C           37.69869066891123        1.22292244498180       -0.27273906278474
C           37.02297350647621        0.01194955515193       -0.01286405941250
C           37.66283647414986       -1.21519116629244        0.24925464834838
C           37.04815696283723       -2.46409126457950        0.53205514962251
C           38.03666685073065       -3.39156569985137        0.71337501298405
C           39.28742699474945       -2.73398862534969        0.55100587181041
N           39.00968236184102       -1.42240037944572        0.27477542253317
C           40.54833088489368       -3.30944137882376        0.65160454973410
C           41.77861303210971       -2.68001098726926        0.51335712012956
C           43.05243469527374       -3.37186301556445        0.63815223928850
C           44.01107569755722       -2.44149342197199        0.45653425358907
C           43.32191717754231       -1.18270815785622        0.22140906755987
N           41.98071568062385       -1.36571761319471        0.26009373102242
H           45.05571316953255        0.02022911949044        0.00179532068110
H           45.05213629073221        2.66826758584100       -0.48451034318537
H           43.12186717948261        4.49405728824049       -0.84757472672688
H           41.31202982698359        0.74367983977444       -0.14925260874220
H           40.46306882851355        4.40917541414324       -0.88217352796120
H           37.88644089527941        4.44664110465996       -0.97545572288801
H           35.95434620423989        2.59702477480004       -0.62862657988576
H           35.98415121615158       -2.62312474909577        0.59213245647945
H           37.92083262849152       -4.43904203785101        0.94182325487181
H           39.70554356293936       -0.70175755309947        0.11278633796414
H           40.56236308406228       -4.37312101339687        0.86705018719708
H           43.16160240061942       -4.42650602403173        0.83790226527050
H           45.08315731682551       -2.56122507557216        0.47396044481258
C           23.31428418197933       -0.02371379035394        0.00376920411375
C           24.53294475125385       -0.01917852729298        0.00740050852224
C           34.39683198209573        0.01303779884521       -0.00513966755610
C           35.61495903649533        0.01356322581875       -0.01081002838006
C           25.94040733348639       -0.01183402348579        0.01075501157566
C           26.58406713359987        1.24136549252917       -0.03389614628164
C           25.98207113280301        2.52519761248029       -0.08967066683989
C           26.98037358057302        3.46090925788952       -0.09578962902505
C           28.22336665685150        2.77303431902425       -0.04810634682010
N           27.93305485074431        1.43667179228114       -0.01703843409397
C           29.48761208545817        3.35240970564090       -0.02367223832301
C           30.72382698450370        2.72633961947359        0.01065705118220
C           31.97755710477120        3.45739315237744        0.05355384654385
C           32.95799286802495        2.53087172800051        0.06318606736442
N           30.96299904815345        1.38691409052214       -0.00172363441370
C           32.30220623528961        1.23783343960435        0.02088105614678
C           32.98981244945602        0.00622393365983       -0.00006720322122
C           32.34773559780372       -1.24790032051094       -0.01364464306243
C           32.95130456103134       -2.53197076191470       -0.04762310218251
C           31.95341742028933       -3.46816730490108       -0.02895753472308
C           30.71002787841335       -2.78027609021181        0.01179366814887
N           30.99922954526394       -1.44350651802862        0.01464249419373
C           29.44543664983323       -3.35772437708817        0.05286946700606
C           28.20981800586754       -2.72988638149900        0.07730686812875
C           26.95681206121515       -3.46074297767775        0.13565965163184
C           25.97603798494110       -2.53477539324895        0.12645614602641
C           26.62999840610246       -1.24220175278421        0.05864308154378
N           27.96948230236002       -1.39092540888805        0.03854935683471
H           24.92033042596823        2.70366310456843       -0.12264448922851
H           26.87485640284866        4.53349015019899       -0.13108209115390
H           28.61679785394800        0.68726705521381        0.01699259095448
H           29.49677427299413        4.43815042093304       -0.03234849667218
H           32.06269612240779        4.53252042231253        0.07596744954109
H           34.02435015754096        2.68107116481341        0.10160020201221
H           34.01336144998574       -2.70955567304671       -0.08569148556570
H           32.05936166838350       -4.54118620291760       -0.04383766384988
H           30.31507347694421       -0.69406366494491        0.03618387285094
H           29.43490661591365       -4.44339609943392        0.06665504650828
H           26.87221342162099       -4.53525660254011        0.17912958890790
H           24.91014403282270       -2.68556128102510        0.16542273893365

          :  Hamiltonian                  GFN1-xTB          :
         :: total energy            -193.883740672444 Eh    ::
         :: gradient norm              0.000313159709 Eh/a0 ::
         :: HOMO-LUMO gap              0.831508827022 eV    ::
         :: SCC energy              -197.044833549792 Eh    ::
         :: repulsion energy           3.255244618750 Eh    ::

    * Orbital Energies and Occupations

         #    Occupation            Energy/Eh            Energy/eV
      -------------------------------------------------------------
         1        2.0000           -0.8038516             -21.8739
       ...           ...                  ...                  ...
       165        2.0000           -0.4191162             -11.4047
       166        2.0000           -0.4164905             -11.3333
       167        2.0000           -0.4159010             -11.3172
       168        2.0000           -0.4157834             -11.3140
       169        2.0000           -0.4154373             -11.3046
       170        2.0000           -0.4153696             -11.3028
       171        2.0000           -0.4152688             -11.3000
       172        2.0000           -0.3993348             -10.8665
       173        2.0000           -0.3987044             -10.8493
       174        2.0000           -0.3985493             -10.8451
       175        2.0000           -0.3950171             -10.7490
       176        2.0000           -0.3864545             -10.5160
       177        2.0000           -0.3760163             -10.2319 (HOMO)
       178        0.0000           -0.3454589              -9.4004 (LUMO)
       179                         -0.3334768              -9.0744
       180                         -0.3306477              -8.9974
       181                         -0.3304286              -8.9914
       182                         -0.3302420              -8.9863
       183                         -0.3220501              -8.7634
       184                         -0.2998624              -8.1597
       185                         -0.2913173              -7.9271
       186                         -0.2860877              -7.7848
       187                         -0.2317679              -6.3067
       188                         -0.2307190              -6.2782
       ...                                ...                  ...
       380                          1.3348333              36.3227
      -------------------------------------------------------------
                  HL-Gap            0.0305574 Eh            0.8315 eV

Wiberg/Mayer (AO) data.
largest (>0.10) Wiberg bond orders for each atom

     #   Z sym  total        # sym  WBO       # sym  WBO       # sym  WBO
 ---------------------------------------------------------------------------
     1   6 C    3.928 --    23 C    1.363     2 C    1.350    25 H    0.972
     2   6 C    3.903 --     1 C    1.350     3 C    1.225     6 N    1.172
     3   6 C    3.953 --     4 C    1.602     2 C    1.225    26 H    0.977
     4   6 C    3.958 --     3 C    1.602     5 C    1.226    27 H    0.977
     5   6 C    3.897 --     7 C    1.343     4 C    1.226     6 N    1.174
     6   7 N    3.470 --     5 C    1.174     2 C    1.172    28 H    0.873
     7   6 C    3.944 --     8 C    1.378     5 C    1.343    29 H    0.971
     8   6 C    3.915 --     7 C    1.378    11 N    1.278     9 C    1.119
     9   6 C    3.965 --    10 C    1.715     8 C    1.119    30 H    0.976
    10   6 C    3.964 --     9 C    1.715    12 C    1.125    31 H    0.966
    11   7 N    3.025 --    12 C    1.351     8 C    1.278
    12   6 C    3.912 --    11 N    1.351    13 C    1.254    10 C    1.125
    13   6 C    3.942 --    12 C    1.254    14 C    1.253    75 C    1.188
    14   6 C    3.888 --    13 C    1.253    15 C    1.247    18 N    1.192
    15   6 C    3.959 --    16 C    1.586    14 C    1.247    32 H    0.967
    16   6 C    3.952 --    15 C    1.586    17 C    1.234    33 H    0.977
    17   6 C    3.899 --    19 C    1.348    16 C    1.234    18 N    1.163
    18   7 N    3.475 --    14 C    1.192    17 C    1.163    34 H    0.872
    19   6 C    3.928 --    20 C    1.366    17 C    1.348    35 H    0.971
    20   6 C    3.931 --    19 C    1.366    24 N    1.307    21 C    1.112
    21   6 C    3.967 --    22 C    1.730    20 C    1.112    36 H    0.976
    22   6 C    3.966 --    21 C    1.730    23 C    1.113    37 H    0.976
    23   6 C    3.929 --     1 C    1.363    24 N    1.309    22 C    1.113
    24   7 N    3.013 --    23 C    1.309    20 C    1.307
    25   1 H    1.001 --     1 C    0.972
    26   1 H    0.998 --     3 C    0.977
    27   1 H    0.998 --     4 C    0.977
    28   1 H    0.986 --     6 N    0.873
    29   1 H    1.002 --     7 C    0.971
    30   1 H    0.998 --     9 C    0.976
    31   1 H    1.007 --    10 C    0.966
    32   1 H    1.007 --    15 C    0.967
    33   1 H    0.998 --    16 C    0.977
    34   1 H    0.987 --    18 N    0.872
    35   1 H    1.002 --    19 C    0.971
    36   1 H    0.998 --    21 C    0.976
    37   1 H    0.998 --    22 C    0.976
    38   6 C    3.929 --    60 C    1.363    39 C    1.350    62 H    0.972
    39   6 C    3.903 --    38 C    1.350    40 C    1.225    43 N    1.172
    40   6 C    3.953 --    41 C    1.602    39 C    1.225    63 H    0.977
    41   6 C    3.958 --    40 C    1.602    42 C    1.226    64 H    0.977
    42   6 C    3.897 --    44 C    1.343    41 C    1.226    43 N    1.174
    43   7 N    3.471 --    42 C    1.174    39 C    1.172    65 H    0.873
    44   6 C    3.944 --    45 C    1.378    42 C    1.343    66 H    0.971
    45   6 C    3.915 --    44 C    1.378    48 N    1.278    46 C    1.119
    46   6 C    3.965 --    47 C    1.715    45 C    1.119    67 H    0.976
    47   6 C    3.964 --    46 C    1.715    49 C    1.125    68 H    0.968
    48   7 N    3.025 --    49 C    1.351    45 C    1.278
    49   6 C    3.913 --    48 N    1.351    50 C    1.255    47 C    1.125
    50   6 C    3.942 --    49 C    1.255    51 C    1.254    78 C    1.187
    51   6 C    3.888 --    50 C    1.254    52 C    1.247    55 N    1.192
    52   6 C    3.959 --    53 C    1.586    51 C    1.247    69 H    0.969
    53   6 C    3.952 --    52 C    1.586    54 C    1.234    70 H    0.977
    54   6 C    3.899 --    56 C    1.348    53 C    1.234    55 N    1.163
    55   7 N    3.475 --    51 C    1.192    54 C    1.163    71 H    0.872
    56   6 C    3.928 --    57 C    1.366    54 C    1.348    72 H    0.971
    57   6 C    3.931 --    56 C    1.366    61 N    1.307    58 C    1.112
    58   6 C    3.967 --    59 C    1.730    57 C    1.112    73 H    0.976
    59   6 C    3.966 --    58 C    1.730    60 C    1.113    74 H    0.976
    60   6 C    3.929 --    38 C    1.363    61 N    1.309    59 C    1.113
    61   7 N    3.014 --    60 C    1.309    57 C    1.307
    62   1 H    1.001 --    38 C    0.972
    63   1 H    0.998 --    40 C    0.977
    64   1 H    0.998 --    41 C    0.977
    65   1 H    0.986 --    43 N    0.873
    66   1 H    1.002 --    44 C    0.971
    67   1 H    0.998 --    46 C    0.976
    68   1 H    1.007 --    47 C    0.968
    69   1 H    1.006 --    52 C    0.969
    70   1 H    0.998 --    53 C    0.977
    71   1 H    0.987 --    55 N    0.872
    72   1 H    1.002 --    56 C    0.971
    73   1 H    0.998 --    58 C    0.976
    74   1 H    0.998 --    59 C    0.976
    75   6 C    3.931 --    76 C    2.567    13 C    1.188
    76   6 C    3.934 --    75 C    2.567    79 C    1.191
    77   6 C    3.934 --    78 C    2.568    91 C    1.189
    78   6 C    3.930 --    77 C    2.568    50 C    1.187
    79   6 C    3.928 --   101 C    1.253    80 C    1.249    76 C    1.191
    80   6 C    3.889 --    81 C    1.251    79 C    1.249    84 N    1.192
    81   6 C    3.956 --    82 C    1.580    80 C    1.251   103 H    0.968
    82   6 C    3.953 --    81 C    1.580    83 C    1.239   104 H    0.977
    83   6 C    3.895 --    85 C    1.337    82 C    1.239    84 N    1.165
    84   7 N    3.471 --    80 C    1.192    83 C    1.165   105 H    0.871
    85   6 C    3.930 --    86 C    1.382    83 C    1.337   106 H    0.970
    86   6 C    3.919 --    85 C    1.382    89 N    1.275    87 C    1.119
    87   6 C    3.965 --    88 C    1.715    86 C    1.119   107 H    0.976
    88   6 C    3.964 --    87 C    1.715    90 C    1.126   108 H    0.968
    89   7 N    3.012 --    90 C    1.352    86 C    1.275
    90   6 C    3.914 --    89 N    1.352    91 C    1.254    88 C    1.126
    91   6 C    3.928 --    90 C    1.254    92 C    1.250    77 C    1.189
    92   6 C    3.890 --    93 C    1.251    91 C    1.250    96 N    1.192
    93   6 C    3.956 --    94 C    1.581    92 C    1.251   109 H    0.969
    94   6 C    3.953 --    93 C    1.581    95 C    1.239   110 H    0.977
    95   6 C    3.895 --    97 C    1.337    94 C    1.239    96 N    1.165
    96   7 N    3.472 --    92 C    1.192    95 C    1.165   111 H    0.871
    97   6 C    3.930 --    98 C    1.382    95 C    1.337   112 H    0.970
    98   6 C    3.918 --    97 C    1.382   102 N    1.275    99 C    1.119
    99   6 C    3.965 --   100 C    1.715    98 C    1.119   113 H    0.976
   100   6 C    3.964 --    99 C    1.715   101 C    1.127   114 H    0.966
   101   6 C    3.913 --   102 N    1.352    79 C    1.253   100 C    1.127
   102   7 N    3.013 --   101 C    1.352    98 C    1.275
   103   1 H    1.007 --    81 C    0.968
   104   1 H    0.998 --    82 C    0.977
   105   1 H    0.986 --    84 N    0.871
   106   1 H    1.002 --    85 C    0.970
   107   1 H    0.998 --    87 C    0.976
   108   1 H    1.007 --    88 C    0.968
   109   1 H    1.006 --    93 C    0.969
   110   1 H    0.998 --    94 C    0.977
   111   1 H    0.986 --    96 N    0.871
   112   1 H    1.002 --    97 C    0.970
   113   1 H    0.998 --    99 C    0.976
   114   1 H    1.007 --   100 C    0.966
 ---------------------------------------------------------------------------

           -------------------------------------------------
          | TOTAL ENERGY             -193.883740672444 Eh   |
          | GRADIENT NORM               0.000313159709 Eh/α |
          | HOMO-LUMO GAP               0.831508827022 eV   |
           -------------------------------------------------

 * finished run on 2022/07/26 at 13:17:49.511
