   * xtb version 6.5.1 (b24c23e) compiled by 'conda@728c89f4b128' on 2022-07-12
          program call               : xtb DMA_C8_2.xyz --gfn 1 --opt -T 48

   ID    Z sym.   atoms
    1    6 C      1-5, 7-11, 13-19, 21-26, 28-32, 34-41, 74-78, 80-84, 86-92,
                  94-99, 101-105, 107-114, 147-154
    2    7 N      6, 12, 20, 27, 33, 42, 79, 85, 93, 100, 106, 115
    3    1 H      43-73, 116-146
########################################################################
[WARNING] Please study the warnings concerning your input carefully
-1- prog_main_parseArguments: Unknown option '-T' provided
########################################################################

          :  Hamiltonian                  GFN1-xTB          :
 * total energy  :  -238.8305979 Eh     change        0.3280206E-08 Eh
 * total energy  :  -240.1784635 Eh     change       -0.1347866E+01 Eh
 * total energy  :  -240.3761238 Eh     change       -0.1976604E+00 Eh
 * total energy  :  -240.4565501 Eh     change       -0.8042630E-01 Eh
 * total energy  :  -240.4917401 Eh     change       -0.3518999E-01 Eh
 * total energy  :  -240.5106722 Eh     change       -0.1893211E-01 Eh
 * total energy  :  -240.5226511 Eh     change       -0.1197886E-01 Eh
 * total energy  :  -240.5292805 Eh     change       -0.6629439E-02 Eh
 * total energy  :  -240.5336648 Eh     change       -0.4384311E-02 Eh
 * total energy  :  -240.5367821 Eh     change       -0.3117264E-02 Eh
 * total energy  :  -240.5566043 Eh     change       -0.2208054E-04 Eh
 * total energy  :  -240.5566220 Eh     change       -0.1768213E-04 Eh
 * total energy  :  -240.5566416 Eh     change       -0.1962753E-04 Eh
 * total energy  :  -240.5566560 Eh     change       -0.1442880E-04 Eh
 * total energy  :  -240.5566689 Eh     change       -0.1288118E-04 Eh
 * total energy  :  -240.5566764 Eh     change       -0.7537019E-05 Eh
 * total energy  :  -240.5566829 Eh     change       -0.6515846E-05 Eh
 * total energy  :  -240.5566906 Eh     change       -0.7673546E-05 Eh
 * total energy  :  -240.5566944 Eh     change       -0.3738649E-05 Eh
   *** GEOMETRY OPTIMIZATION CONVERGED AFTER 91 ITERATIONS ***

 final structure:
================
154
 xtb: 6.5.1 (b24c23e)
C           12.20757492168028        0.04727215684554        0.11550486289933
C           12.81308472042017       -0.11285104239695        1.35563507463775
C           12.15805194972469       -0.21258240569564        2.61450785374219
C           13.11580922920558       -0.37835662028184        3.57596983320537
C           14.38608411524724       -0.39536298149303        2.93393506556320
N           14.15342409533188       -0.22041161239331        1.59912286267333
C           15.64564979560333       -0.54098701773024        3.52980586821868
C           15.66965630015463       -0.76697334509395        4.99274209810163
C           16.34860546958527        0.10440184644112        5.84636031881640
C           16.36579148543390       -0.10030679647484        7.21381798395462
C           15.70612513111839       -1.19768313337064        7.78806756149096
N           15.77266695489672       -1.43841309958833        9.15720045882183
C           16.10028699595700       -0.30436706022820       10.02270701768717
C           14.78699486322053       -2.35667289061172        9.72834165397985
C           15.03837406415124       -2.08101490577197        6.92657195934055
C           15.01615612219339       -1.86173035775289        5.56116833039804
C           16.86085341690482       -0.49049006119688        2.84178038557066
C           18.15451259001113       -0.70863111334943        3.46253968068154
C           19.07611484486326       -0.56994085050947        2.48653921509535
N           17.01751928731957       -0.25087141812076        1.50975974463804
C           18.34333119054113       -0.28193743958161        1.26933964547034
C           18.98314461518040       -0.06887302844071        0.03048659313952
C           18.35224947074948        0.15096047103187       -1.20940440404700
C           19.00302564437289        0.39146435061582       -2.44790370953510
C           18.04066138561831        0.53587064543521       -3.40916250550628
C           16.77149903460814        0.37850134236798       -2.78740820356041
N           17.01212168856622        0.15763736663022       -1.45647004611603
C           15.51232316023338        0.45634036996047       -3.39406109432215
C           15.48599192812758        0.65785948666243       -4.85953951727244
C           14.83473761086890        1.75655683242603       -5.42383909674896
C           14.81562437948787        1.95402173551109       -6.79226106679782
C           15.44537833303623        1.04963332563186       -7.66102709648510
N           15.37933900340712        1.21296269350746       -9.04106294149888
C           16.36255015030356        0.49293259687552       -9.85154582174674
C           15.05288066924855        2.54652257007153       -9.54652903769414
C           16.08436754109937       -0.06310080269110       -7.09292206044477
C           16.10887722737492       -0.24614104307788       -5.72241519274514
C           14.29449458704199        0.35883792980081       -2.70975728995510
C           12.98995916327328        0.38052203853189       -3.35173057898538
C           12.07597727589266        0.27447712732690       -2.36561294065288
C           12.82125375428542        0.17124150217740       -1.12406185645668
N           14.15382990740012        0.21569696840229       -1.37060065734076
H           11.12241045273657        0.07270838564161        0.12558095085593
H           11.09017836573041       -0.15614343369362        2.75426380167268
H           12.96113506108905       -0.46954218064085        4.63890772408468
H           14.88154769871445       -0.17136866982308        0.89430446271138
H           16.85318860557347        0.97118640274837        5.43346457118141
H           16.90549009445266        0.60699681030928        7.83020160391457
H           15.42161693664959        0.53891280001866        9.85327972385117
H           16.02499308933599       -0.62011112277304       11.06260886480273
H           17.12717937159379        0.01299444857924        9.83852709608001
H           13.76256079447146       -2.03578003985220        9.50883666368624
H           14.94733202568615       -3.35896797193655        9.32994304420090
H           14.92571735294860       -2.39597387899696       10.80820686079158
H           14.53147558711218       -2.95641220336227        7.31159067825708
H           14.50128633994625       -2.56902429963929        4.91973973307460
H           18.31507402711656       -0.95165841017577        4.50041855073855
H           20.14840467636850       -0.66079926128805        2.55544907415869
H           20.07178346607861        0.45146279217932       -2.57644095011976
H           18.19430660219927        0.74654513837077       -4.45494029229776
H           16.28673246000487        0.03179795571467       -0.75814100474286
H           14.35639967388210        2.48377801411072       -4.77675894280561
H           14.30035976999016        2.82511207757972       -7.17566453663682
H           16.23938380609562        0.78103145304597      -10.89496058786373
H           17.38717963434457        0.71860930505006       -9.53497141218147
H           16.18644137450775       -0.58062888724104       -9.77373214823609
H           14.03229220796462        2.80557421884753       -9.26367495065464
H           15.11012849009487        2.53575918706802      -10.63437885129412
H           15.74292369068872        3.30343901126817       -9.15786872941611
H           16.56560771093501       -0.80551102959294       -7.71666644044272
H           16.59999514155286       -1.12300895427124       -5.31420518901071
H           12.81996645092055        0.45052986611667       -4.41408616700059
H           10.99993839170057        0.25222932640295       -2.44125288930682
C           37.49900214126333        0.03971964957356       -0.10312334306939
C           36.89468495931549        0.17977365248969       -1.34633170438100
C           37.55258509751827        0.36900938359646       -2.59346081767363
C           36.59611132669722        0.44369291334078       -3.56750212071410
C           35.32369281451242        0.29158762789431       -2.94788106697478
N           35.55416396417426        0.14731143425242       -1.60890735471416
C           34.06413010250113        0.30215954831088       -3.56108101516934
C           34.03978268926166        0.42827448377980       -5.03585908926093
C           33.36643613762224        1.48080998492836       -5.65860697082364
C           33.34747490228416        1.60529804711016       -7.03577645133780
C           34.00028565133588        0.67074813326854       -7.85392616641805
N           33.93444695327072        0.75597595344384       -9.24134513992002
C           33.56440505827579        2.04750130802952       -9.82091070643190
C           34.94750105715961        0.02838579004130      -10.00717077050495
C           34.66308835338075       -0.39491942765774       -7.22627676826006
C           34.68661039686925       -0.50510367061064       -5.84793841446564
C           32.84847327205354        0.19821084481941       -2.87953907366870
C           31.55423938920373        0.13976068736430       -3.53386942141915
C           30.63269933399795        0.04734908607477       -2.55238967469422
N           32.69201581542637        0.11736761272476       -1.52873703987213
C           31.36580436816010        0.03655023547397       -1.30182219862436
C           30.72541204886026       -0.04350050084105       -0.04762667563849
C           31.35555437909187       -0.11879326357047        1.20984744797565
C           30.70344412792380       -0.16466876530181        2.46991532481013
C           31.66452790156689       -0.25015511518213        3.43954507141490
C           32.93406526322394       -0.26949108769642        2.79935284399358
N           32.69507061790012       -0.17701394455805        1.45298099949483
C           34.19265646062264       -0.34416288656284        3.40811051175824
C           34.21763241367983       -0.49007595807579        4.87995811943643
C           34.88378899274003        0.43542703157023        5.68575185658873
C           34.90303617924160        0.30604249804573        7.06249191637420
C           34.25718021632084       -0.76675536671241        7.69557393515823
N           34.32190727977299       -0.93840221757534        9.07468465979443
C           33.29714894096468       -1.77967362656274        9.69493348926689
C           34.71307830714726        0.21643864638714        9.88281212883650
C           33.60121815275723       -1.70415372429878        6.88289732716047
C           33.57799985518601       -1.56101329633326        5.50791378033790
C           35.41071783586055       -0.29168656837012        2.71893478924878
C           36.71442633811524       -0.43418013991052        3.34728076714065
C           37.62884161229348       -0.31810663193617        2.36268290487012
C           36.88475436723179       -0.12133718589571        1.13182522754611
N           35.55215748411700       -0.12085107595624        1.38325418281029
H           38.58444056532760        0.05454563467190       -0.10815688159524
H           38.62148350467876        0.44381503278999       -2.71569048595824
H           36.75350242935052        0.60129519969802       -4.62223644406687
H           34.82408764398024        0.03821340011776       -0.91286821404735
H           32.86802310075400        2.22902396041136       -5.05178645512019
H           32.81365192669899        2.44296121063068       -7.46572244849495
H           34.23338430401144        2.84694603726537       -9.48328452561691
H           33.61474003823916        1.97419955057249      -10.90674883930036
H           32.53798590244672        2.29140306897755       -9.54534724160581
H           35.96106320533606        0.30072802216917       -9.69267107596435
H           34.80346085066291       -1.04491681566417       -9.87858520048269
H           34.82661452881057        0.26165159129884      -11.06441814112118
H           35.16277664184062       -1.15811938057546       -7.80893871386464
H           35.19602146395343       -1.34780232263273       -5.39276222975091
H           31.39327180338804        0.15043313199869       -4.59968896883403
H           29.56008838216557       -0.01991873891117       -2.64052739101751
H           29.63479540691201       -0.12880187248855        2.60792558972371
H           31.50945263254320       -0.28294518673476        4.50562201814599
H           33.42169574481434       -0.14419452495700        0.74543119269309
H           35.37413076371401        1.28728667510013        5.22709212187674
H           35.42958237308214        1.05607296248363        7.63838281686390
H           33.41315393220732       -1.73859219000087       10.77738365514631
H           32.28862465969252       -1.44481049752088        9.42862832388068
H           33.43108924753777       -2.81479269305810        9.37901559960200
H           35.73869236948434        0.49900284443970        9.64363470579197
H           34.67555300624222       -0.06145818819338       10.93566478937796
H           34.04906958393764        1.07135549932972        9.71285633491308
H           33.10753238907967       -2.56435054682596        7.31645941755433
H           33.07520926058305       -2.31042230278302        4.90597611521650
H           36.88354597629203       -0.61555942427669        4.39653028953408
H           38.70444358515437       -0.36936450902314        2.43017784167904
C           20.38774524580352       -0.07715093671783        0.01627275962231
C           21.61271894923143       -0.08138443936912        0.00621023937508
C           22.95458774951155       -0.08121183823518       -0.00399636034779
C           24.18566915745935       -0.07824760015871       -0.01350392904459
C           25.52286509801795       -0.07354509091195       -0.02084519595243
C           26.75393530351007       -0.06598019101866       -0.02411410465486
C           28.09579229667154       -0.05777363645938       -0.03082368565188
C           29.32082899311826       -0.05253617514217       -0.03758084060716

          :  Hamiltonian                  GFN1-xTB          :
         :: total energy            -240.556694362318 Eh    ::
         :: gradient norm              0.000857965059 Eh/a0 ::
         :: HOMO-LUMO gap              0.955454832265 eV    ::
         :: SCC energy              -244.511114521955 Eh    ::
         :: repulsion energy           4.075330631415 Eh    ::

    * Orbital Energies and Occupations

         #    Occupation            Energy/Eh            Energy/eV
      -------------------------------------------------------------
         1        2.0000           -0.7939884             -21.6055
       ...           ...                  ...                  ...
       209        2.0000           -0.4067291             -11.0677
       210        2.0000           -0.4050631             -11.0223
       211        2.0000           -0.4050406             -11.0217
       212        2.0000           -0.4028780             -10.9629
       213        2.0000           -0.3972820             -10.8106
       214        2.0000           -0.3894463             -10.5974
       215        2.0000           -0.3894415             -10.5972
       216        2.0000           -0.3870819             -10.5330
       217        2.0000           -0.3848895             -10.4734
       218        2.0000           -0.3838987             -10.4464
       219        2.0000           -0.3837728             -10.4430
       220        2.0000           -0.3726219             -10.1396
       221        2.0000           -0.3663430              -9.9687 (HOMO)
       222                         -0.3312306              -9.0132 (LUMO)
       223                         -0.3218766              -8.7587
       224                         -0.3200003              -8.7077
       225                         -0.3198397              -8.7033
       226                         -0.2933066              -7.9813
       227                         -0.2902765              -7.8988
       228                         -0.2846095              -7.7446
       229                         -0.2653931              -7.2217
       230                         -0.2536494              -6.9022
       231                         -0.2536245              -6.9015
       232                         -0.2535062              -6.8983
       ...                                ...                  ...
       492                          1.6155463              43.9613
      -------------------------------------------------------------
                  HL-Gap            0.0351123 Eh            0.9555 eV

Wiberg/Mayer (AO) data.
largest (>0.10) Wiberg bond orders for each atom

     #   Z sym  total        # sym  WBO       # sym  WBO       # sym  WBO
 ---------------------------------------------------------------------------
     1   6 C    3.922 --    41 C    1.366     2 C    1.344    43 H    0.971
     2   6 C    3.904 --     1 C    1.344     3 C    1.233     6 N    1.169
     3   6 C    3.951 --     4 C    1.590     2 C    1.233    44 H    0.977
     4   6 C    3.959 --     3 C    1.590     5 C    1.239    45 H    0.974
     5   6 C    3.894 --     7 C    1.297     4 C    1.239     6 N    1.178
     6   7 N    3.469 --     5 C    1.178     2 C    1.169    46 H    0.873
     7   6 C    3.939 --    17 C    1.335     5 C    1.297     8 C    1.037
     8   6 C    3.987 --    16 C    1.377     9 C    1.376     7 C    1.037
     9   6 C    3.987 --    10 C    1.473     8 C    1.376    47 H    0.972
    10   6 C    3.989 --     9 C    1.473    11 C    1.341    48 H    0.968
    11   6 C    3.951 --    15 C    1.342    10 C    1.341    12 N    1.110
    12   7 N    3.220 --    11 C    1.110    14 C    0.964    13 C    0.963
    13   6 C    3.969 --    50 H    0.985    51 H    0.983    49 H    0.983
                            12 N    0.963
    14   6 C    3.969 --    54 H    0.985    52 H    0.983    53 H    0.983
                            12 N    0.964
    15   6 C    3.989 --    16 C    1.472    11 C    1.342    55 H    0.968
    16   6 C    3.987 --    15 C    1.472     8 C    1.377    56 H    0.972
    17   6 C    3.913 --     7 C    1.335    20 N    1.284    18 C    1.127
    18   6 C    3.966 --    19 C    1.707    17 C    1.127    57 H    0.973
    19   6 C    3.963 --    18 C    1.707    21 C    1.130    58 H    0.974
    20   7 N    3.020 --    21 C    1.346    17 C    1.284
    21   6 C    3.908 --    20 N    1.346    22 C    1.250    19 C    1.130
    22   6 C    3.934 --    21 C    1.250    23 C    1.248   147 C    1.195
    23   6 C    3.885 --    24 C    1.251    22 C    1.248    27 N    1.190
    24   6 C    3.957 --    25 C    1.579    23 C    1.251    59 H    0.975
    25   6 C    3.955 --    24 C    1.579    26 C    1.244    60 H    0.974
    26   6 C    3.897 --    28 C    1.306    25 C    1.244    27 N    1.164
    27   7 N    3.473 --    23 C    1.190    26 C    1.164    61 H    0.873
    28   6 C    3.924 --    38 C    1.315    26 C    1.306    29 C    1.040
    29   6 C    3.987 --    37 C    1.375    30 C    1.375    28 C    1.040
    30   6 C    3.985 --    31 C    1.474    29 C    1.375    62 H    0.972
    31   6 C    3.989 --    30 C    1.474    32 C    1.341    63 H    0.968
    32   6 C    3.950 --    36 C    1.341    31 C    1.341    33 N    1.111
    33   7 N    3.220 --    32 C    1.111    35 C    0.963    34 C    0.963
    34   6 C    3.969 --    64 H    0.985    65 H    0.983    66 H    0.983
                            33 N    0.963
    35   6 C    3.969 --    68 H    0.985    67 H    0.983    69 H    0.983
                            33 N    0.963
    36   6 C    3.989 --    37 C    1.473    32 C    1.341    70 H    0.968
    37   6 C    3.986 --    36 C    1.473    29 C    1.375    71 H    0.972
    38   6 C    3.927 --    42 N    1.320    28 C    1.315    39 C    1.121
    39   6 C    3.967 --    40 C    1.718    38 C    1.121    72 H    0.973
    40   6 C    3.966 --    39 C    1.718    41 C    1.119    73 H    0.976
    41   6 C    3.930 --     1 C    1.366    42 N    1.298    40 C    1.119
    42   7 N    3.010 --    38 C    1.320    41 C    1.298
    43   1 H    1.002 --     1 C    0.971
    44   1 H    0.998 --     3 C    0.977
    45   1 H    1.006 --     4 C    0.974
    46   1 H    0.986 --     6 N    0.873
    47   1 H    1.006 --     9 C    0.972
    48   1 H    1.002 --    10 C    0.968
    49   1 H    1.003 --    13 C    0.983
    50   1 H    1.009 --    13 C    0.985
    51   1 H    1.013 --    13 C    0.983
    52   1 H    1.003 --    14 C    0.983
    53   1 H    1.013 --    14 C    0.983
    54   1 H    1.009 --    14 C    0.985
    55   1 H    1.002 --    15 C    0.968
    56   1 H    1.005 --    16 C    0.972
    57   1 H    1.006 --    18 C    0.973
    58   1 H    1.003 --    19 C    0.974
    59   1 H    1.002 --    24 C    0.975
    60   1 H    1.006 --    25 C    0.974
    61   1 H    0.988 --    27 N    0.873
    62   1 H    1.006 --    30 C    0.972
    63   1 H    1.002 --    31 C    0.968
    64   1 H    1.009 --    34 C    0.985
    65   1 H    1.003 --    34 C    0.983
    66   1 H    1.013 --    34 C    0.983
    67   1 H    1.013 --    35 C    0.983
    68   1 H    1.009 --    35 C    0.985
    69   1 H    1.003 --    35 C    0.983
    70   1 H    1.002 --    36 C    0.968
    71   1 H    1.005 --    37 C    0.972
    72   1 H    1.006 --    39 C    0.973
    73   1 H    0.999 --    40 C    0.976
    74   6 C    3.922 --   114 C    1.367    75 C    1.344   116 H    0.971
    75   6 C    3.904 --    74 C    1.344    76 C    1.233    79 N    1.169
    76   6 C    3.951 --    77 C    1.590    75 C    1.233   117 H    0.977
    77   6 C    3.959 --    76 C    1.590    78 C    1.239   118 H    0.974
    78   6 C    3.894 --    80 C    1.297    77 C    1.239    79 N    1.177
    79   7 N    3.469 --    78 C    1.177    75 C    1.169   119 H    0.873
    80   6 C    3.939 --    90 C    1.334    78 C    1.297    81 C    1.038
    81   6 C    3.987 --    89 C    1.377    82 C    1.376    80 C    1.038
    82   6 C    3.986 --    83 C    1.473    81 C    1.376   120 H    0.972
    83   6 C    3.989 --    82 C    1.473    84 C    1.341   121 H    0.968
    84   6 C    3.951 --    83 C    1.341    88 C    1.341    85 N    1.110
    85   7 N    3.220 --    84 C    1.110    86 C    0.964    87 C    0.963
    86   6 C    3.969 --   123 H    0.985   124 H    0.983   122 H    0.983
                            85 N    0.964
    87   6 C    3.969 --   127 H    0.985   125 H    0.983   126 H    0.983
                            85 N    0.963
    88   6 C    3.989 --    89 C    1.472    84 C    1.341   128 H    0.968
    89   6 C    3.987 --    88 C    1.472    81 C    1.377   129 H    0.972
    90   6 C    3.913 --    80 C    1.334    93 N    1.285    91 C    1.127
    91   6 C    3.966 --    92 C    1.707    90 C    1.127   130 H    0.973
    92   6 C    3.963 --    91 C    1.707    94 C    1.130   131 H    0.974
    93   7 N    3.020 --    94 C    1.346    90 C    1.285
    94   6 C    3.908 --    93 N    1.346    95 C    1.251    92 C    1.130
    95   6 C    3.934 --    94 C    1.251    96 C    1.248   154 C    1.195
    96   6 C    3.885 --    97 C    1.252    95 C    1.248   100 N    1.190
    97   6 C    3.957 --    98 C    1.579    96 C    1.252   132 H    0.975
    98   6 C    3.955 --    97 C    1.579    99 C    1.244   133 H    0.974
    99   6 C    3.897 --   101 C    1.306    98 C    1.244   100 N    1.164
   100   7 N    3.473 --    96 C    1.190    99 C    1.164   134 H    0.873
   101   6 C    3.924 --   111 C    1.315    99 C    1.306   102 C    1.041
   102   6 C    3.987 --   103 C    1.375   110 C    1.374   101 C    1.041
   103   6 C    3.985 --   104 C    1.473   102 C    1.375   135 H    0.972
   104   6 C    3.988 --   103 C    1.473   105 C    1.341   136 H    0.968
   105   6 C    3.950 --   104 C    1.341   109 C    1.340   106 N    1.111
   106   7 N    3.220 --   105 C    1.111   108 C    0.964   107 C    0.962
   107   6 C    3.969 --   137 H    0.985   138 H    0.983   139 H    0.983
                           106 N    0.962
   108   6 C    3.969 --   141 H    0.985   140 H    0.983   142 H    0.983
                           106 N    0.964
   109   6 C    3.989 --   110 C    1.474   105 C    1.340   143 H    0.968
   110   6 C    3.986 --   109 C    1.474   102 C    1.374   144 H    0.972
   111   6 C    3.927 --   115 N    1.320   101 C    1.315   112 C    1.121
   112   6 C    3.967 --   113 C    1.718   111 C    1.121   145 H    0.973
   113   6 C    3.966 --   112 C    1.718   114 C    1.119   146 H    0.976
   114   6 C    3.930 --    74 C    1.367   115 N    1.297   113 C    1.119
   115   7 N    3.010 --   111 C    1.320   114 C    1.297
   116   1 H    1.002 --    74 C    0.971
   117   1 H    0.998 --    76 C    0.977
   118   1 H    1.006 --    77 C    0.974
   119   1 H    0.986 --    79 N    0.873
   120   1 H    1.006 --    82 C    0.972
   121   1 H    1.002 --    83 C    0.968
   122   1 H    1.003 --    86 C    0.983
   123   1 H    1.009 --    86 C    0.985
   124   1 H    1.013 --    86 C    0.983
   125   1 H    1.003 --    87 C    0.983
   126   1 H    1.013 --    87 C    0.983
   127   1 H    1.009 --    87 C    0.985
   128   1 H    1.002 --    88 C    0.968
   129   1 H    1.005 --    89 C    0.972
   130   1 H    1.006 --    91 C    0.973
   131   1 H    1.003 --    92 C    0.974
   132   1 H    1.002 --    97 C    0.975
   133   1 H    1.006 --    98 C    0.974
   134   1 H    0.988 --   100 N    0.873
   135   1 H    1.006 --   103 C    0.972
   136   1 H    1.002 --   104 C    0.968
   137   1 H    1.009 --   107 C    0.985
   138   1 H    1.003 --   107 C    0.983
   139   1 H    1.013 --   107 C    0.983
   140   1 H    1.013 --   108 C    0.983
   141   1 H    1.009 --   108 C    0.985
   142   1 H    1.003 --   108 C    0.983
   143   1 H    1.002 --   109 C    0.968
   144   1 H    1.005 --   110 C    0.972
   145   1 H    1.006 --   112 C    0.973
   146   1 H    0.999 --   113 C    0.976
   147   6 C    3.876 --   148 C    2.433    22 C    1.195   150 C    0.186
   148   6 C    3.931 --   147 C    2.433   149 C    1.348
   149   6 C    3.891 --   150 C    2.331   148 C    1.348   152 C    0.182
   150   6 C    3.924 --   149 C    2.331   151 C    1.373   147 C    0.186
   151   6 C    3.924 --   152 C    2.331   150 C    1.373   154 C    0.186
   152   6 C    3.892 --   151 C    2.331   153 C    1.348   149 C    0.182
   153   6 C    3.931 --   154 C    2.433   152 C    1.348
   154   6 C    3.876 --   153 C    2.433    95 C    1.195   151 C    0.186
 ---------------------------------------------------------------------------

           -------------------------------------------------
          | TOTAL ENERGY             -240.556694362318 Eh   |
          | GRADIENT NORM               0.000857965059 Eh/α |
          | HOMO-LUMO GAP               0.955454832265 eV   |
           -------------------------------------------------

 * finished run on 2022/07/29 at 01:13:21.630
