   * xtb version 6.5.1 (b24c23e) compiled by 'conda@728c89f4b128' on 2022-07-12
          program call               : xtb DMA_C6_2.xyz --gfn 1 --opt -T 48

   ID    Z sym.   atoms
    1    6 C      1-5, 7-11, 13-19, 21-26, 28-32, 34-41, 74-78, 80-84, 86-92,
                  94-99, 101-105, 107-114, 147-152
    2    7 N      6, 12, 20, 27, 33, 42, 79, 85, 93, 100, 106, 115
    3    1 H      43-73, 116-146
########################################################################
[WARNING] Please study the warnings concerning your input carefully
-1- prog_main_parseArguments: Unknown option '-T' provided
########################################################################

          :  Hamiltonian                  GFN1-xTB          :
 * total energy  :  -236.0783567 Eh     change       -0.1039410E-08 Eh
 * total energy  :  -236.2650584 Eh     change       -0.1867017E+00 Eh
 * total energy  :  -236.3357334 Eh     change       -0.7067504E-01 Eh
 * total energy  :  -236.3554935 Eh     change       -0.1976007E-01 Eh
 * total energy  :  -236.3640284 Eh     change       -0.8534887E-02 Eh
 * total energy  :  -236.3689899 Eh     change       -0.4961475E-02 Eh
 * total energy  :  -236.3715363 Eh     change       -0.2546420E-02 Eh
 * total energy  :  -236.3730355 Eh     change       -0.1499225E-02 Eh
 * total energy  :  -236.3741457 Eh     change       -0.1110197E-02 Eh
 * total energy  :  -236.3747782 Eh     change       -0.6324945E-03 Eh
 * total energy  :  -236.3826130 Eh     change       -0.1229804E-04 Eh
 * total energy  :  -236.3826256 Eh     change       -0.1256778E-04 Eh
 * total energy  :  -236.3826390 Eh     change       -0.1334331E-04 Eh
 * total energy  :  -236.3826520 Eh     change       -0.1304133E-04 Eh
 * total energy  :  -236.3826644 Eh     change       -0.1244564E-04 Eh
 * total energy  :  -236.3826760 Eh     change       -0.1157759E-04 Eh
 * total energy  :  -236.3826850 Eh     change       -0.8977265E-05 Eh
 * total energy  :  -236.3826909 Eh     change       -0.5908940E-05 Eh
 * total energy  :  -236.3826950 Eh     change       -0.4086990E-05 Eh
   *** GEOMETRY OPTIMIZATION CONVERGED AFTER 86 ITERATIONS ***

 final structure:
================
152
 xtb: 6.5.1 (b24c23e)
C           13.48030566991379        0.02218569806473        0.12528677162134
C           14.08606448086248       -0.13931539347056        1.36513941802986
C           13.43045753317137       -0.24427387647975        2.62327338392373
C           14.38827143612295       -0.40536025776981        3.58541750471001
C           15.65931242850291       -0.41507868409195        2.94459174899539
N           15.42669630739636       -0.24026676977417        1.60954522240217
C           16.91888995307048       -0.55470094321983        3.54146268816429
C           16.94278909383713       -0.77515342294144        5.00519709077098
C           17.61947291272532        0.10224952048018        5.85438863750728
C           17.63614883935598       -0.09422965973354        7.22315406308826
C           16.97688043608336       -1.18861415924840        7.80302093862876
N           17.03776735963522       -1.42404564296384        9.17358322789430
C           17.40684017361915       -0.29930192072953       10.03378889263199
C           16.01724583990908       -2.30172736478268        9.74830304447665
C           16.31218462461235       -2.07871213091856        6.94596948046823
C           16.29133042781292       -1.86826759508976        5.57923537354728
C           18.13516985321716       -0.50056916958643        2.85513459137430
C           19.42836602203894       -0.71427143159637        3.47872554448271
C           20.35147396357197       -0.57318381065299        2.50443025853826
N           18.29368369125378       -0.26121236033289        1.52370771798263
C           19.62037363856383       -0.28799237941131        1.28573679459278
C           20.26139379885112       -0.07286944334606        0.04817370269516
C           19.63000002057317        0.14536405231577       -1.19176425822402
C           20.28048114102651        0.38908917364960       -2.42967239043062
C           19.31799485102693        0.53357614637799       -3.39084861379535
C           18.04909770222389        0.37316841318163       -2.76953271577475
N           18.28983476624425        0.15012519729541       -1.43893849754575
C           16.79004137444997        0.45277776319925       -3.37641407084133
C           16.76555471300492        0.65900472547808       -4.84131788347725
C           16.11803019503763        1.76086463059908       -5.40323429123480
C           16.10039817840179        1.96190023039976       -6.77138860178774
C           16.72881902252711        1.05819162970130       -7.64141762491179
N           16.66575216406588        1.22046294696303       -9.02209528089264
C           17.67671730624267        0.52940489250359       -9.82407460487710
C           16.30554344422780        2.54386234518082       -9.53076811659484
C           17.36506173324031       -0.05721439788354       -7.07550550118369
C           17.38743856562446       -0.24428970315519       -5.70569749304785
C           15.57138103238382        0.35226454588271       -2.69437167462179
C           14.26799832023551        0.37692544610305       -3.33894309862649
C           13.35211304764360        0.26366918207029       -2.35536870185656
C           14.09487632867673        0.15409424806855       -1.11294356228847
N           15.42807811817566        0.20178449062943       -1.35645802856028
H           12.39502253494815        0.04317900563257        0.13511575711754
H           12.36214527823499       -0.19405618774625        2.76210955339138
H           14.23305874443110       -0.49807455068610        4.64813112735243
H           16.15497358727072       -0.18684041812145        0.90525777197072
H           18.12220420211413        0.96786310336181        5.43678107455605
H           18.17302642538467        0.61907693488959        7.83503713978870
H           16.74102975301659        0.55791489238285        9.88355260375770
H           17.35051818466061       -0.61759473889849       11.07418757915038
H           18.43513719349297       -0.00201855675424        9.82599302957926
H           15.00666743551400       -1.96028922132138        9.49822433885424
H           16.15848411253933       -3.31836597681169        9.37991022105132
H           16.13194465607690       -2.31543060220110       10.83153923375903
H           15.80852780031329       -2.95362516583577        7.33650132239214
H           15.77973681435762       -2.58112525183494        4.94133185502656
H           19.58757649460302       -0.95656823852100        4.51698346672966
H           21.42387367102998       -0.66091720189750        2.57587171928799
H           21.34911780888399        0.45125365475956       -2.55796018179535
H           19.47151787265267        0.74623315588344       -4.43623726776473
H           17.56375438293084        0.02022116660883       -0.74213535363920
H           15.64139038477388        2.48789145872422       -4.75461586352330
H           15.58878943727103        2.83626595013023       -7.15232896138064
H           17.57055617137531        0.83251481250986      -10.86501930819009
H           18.69018001587523        0.76644360964817       -9.48232637795382
H           17.51709564784980       -0.54788899150087       -9.76688353371152
H           15.28502393663596        2.78468407500340       -9.23184451075619
H           16.34350837117784        2.52519797393233      -10.61943810232513
H           16.98734107088771        3.31761785505600       -9.16050302781816
H           17.84406835737209       -0.79924773075598       -7.70132094510002
H           17.87573916740931       -1.12345117342312       -5.29897996889918
H           14.09976144002238        0.45384385648462       -4.40113755759679
H           12.27624733648020        0.24119888768202       -2.43381665904759
C           36.21505480484655        0.06141139849313       -0.11667575914875
C           35.60934957581701        0.18867621718373       -1.36054077271667
C           36.26514123782529        0.37641065543717       -2.60893275371111
C           35.30747231216128        0.44194733084272       -3.58241014983441
C           34.03631814047803        0.28574782227515       -2.96114554285622
N           34.26876459636387        0.14694316195754       -1.62184774115189
C           32.77657644009960        0.29192212825210       -3.57370326466201
C           32.75248623205152        0.41884623886072       -5.04861849497600
C           32.08181612664161        1.47411993128240       -5.66946835981928
C           32.06508368848041        1.60205959660841       -7.04630464203586
C           32.71791861104100        0.66881620091244       -7.86580174599295
N           32.65510298441136        0.76089664451974       -9.25332258007593
C           32.30776664653866        2.06242297906292       -9.82522467093189
C           33.65962961391347        0.02378989931539      -10.02090752566767
C           33.37670803820920       -0.40037322732134       -7.24023323893997
C           33.39790813972174       -0.51415976341646       -5.86200430190652
C           31.56046430408901        0.18801182229962       -2.89292821504650
C           30.26648263065731        0.13183804689028       -3.54812368896116
C           29.34401290900042        0.04181611517531       -2.56720793563336
N           31.40291315689359        0.10705314843788       -1.54241556509463
C           30.07626038939464        0.02842844574580       -1.31627442318453
C           29.43603863323811       -0.05639254645966       -0.06258517352408
C           30.06760206668642       -0.13990907921661        1.19356154137250
C           29.41681836105541       -0.20099769432435        2.45366423653304
C           30.37916096498551       -0.28672425636252        3.42196442950141
C           31.64836315411522       -0.28941084015281        2.78088575882751
N           31.40780371588260       -0.19030390466780        1.43528926550233
C           32.90754819357326       -0.34853339193803        3.38985691929441
C           32.93222520720828       -0.49311471897272        4.86221203789221
C           33.57193020287976        0.45017926129632        5.66853092701170
C           33.58892819498735        0.32354315694302        7.04555145369231
C           32.96847238883400       -0.76451400659314        7.67780343223498
N           33.03245434818268       -0.93116375089384        9.05795047330309
C           32.03848353545644       -1.81239409131314        9.67285182800159
C           33.36678602764959        0.24205275631926        9.86538768396038
C           32.34034113905031       -1.71999912432166        6.86440988325554
C           32.31787983396575       -1.57908438208645        5.48901139745773
C           34.12589823973220       -0.27888997530168        2.70341208323622
C           35.43004714111586       -0.39728851719002        3.33589330061261
C           36.34508927728754       -0.27456946025656        2.35267592387659
C           35.60115387775487       -0.09727153336189        1.11876149259365
N           34.26810624266098       -0.11341945927943        1.36711004642076
H           37.30029621251691        0.08641606738497       -0.12136544436290
H           37.33349788192568        0.45683633560948       -2.73232467298082
H           35.46278959333947        0.59651445480811       -4.63788550896401
H           33.54020013091574        0.03650319530422       -0.92451936781882
H           31.58376968622921        2.22145966888160       -5.06131782565507
H           31.53259311170982        2.44118983077614       -7.47501839538741
H           32.98214703906753        2.85015327540696       -9.47129689339603
H           32.37095712197736        1.99916178925912      -10.91097620891152
H           31.28104556295359        2.31650158860372       -9.56008121636028
H           34.67665779707970        0.28793159800716       -9.71043720541359
H           33.50673560915587       -1.04794871570945       -9.89007479276786
H           33.53699331382172        0.25623466204595      -11.07815792785026
H           33.87610128362670       -1.16298079810811       -7.82390365205922
H           33.90524458014739       -1.35879996936262       -5.40810898515069
H           30.10637601458977        0.14255495126065       -4.61408610539877
H           28.27129894595619       -0.02287058124817       -2.65631501253310
H           28.34803134045190       -0.17511944614407        2.59269155939634
H           30.22525265875493       -0.33056371846893        4.48781857668947
H           32.13426529863297       -0.14773308926770        0.72811932951756
H           34.04288716090095        1.31295944491141        5.20992493748687
H           34.09436298000125        1.08739855614492        7.62221842263455
H           32.14341269298399       -1.76259087815074       10.75600630591542
H           31.01897337160793       -1.52145958179050        9.39695982183111
H           32.21894964032072       -2.84200798309494        9.36182645886065
H           34.38014604843680        0.56988167307359        9.63225590891735
H           33.33504509901501       -0.03467380339255       10.91862074223273
H           32.66623920206317        1.06583722394548        9.68861364151738
H           31.86713573770116       -2.59205756170219        7.29706791061859
H           31.83537977680697       -2.34112622090323        4.88633354216412
H           35.59947928623646       -0.56750111795487        4.38699095958878
H           37.42117662567797       -0.30875497902828        2.42355998784200
C           25.46296858313109       -0.06957409818115       -0.01611377630436
C           24.23440222908482       -0.07295600543842        0.00304106137272
C           22.89061074459657       -0.07420418189244        0.01835794524017
C           21.66645122681160       -0.07627405367324        0.03477149625554
C           26.80675413224603       -0.06652715040246       -0.03217261113948
C           28.03094415617065       -0.06242676430605       -0.04969383482842

          :  Hamiltonian                  GFN1-xTB          :
         :: total energy            -236.382695001770 Eh    ::
         :: gradient norm              0.000411329498 Eh/a0 ::
         :: HOMO-LUMO gap              0.951122733174 eV    ::
         :: SCC energy              -240.205023676938 Eh    ::
         :: repulsion energy           3.942266777819 Eh    ::

    * Orbital Energies and Occupations

         #    Occupation            Energy/Eh            Energy/eV
      -------------------------------------------------------------
         1        2.0000           -0.7932026             -21.5841
       ...           ...                  ...                  ...
       205        2.0000           -0.4060065             -11.0480
       206        2.0000           -0.4049928             -11.0204
       207        2.0000           -0.4045891             -11.0094
       208        2.0000           -0.4042358             -10.9998
       209        2.0000           -0.4026570             -10.9569
       210        2.0000           -0.3887718             -10.5790
       211        2.0000           -0.3887636             -10.5788
       212        2.0000           -0.3869313             -10.5289
       213        2.0000           -0.3845609             -10.4644
       214        2.0000           -0.3835774             -10.4377
       215        2.0000           -0.3834962             -10.4355
       216        2.0000           -0.3727867             -10.1440
       217        2.0000           -0.3653567              -9.9419 (HOMO)
       218                         -0.3304036              -8.9907 (LUMO)
       219                         -0.3199145              -8.7053
       220                         -0.3193099              -8.6889
       221                         -0.3187337              -8.6732
       222                         -0.2903194              -7.9000
       223                         -0.2827657              -7.6944
       224                         -0.2745311              -7.4704
       225                         -0.2532554              -6.8914
       226                         -0.2531830              -6.8895
       227                         -0.2531727              -6.8892
       228                         -0.2531466              -6.8885
       ...                                ...                  ...
       484                          1.5891099              43.2419
      -------------------------------------------------------------
                  HL-Gap            0.0349531 Eh            0.9511 eV

Wiberg/Mayer (AO) data.
largest (>0.10) Wiberg bond orders for each atom

     #   Z sym  total        # sym  WBO       # sym  WBO       # sym  WBO
 ---------------------------------------------------------------------------
     1   6 C    3.922 --    41 C    1.366     2 C    1.344    43 H    0.971
     2   6 C    3.904 --     1 C    1.344     3 C    1.233     6 N    1.169
     3   6 C    3.951 --     4 C    1.590     2 C    1.233    44 H    0.977
     4   6 C    3.959 --     3 C    1.590     5 C    1.239    45 H    0.974
     5   6 C    3.894 --     7 C    1.297     4 C    1.239     6 N    1.177
     6   7 N    3.468 --     5 C    1.177     2 C    1.169    46 H    0.873
     7   6 C    3.939 --    17 C    1.333     5 C    1.297     8 C    1.037
     8   6 C    3.987 --    16 C    1.377     9 C    1.376     7 C    1.037
     9   6 C    3.986 --    10 C    1.473     8 C    1.376    47 H    0.972
    10   6 C    3.989 --     9 C    1.473    11 C    1.342    48 H    0.968
    11   6 C    3.951 --    10 C    1.342    15 C    1.342    12 N    1.109
    12   7 N    3.219 --    11 C    1.109    13 C    0.964    14 C    0.963
    13   6 C    3.969 --    50 H    0.985    51 H    0.983    49 H    0.983
                            12 N    0.964
    14   6 C    3.969 --    54 H    0.985    52 H    0.983    53 H    0.983
                            12 N    0.963
    15   6 C    3.989 --    16 C    1.472    11 C    1.342    55 H    0.968
    16   6 C    3.987 --    15 C    1.472     8 C    1.377    56 H    0.972
    17   6 C    3.913 --     7 C    1.333    20 N    1.285    18 C    1.127
    18   6 C    3.965 --    19 C    1.706    17 C    1.127    57 H    0.973
    19   6 C    3.963 --    18 C    1.706    21 C    1.130    58 H    0.974
    20   7 N    3.020 --    21 C    1.345    17 C    1.285
    21   6 C    3.909 --    20 N    1.345    22 C    1.252    19 C    1.130
    22   6 C    3.934 --    21 C    1.252    23 C    1.249   150 C    1.194
    23   6 C    3.886 --    24 C    1.252    22 C    1.249    27 N    1.190
    24   6 C    3.957 --    25 C    1.579    23 C    1.252    59 H    0.975
    25   6 C    3.955 --    24 C    1.579    26 C    1.244    60 H    0.974
    26   6 C    3.897 --    28 C    1.306    25 C    1.244    27 N    1.164
    27   7 N    3.473 --    23 C    1.190    26 C    1.164    61 H    0.873
    28   6 C    3.924 --    38 C    1.316    26 C    1.306    29 C    1.040
    29   6 C    3.987 --    30 C    1.376    37 C    1.375    28 C    1.040
    30   6 C    3.985 --    31 C    1.472    29 C    1.376    62 H    0.972
    31   6 C    3.989 --    30 C    1.472    32 C    1.342    63 H    0.968
    32   6 C    3.950 --    31 C    1.342    36 C    1.341    33 N    1.110
    33   7 N    3.219 --    32 C    1.110    35 C    0.964    34 C    0.963
    34   6 C    3.969 --    64 H    0.985    65 H    0.983    66 H    0.983
                            33 N    0.963
    35   6 C    3.969 --    68 H    0.985    67 H    0.983    69 H    0.983
                            33 N    0.964
    36   6 C    3.989 --    37 C    1.474    32 C    1.341    70 H    0.968
    37   6 C    3.986 --    36 C    1.474    29 C    1.375    71 H    0.972
    38   6 C    3.927 --    42 N    1.320    28 C    1.316    39 C    1.120
    39   6 C    3.967 --    40 C    1.718    38 C    1.120    72 H    0.973
    40   6 C    3.965 --    39 C    1.718    41 C    1.119    73 H    0.976
    41   6 C    3.930 --     1 C    1.366    42 N    1.298    40 C    1.119
    42   7 N    3.010 --    38 C    1.320    41 C    1.298
    43   1 H    1.002 --     1 C    0.971
    44   1 H    0.998 --     3 C    0.977
    45   1 H    1.006 --     4 C    0.974
    46   1 H    0.987 --     6 N    0.873
    47   1 H    1.006 --     9 C    0.972
    48   1 H    1.002 --    10 C    0.968
    49   1 H    1.003 --    13 C    0.983
    50   1 H    1.009 --    13 C    0.985
    51   1 H    1.013 --    13 C    0.983
    52   1 H    1.003 --    14 C    0.983
    53   1 H    1.013 --    14 C    0.983
    54   1 H    1.009 --    14 C    0.985
    55   1 H    1.002 --    15 C    0.968
    56   1 H    1.005 --    16 C    0.972
    57   1 H    1.006 --    18 C    0.973
    58   1 H    1.003 --    19 C    0.974
    59   1 H    1.002 --    24 C    0.975
    60   1 H    1.006 --    25 C    0.974
    61   1 H    0.988 --    27 N    0.873
    62   1 H    1.006 --    30 C    0.972
    63   1 H    1.002 --    31 C    0.968
    64   1 H    1.009 --    34 C    0.985
    65   1 H    1.003 --    34 C    0.983
    66   1 H    1.013 --    34 C    0.983
    67   1 H    1.013 --    35 C    0.983
    68   1 H    1.009 --    35 C    0.985
    69   1 H    1.003 --    35 C    0.983
    70   1 H    1.002 --    36 C    0.968
    71   1 H    1.005 --    37 C    0.972
    72   1 H    1.006 --    39 C    0.973
    73   1 H    0.999 --    40 C    0.976
    74   6 C    3.922 --   114 C    1.366    75 C    1.344   116 H    0.971
    75   6 C    3.904 --    74 C    1.344    76 C    1.233    79 N    1.169
    76   6 C    3.951 --    77 C    1.590    75 C    1.233   117 H    0.977
    77   6 C    3.959 --    76 C    1.590    78 C    1.239   118 H    0.974
    78   6 C    3.894 --    80 C    1.297    77 C    1.239    79 N    1.177
    79   7 N    3.468 --    78 C    1.177    75 C    1.169   119 H    0.873
    80   6 C    3.939 --    90 C    1.334    78 C    1.297    81 C    1.037
    81   6 C    3.987 --    89 C    1.377    82 C    1.376    80 C    1.037
    82   6 C    3.987 --    83 C    1.473    81 C    1.376   120 H    0.972
    83   6 C    3.989 --    82 C    1.473    84 C    1.342   121 H    0.968
    84   6 C    3.951 --    88 C    1.342    83 C    1.342    85 N    1.109
    85   7 N    3.219 --    84 C    1.109    87 C    0.963    86 C    0.963
    86   6 C    3.969 --   123 H    0.985   124 H    0.983   122 H    0.983
                            85 N    0.963
    87   6 C    3.969 --   127 H    0.985   125 H    0.983   126 H    0.983
                            85 N    0.963
    88   6 C    3.989 --    89 C    1.472    84 C    1.342   128 H    0.968
    89   6 C    3.987 --    88 C    1.472    81 C    1.377   129 H    0.972
    90   6 C    3.913 --    80 C    1.334    93 N    1.285    91 C    1.127
    91   6 C    3.965 --    92 C    1.706    90 C    1.127   130 H    0.973
    92   6 C    3.963 --    91 C    1.706    94 C    1.130   131 H    0.974
    93   7 N    3.020 --    94 C    1.345    90 C    1.285
    94   6 C    3.909 --    93 N    1.345    95 C    1.252    92 C    1.130
    95   6 C    3.934 --    94 C    1.252    96 C    1.249   152 C    1.194
    96   6 C    3.886 --    97 C    1.252    95 C    1.249   100 N    1.190
    97   6 C    3.957 --    98 C    1.579    96 C    1.252   132 H    0.975
    98   6 C    3.955 --    97 C    1.579    99 C    1.244   133 H    0.974
    99   6 C    3.897 --   101 C    1.306    98 C    1.244   100 N    1.164
   100   7 N    3.473 --    96 C    1.190    99 C    1.164   134 H    0.873
   101   6 C    3.924 --   111 C    1.316    99 C    1.306   102 C    1.040
   102   6 C    3.987 --   103 C    1.376   110 C    1.375   101 C    1.040
   103   6 C    3.985 --   104 C    1.473   102 C    1.376   135 H    0.972
   104   6 C    3.989 --   103 C    1.473   105 C    1.341   136 H    0.968
   105   6 C    3.950 --   104 C    1.341   109 C    1.341   106 N    1.110
   106   7 N    3.220 --   105 C    1.110   108 C    0.964   107 C    0.963
   107   6 C    3.969 --   137 H    0.985   139 H    0.983   138 H    0.983
                           106 N    0.963
   108   6 C    3.969 --   141 H    0.985   140 H    0.983   142 H    0.983
                           106 N    0.964
   109   6 C    3.989 --   110 C    1.473   105 C    1.341   143 H    0.968
   110   6 C    3.986 --   109 C    1.473   102 C    1.375   144 H    0.972
   111   6 C    3.927 --   115 N    1.320   101 C    1.316   112 C    1.120
   112   6 C    3.967 --   113 C    1.718   111 C    1.120   145 H    0.973
   113   6 C    3.965 --   112 C    1.718   114 C    1.119   146 H    0.976
   114   6 C    3.930 --    74 C    1.366   115 N    1.298   113 C    1.119
   115   7 N    3.010 --   111 C    1.320   114 C    1.298
   116   1 H    1.002 --    74 C    0.971
   117   1 H    0.998 --    76 C    0.977
   118   1 H    1.006 --    77 C    0.974
   119   1 H    0.987 --    79 N    0.873
   120   1 H    1.006 --    82 C    0.972
   121   1 H    1.002 --    83 C    0.968
   122   1 H    1.003 --    86 C    0.983
   123   1 H    1.009 --    86 C    0.985
   124   1 H    1.013 --    86 C    0.983
   125   1 H    1.003 --    87 C    0.983
   126   1 H    1.013 --    87 C    0.983
   127   1 H    1.009 --    87 C    0.985
   128   1 H    1.002 --    88 C    0.968
   129   1 H    1.005 --    89 C    0.972
   130   1 H    1.006 --    91 C    0.973
   131   1 H    1.003 --    92 C    0.974
   132   1 H    1.002 --    97 C    0.975
   133   1 H    1.006 --    98 C    0.974
   134   1 H    0.988 --   100 N    0.873
   135   1 H    1.006 --   103 C    0.972
   136   1 H    1.002 --   104 C    0.968
   137   1 H    1.009 --   107 C    0.985
   138   1 H    1.003 --   107 C    0.983
   139   1 H    1.013 --   107 C    0.983
   140   1 H    1.013 --   108 C    0.983
   141   1 H    1.009 --   108 C    0.985
   142   1 H    1.003 --   108 C    0.983
   143   1 H    1.002 --   109 C    0.968
   144   1 H    1.005 --   110 C    0.972
   145   1 H    1.006 --   112 C    0.973
   146   1 H    0.999 --   113 C    0.976
   147   6 C    3.924 --   148 C    2.364   151 C    1.338   150 C    0.190
   148   6 C    3.924 --   147 C    2.364   149 C    1.338   152 C    0.190
   149   6 C    3.931 --   150 C    2.444   148 C    1.338
   150   6 C    3.890 --   149 C    2.444    22 C    1.194   147 C    0.190
   151   6 C    3.931 --   152 C    2.444   147 C    1.338
   152   6 C    3.890 --   151 C    2.444    95 C    1.194   148 C    0.190
 ---------------------------------------------------------------------------

           -------------------------------------------------
          | TOTAL ENERGY             -236.382695001770 Eh   |
          | GRADIENT NORM               0.000411329498 Eh/α |
          | HOMO-LUMO GAP               0.951122733174 eV   |
           -------------------------------------------------

 * finished run on 2022/07/28 at 18:59:21.053
