   * xtb version 6.5.1 (b24c23e) compiled by 'conda@728c89f4b128' on 2022-07-12
          program call               : xtb Fe_PhNH2_C2_2.xyz --gfn 1 --opt -T 48

   ID    Z sym.   atoms
    1   26 Fe     1, 61
    2    6 C      2-6, 8-12, 14-18, 20-25, 27-31, 33-38, 62-66, 68-72, 74-78,
                  80-85, 87-91, 93-98, 121, 122
    3    7 N      7, 13, 19, 26, 32, 39, 67, 73, 79, 86, 92, 99
    4    1 H      40-60, 100-120
########################################################################
[WARNING] Please study the warnings concerning your input carefully
-1- prog_main_parseArguments: Unknown option '-T' provided
########################################################################

          :  Hamiltonian                  GFN1-xTB          :
 * total energy  :  -206.1681348 Eh     change       -0.3447809E-08 Eh
 * total energy  :  -206.3845877 Eh     change       -0.2164529E+00 Eh
 * total energy  :  -206.4571381 Eh     change       -0.7255041E-01 Eh
 * total energy  :  -206.4854522 Eh     change       -0.2831403E-01 Eh
 * total energy  :  -206.4965788 Eh     change       -0.1112662E-01 Eh
 * total energy  :  -206.5028947 Eh     change       -0.6315908E-02 Eh
 * total energy  :  -206.5064864 Eh     change       -0.3591706E-02 Eh
 * total energy  :  -206.5088826 Eh     change       -0.2396188E-02 Eh
 * total energy  :  -206.5106480 Eh     change       -0.1765428E-02 Eh
 * total energy  :  -206.5119632 Eh     change       -0.1315158E-02 Eh
 * total energy  :  -206.5196696 Eh     change       -0.1571698E-04 Eh
 * total energy  :  -206.5196799 Eh     change       -0.1036657E-04 Eh
 * total energy  :  -206.5196864 Eh     change       -0.6435811E-05 Eh
 * total energy  :  -206.5196925 Eh     change       -0.6139389E-05 Eh
 * total energy  :  -206.5196991 Eh     change       -0.6597805E-05 Eh
 * total energy  :  -206.5197064 Eh     change       -0.7306809E-05 Eh
 * total energy  :  -206.5197132 Eh     change       -0.6834557E-05 Eh
 * total energy  :  -206.5197185 Eh     change       -0.5286269E-05 Eh
 * total energy  :  -206.5197214 Eh     change       -0.2854082E-05 Eh
   *** GEOMETRY OPTIMIZATION CONVERGED AFTER 44 ITERATIONS ***

 final structure:
================
122
 xtb: 6.5.1 (b24c23e)
Fe          16.68628278455296        0.04901393671169       -0.06760422798803
C           13.30336237128221        0.13904777711514        0.02769227539997
C           13.95889200292448        1.15541991335516       -0.63702346751814
C           13.29165504938126        2.21429238180341       -1.33121436599640
C           14.25363591953341        3.07594814397961       -1.74004271094590
C           15.50619808249302        2.54728347594073       -1.28328724305620
N           15.31536807166470        1.35146687016881       -0.64678511360950
C           16.72673935688115        3.20407721803650       -1.41951095480085
C           16.73768085210119        4.56382911704565       -2.00166686793714
C           17.47869331307733        4.84560615364271       -3.15238556533436
C           17.48353781461700        6.11609324318379       -3.69968817952454
C           16.74761099107880        7.14137313237218       -3.09952689515920
N           16.78974876700399        8.42483410489734       -3.61430101403360
C           16.01533398364187        6.87146519718212       -1.94020054778405
C           16.00547450448727        5.59533263377117       -1.40710268629736
C           17.93076623406542        2.63318019357214       -1.02606742876780
C           19.19675053518569        3.29930789637124       -1.10171386561527
C           20.13760262561110        2.39341565291034       -0.73977416990804
N           18.09678578835540        1.34885699238592       -0.56526838260818
C           19.44408118751828        1.18241053248705       -0.43278199124754
C           20.09162897509110       -0.01206803954858       -0.09633614404140
C           19.40217223417776       -1.17858222585677        0.25600883926525
C           20.04925972677902       -2.42354934637527        0.52431199782157
C           19.08318226396511       -3.28461021841090        0.92803105271019
C           17.84953291723051       -2.55701539393133        0.91596044303263
N           18.05725255267527       -1.27801916430470        0.45854689550585
C           16.63839645739122       -3.06945738693389        1.36593932395904
C           16.61568829209760       -4.42337907581113        1.95956743242465
C           17.41098476219448       -4.72951211810111        3.06755616044519
C           17.39015294211528       -5.99333928021274        3.62892088319933
C           16.58089208490738       -6.99164358209494        3.07960719826962
N           16.52875706409163       -8.24573848189209        3.66080306190571
C           15.78051934939094       -6.69357211969270        1.97332213690212
C           15.79880549461744       -5.42386320630025        1.42520822560076
C           15.44483336467529       -2.35767497016565        1.27479048620448
C           14.18680618083594       -2.82897180764282        1.77747340617126
C           13.24958602760350       -1.92928536676560        1.39447551682984
C           13.93800577027457       -0.90283731290816        0.67274838506079
N           15.28581281662329       -1.15133945337598        0.64829328611268
H           12.21939058506542        0.16114258560834        0.04546195860027
H           12.22476807744707        2.27364625434735       -1.47800367872281
H           14.13741356490273        3.98596044920346       -2.30618538147440
H           18.03730744058786        4.05115853720415       -3.63495971978385
H           18.05490005408123        6.32012980318010       -4.59868359980720
H           17.04686646529725        8.48755082275122       -4.58635720616403
H           16.01333897281460        9.01369580935921       -3.35846598580821
H           15.45438222799182        7.66670999222518       -1.46150786871383
H           15.44233860335836        5.39599014447823       -0.50196387083024
H           19.33864335423310        4.32874513252449       -1.38765455423398
H           21.20591415089042        2.52324896432248       -0.67673779803948
H           21.10520752831111       -2.60576936815202        0.40622333925113
H           19.18751343636488       -4.32264376175605        1.19885035780045
H           18.03354256289299       -3.95755859409264        3.50643213923466
H           18.00204654848619       -6.21461069630612        4.49657718339202
H           17.33411666100779       -8.49592417227564        4.21183456368173
H           16.20016229080310       -8.98321709335301        3.05831189302325
H           15.14874865451557       -7.46355760109418        1.54406473486326
H           15.19035565496663       -5.20701138597947        0.55403919956877
H           14.04991549000475       -3.72951601733048        2.35383811285518
H           12.18631076454942       -1.94301230892170        1.57484504219433
Fe          27.52310715941650       -0.08344209308476        0.00347880377514
C           30.90602672376353       -0.05373912999660        0.13119980544109
C           30.25049987155910       -1.16935065001460        0.61106906281710
C           30.91773881635533       -2.33301100770550        1.11007169672656
C           29.95575953416502       -3.14985715742380        1.60236928124345
C           28.70319597395841       -2.47705548068907        1.41409777298006
N           28.89402405591373       -1.28581087911485        0.76907938433796
C           27.48265463656915       -2.95349787557053        1.88626081150720
C           27.47171662478873       -4.19001853144267        2.69795446009441
C           26.73071106116033       -5.30483209563426        2.29701457376640
C           26.72586765183541       -6.46297896791371        3.05356739619166
C           27.46178994782998       -6.52923257005994        4.23974173136943
N           27.41965571268416       -7.66743840875640        5.02507619477594
C           28.19405937854457       -5.41380240981671        4.65533089021073
C           28.20391644743786       -4.26437506098339        3.88622465891921
C           26.27862538685645       -2.31013415515721        1.62780423536808
C           25.01264139834505       -2.74124309810042        2.14121885536200
C           24.07178749533197       -1.93904363192893        1.58613934330017
N           26.11260448347805       -1.21643234609147        0.81193777532683
C           24.76530849289257       -1.01404438573977        0.74640447549527
C           24.11775976699886       -0.07363239428598       -0.06328609344292
C           24.80721492366444        0.86457767314957       -0.84088948207899
C           24.16012585170173        1.77608186926358       -1.73032048518071
C           25.12620179285431        2.58834062094841       -2.22494536314101
C           26.35985178371717        2.17626739663240       -1.62516717246808
N           26.15213425112871        1.08833550931471       -0.81186323152942
C           27.57098815471662        2.83446053491720       -1.80366300299445
C           27.59369496552835        4.07732284679966       -2.60415712287948
C           26.79839434480445        5.16997080388720       -2.24712702469607
C           26.81922782215245        6.33616486586892       -2.99034998899216
C           27.62849520401423        6.42990825610185       -4.12593745249520
N           27.68063390096534        7.60725548525867       -4.85008869050755
C           28.42887049680399        5.34313389333880       -4.48874696148596
C           28.41058185325490        4.18473398315746       -3.73330063958268
C           28.76455322292190        2.36520966036554       -1.26076179487371
C           30.02258059809521        3.04459659763437       -1.37584517675909
C           30.95980142994324        2.22827133504665       -0.83757528059374
C           30.27138210285534        1.05957810687695       -0.38080117258131
N           28.92357495093725        1.17649671009140       -0.60143994336190
H           31.98999864875545       -0.05113468151795        0.15943183078945
H           31.98462601265764       -2.48815222197641        1.07843657180919
H           30.07198345447109       -4.12454111679043        2.04804928712336
H           26.17209133325128       -5.26810613106809        1.36821385649175
H           26.15450646469177       -7.32502608997489        2.72691808393918
H           27.16254533649468       -8.51229855902039        4.54026595974702
H           28.19605756717855       -7.77955479616733        5.65725544240809
H           28.75501398630002       -5.45420255976503        5.58265339949694
H           28.76705366476041       -3.39980209006492        4.22018027236074
H           24.87074874770262       -3.54836801425993        2.84125626913478
H           23.00347538319541       -1.95824677043948        1.72917820528492
H           23.10417788103265        1.77833509672215       -1.94744636333162
H           25.02186898448812        3.38760752461271       -2.94050723657328
H           26.17583217009516        5.10924460144639       -1.36122000098471
H           26.20733097874484        7.18160887571138       -2.69537725307027
H           26.87527509995329        8.20477296960495       -4.75415783662995
H           28.00923367246752        7.51256332879212       -5.79766463470890
H           29.06064538574530        5.41078981919706       -5.36769915484957
H           29.01903372890319        3.33880353620873       -4.03389910416501
H           30.15947121126747        4.02256718879554       -1.80799061926450
H           32.02307670252169        2.38619385042307       -0.74935943210221
C           21.49569751145334       -0.04026348769258       -0.10284414175612
C           22.71369120342637       -0.06347960370114       -0.09038157817019

          :  Hamiltonian                  GFN1-xTB          :
         :: total energy            -206.519721377818 Eh    ::
         :: gradient norm              0.000275843868 Eh/a0 ::
         :: HOMO-LUMO gap              0.086053306879 eV    ::
         :: SCC energy              -209.746231684695 Eh    ::
         :: repulsion energy           3.337018665012 Eh    ::

    * Orbital Energies and Occupations

         #    Occupation            Energy/Eh            Energy/eV
      -------------------------------------------------------------
         1        2.0000           -0.7801960             -21.2302
       ...           ...                  ...                  ...
       179        2.0000           -0.3994271             -10.8690
       180        2.0000           -0.3971210             -10.8062
       181        2.0000           -0.3971112             -10.8059
       182        2.0000           -0.3873359             -10.5399
       183        2.0000           -0.3873356             -10.5399
       184        2.0000           -0.3848740             -10.4730
       185        1.9920           -0.3776001             -10.2750
       186        1.9914           -0.3775383             -10.2733
       187        1.9585           -0.3760221             -10.2321
       188        1.9571           -0.3759913             -10.2312
       189        1.9520           -0.3758817             -10.2283
       190        1.9520           -0.3758813             -10.2283
       191        1.6692           -0.3738989             -10.1743 (HOMO)
       192        0.3063           -0.3707365             -10.0883 (LUMO)
       193        0.2214           -0.3703817             -10.0786
       194                         -0.3290548              -8.9540
       195                         -0.3177157              -8.6455
       196                         -0.3177121              -8.6454
       197                         -0.3127802              -8.5112
       198                         -0.2899138              -7.8890
       199                         -0.2897345              -7.8841
       200                         -0.2877605              -7.8304
       201                         -0.2795493              -7.6069
       202                         -0.2576614              -7.0113
       ...                                ...                  ...
       414                          1.3452666              36.6066
      -------------------------------------------------------------
                  HL-Gap            0.0031624 Eh            0.0861 eV

Wiberg/Mayer (AO) data.
largest (>0.10) Wiberg bond orders for each atom

     #   Z sym  total        # sym  WBO       # sym  WBO       # sym  WBO
 ---------------------------------------------------------------------------
     1  26 Fe   3.156 --    39 N    0.669     7 N    0.662    19 N    0.661
                            26 N    0.656
     2   6 C    3.922 --    38 C    1.362     3 C    1.362    40 H    0.970
     3   6 C    3.926 --     2 C    1.362     7 N    1.208     4 C    1.176
     4   6 C    3.959 --     5 C    1.645     3 C    1.176    41 H    0.975
     5   6 C    3.962 --     4 C    1.645     6 C    1.178    42 H    0.973
     6   6 C    3.920 --     8 C    1.307     7 N    1.228     5 C    1.178
     7   7 N    3.373 --     6 C    1.228     3 C    1.208     1 Fe   0.662
     8   6 C    3.923 --    16 C    1.328     6 C    1.307     9 C    1.038
     9   6 C    3.985 --    10 C    1.378    15 C    1.377     8 C    1.038
    10   6 C    3.986 --    11 C    1.470     9 C    1.378    43 H    0.972
    11   6 C    3.988 --    10 C    1.470    12 C    1.352    44 H    0.972
    12   6 C    3.949 --    11 C    1.352    14 C    1.352    13 N    1.117
    13   7 N    3.134 --    12 C    1.117    45 H    0.933    46 H    0.933
    14   6 C    3.988 --    15 C    1.471    12 C    1.352    47 H    0.972
    15   6 C    3.986 --    14 C    1.471     9 C    1.377    48 H    0.972
    16   6 C    3.917 --     8 C    1.328    19 N    1.203    17 C    1.182
    17   6 C    3.958 --    18 C    1.634    16 C    1.182    49 H    0.973
    18   6 C    3.961 --    17 C    1.634    20 C    1.191    50 H    0.971
    19   7 N    3.377 --    20 C    1.244    16 C    1.203     1 Fe   0.661
    20   6 C    3.911 --    21 C    1.255    19 N    1.244    18 C    1.191
    21   6 C    3.921 --    20 C    1.255    22 C    1.253   121 C    1.191
    22   6 C    3.911 --    21 C    1.253    26 N    1.243    23 C    1.192
    23   6 C    3.961 --    24 C    1.632    22 C    1.192    51 H    0.971
    24   6 C    3.958 --    23 C    1.632    25 C    1.184    52 H    0.973
    25   6 C    3.917 --    27 C    1.325    26 N    1.204    24 C    1.184
    26   7 N    3.375 --    22 C    1.243    25 C    1.204     1 Fe   0.656
    27   6 C    3.923 --    25 C    1.325    35 C    1.308    28 C    1.040
    28   6 C    3.985 --    34 C    1.376    29 C    1.376    27 C    1.040
    29   6 C    3.986 --    30 C    1.471    28 C    1.376    53 H    0.972
    30   6 C    3.988 --    29 C    1.471    31 C    1.351    54 H    0.972
    31   6 C    3.949 --    30 C    1.351    33 C    1.351    32 N    1.118
    32   7 N    3.134 --    31 C    1.118    56 H    0.933    55 H    0.933
    33   6 C    3.988 --    34 C    1.471    31 C    1.351    57 H    0.972
    34   6 C    3.986 --    33 C    1.471    28 C    1.376    58 H    0.972
    35   6 C    3.920 --    27 C    1.308    39 N    1.227    36 C    1.178
    36   6 C    3.962 --    37 C    1.645    35 C    1.178    59 H    0.973
    37   6 C    3.959 --    36 C    1.645    38 C    1.176    60 H    0.975
    38   6 C    3.926 --     2 C    1.362    39 N    1.208    37 C    1.176
    39   7 N    3.377 --    35 C    1.227    38 C    1.208     1 Fe   0.669
    40   1 H    1.001 --     2 C    0.970
    41   1 H    0.998 --     4 C    0.975
    42   1 H    1.005 --     5 C    0.973
    43   1 H    1.005 --    10 C    0.972
    44   1 H    0.999 --    11 C    0.972
    45   1 H    0.960 --    13 N    0.933
    46   1 H    0.960 --    13 N    0.933
    47   1 H    0.998 --    14 C    0.972
    48   1 H    1.005 --    15 C    0.972
    49   1 H    1.005 --    17 C    0.973
    50   1 H    1.004 --    18 C    0.971
    51   1 H    1.004 --    23 C    0.971
    52   1 H    1.005 --    24 C    0.973
    53   1 H    1.005 --    29 C    0.972
    54   1 H    0.998 --    30 C    0.972
    55   1 H    0.960 --    32 N    0.933
    56   1 H    0.960 --    32 N    0.933
    57   1 H    0.998 --    33 C    0.972
    58   1 H    1.005 --    34 C    0.972
    59   1 H    1.005 --    36 C    0.973
    60   1 H    0.998 --    37 C    0.975
    61  26 Fe   3.156 --    99 N    0.669    67 N    0.662    79 N    0.661
                            86 N    0.656
    62   6 C    3.922 --    98 C    1.362    63 C    1.362   100 H    0.970
    63   6 C    3.926 --    62 C    1.362    67 N    1.208    64 C    1.176
    64   6 C    3.959 --    65 C    1.645    63 C    1.176   101 H    0.975
    65   6 C    3.962 --    64 C    1.645    66 C    1.178   102 H    0.973
    66   6 C    3.920 --    68 C    1.307    67 N    1.228    65 C    1.178
    67   7 N    3.373 --    66 C    1.228    63 C    1.208    61 Fe   0.662
    68   6 C    3.923 --    76 C    1.328    66 C    1.307    69 C    1.038
    69   6 C    3.985 --    70 C    1.378    75 C    1.377    68 C    1.038
    70   6 C    3.986 --    71 C    1.470    69 C    1.378   103 H    0.972
    71   6 C    3.988 --    70 C    1.470    72 C    1.352   104 H    0.972
    72   6 C    3.949 --    71 C    1.352    74 C    1.352    73 N    1.117
    73   7 N    3.134 --    72 C    1.117   105 H    0.933   106 H    0.933
    74   6 C    3.988 --    75 C    1.471    72 C    1.352   107 H    0.972
    75   6 C    3.986 --    74 C    1.471    69 C    1.377   108 H    0.972
    76   6 C    3.917 --    68 C    1.328    79 N    1.203    77 C    1.182
    77   6 C    3.958 --    78 C    1.634    76 C    1.182   109 H    0.973
    78   6 C    3.961 --    77 C    1.634    80 C    1.191   110 H    0.971
    79   7 N    3.377 --    80 C    1.244    76 C    1.203    61 Fe   0.661
    80   6 C    3.911 --    81 C    1.255    79 N    1.244    78 C    1.191
    81   6 C    3.921 --    80 C    1.255    82 C    1.253   122 C    1.191
    82   6 C    3.911 --    81 C    1.253    86 N    1.243    83 C    1.192
    83   6 C    3.961 --    84 C    1.632    82 C    1.192   111 H    0.971
    84   6 C    3.958 --    83 C    1.632    85 C    1.184   112 H    0.973
    85   6 C    3.917 --    87 C    1.325    86 N    1.204    84 C    1.184
    86   7 N    3.375 --    82 C    1.243    85 C    1.204    61 Fe   0.656
    87   6 C    3.923 --    85 C    1.325    95 C    1.308    88 C    1.040
    88   6 C    3.985 --    94 C    1.376    89 C    1.376    87 C    1.040
    89   6 C    3.986 --    90 C    1.471    88 C    1.376   113 H    0.972
    90   6 C    3.988 --    89 C    1.471    91 C    1.351   114 H    0.972
    91   6 C    3.949 --    90 C    1.351    93 C    1.351    92 N    1.118
    92   7 N    3.134 --    91 C    1.118   116 H    0.933   115 H    0.933
    93   6 C    3.988 --    94 C    1.471    91 C    1.351   117 H    0.972
    94   6 C    3.986 --    93 C    1.471    88 C    1.376   118 H    0.972
    95   6 C    3.920 --    87 C    1.308    99 N    1.227    96 C    1.178
    96   6 C    3.962 --    97 C    1.645    95 C    1.178   119 H    0.973
    97   6 C    3.959 --    96 C    1.645    98 C    1.176   120 H    0.975
    98   6 C    3.926 --    62 C    1.362    99 N    1.208    97 C    1.176
    99   7 N    3.377 --    95 C    1.227    98 C    1.208    61 Fe   0.669
   100   1 H    1.001 --    62 C    0.970
   101   1 H    0.998 --    64 C    0.975
   102   1 H    1.005 --    65 C    0.973
   103   1 H    1.005 --    70 C    0.972
   104   1 H    0.999 --    71 C    0.972
   105   1 H    0.960 --    73 N    0.933
   106   1 H    0.960 --    73 N    0.933
   107   1 H    0.998 --    74 C    0.972
   108   1 H    1.005 --    75 C    0.972
   109   1 H    1.005 --    77 C    0.973
   110   1 H    1.004 --    78 C    0.971
   111   1 H    1.004 --    83 C    0.971
   112   1 H    1.005 --    84 C    0.973
   113   1 H    1.005 --    89 C    0.972
   114   1 H    0.998 --    90 C    0.972
   115   1 H    0.960 --    92 N    0.933
   116   1 H    0.960 --    92 N    0.933
   117   1 H    0.998 --    93 C    0.972
   118   1 H    1.005 --    94 C    0.972
   119   1 H    1.005 --    96 C    0.973
   120   1 H    0.998 --    97 C    0.975
   121   6 C    3.923 --   122 C    2.552    21 C    1.191
   122   6 C    3.923 --   121 C    2.552    81 C    1.191
 ---------------------------------------------------------------------------

           -------------------------------------------------
          | TOTAL ENERGY             -206.519721377818 Eh   |
          | GRADIENT NORM               0.000275843868 Eh/α |
          | HOMO-LUMO GAP               0.086053306879 eV   |
           -------------------------------------------------

 * finished run on 2022/07/29 at 18:41:11.775
