   * xtb version 6.5.1 (b24c23e) compiled by 'conda@728c89f4b128' on 2022-07-12
          program call               : xtb Fe_PhCN_C4_2.xyz --gfn 1 --opt -T 48

   ID    Z sym.   atoms
    1   26 Fe     1, 59
    2    6 C      2-6, 8-13, 15-19, 21-26, 28-33, 35-40, 60-64, 66-71, 73-77,
                  79-84, 86-91, 93-98, 117-120
    3    7 N      7, 14, 20, 27, 34, 41, 65, 72, 78, 85, 92, 99
    4    1 H      42-58, 100-116
########################################################################
[WARNING] Please study the warnings concerning your input carefully
-1- prog_main_parseArguments: Unknown option '-T' provided
########################################################################

          :  Hamiltonian                  GFN1-xTB          :
 * total energy  :  -214.3667019 Eh     change       -0.8468533E-09 Eh
 * total energy  :  -214.4965097 Eh     change       -0.1298078E+00 Eh
 * total energy  :  -214.5320586 Eh     change       -0.3554887E-01 Eh
 * total energy  :  -214.5569624 Eh     change       -0.2490381E-01 Eh
 * total energy  :  -214.5667696 Eh     change       -0.9807192E-02 Eh
 * total energy  :  -214.5724455 Eh     change       -0.5675921E-02 Eh
 * total energy  :  -214.5772505 Eh     change       -0.4805028E-02 Eh
 * total energy  :  -214.5793377 Eh     change       -0.2087195E-02 Eh
 * total energy  :  -214.5813227 Eh     change       -0.1985017E-02 Eh
 * total energy  :  -214.5816931 Eh     change       -0.3703433E-03 Eh
 * total energy  :  -214.5849165 Eh     change       -0.1688427E-04 Eh
 * total energy  :  -214.5849248 Eh     change       -0.8365814E-05 Eh
 * total energy  :  -214.5849390 Eh     change       -0.1412384E-04 Eh
 * total energy  :  -214.5849355 Eh     change        0.3509177E-05 Eh
 * total energy  :  -214.5849567 Eh     change       -0.2128600E-04 Eh
 * total energy  :  -214.5849576 Eh     change       -0.8701483E-06 Eh
 * total energy  :  -214.5849719 Eh     change       -0.1427884E-04 Eh
 * total energy  :  -214.5849792 Eh     change       -0.7354597E-05 Eh
 * total energy  :  -214.5849838 Eh     change       -0.4517882E-05 Eh
   *** GEOMETRY OPTIMIZATION CONVERGED AFTER 34 ITERATIONS ***

 final structure:
================
120
 xtb: 6.5.1 (b24c23e)
Fe          16.90201648062645        0.03475626935069       -0.04150744936997
C           13.51629848351531        0.04628581011200        0.14419910450830
C           14.17094957734233        1.25909845579577        0.20501282185176
C           13.49924524547055        2.52035325017882        0.29437232810538
C           14.46097646654475        3.46255927410802        0.43573509278232
C           15.71895008283409        2.77302488810368        0.44294479583610
N           15.52931493862763        1.42913232329515        0.26800919490029
C           16.94572211082626        3.39490776429072        0.64845451475999
C           16.96277261411599        4.84716321129149        0.93942219555074
C           16.33116042373560        5.34485744709075        2.08150038019149
C           16.35259923877194        6.69866646927338        2.36449329924885
C           17.00372109725780        7.58472775131560        1.50107945229779
C           17.02767664707334        8.97851008590615        1.79009282901174
N           17.04653193911384       10.10453944157016        2.02632862518521
C           17.63184908902672        7.09207372620611        0.35340303172552
C           17.61243614565743        5.73611102439882        0.08015316096208
C           18.15447866441294        2.71438802801662        0.59557960378292
C           19.42692051471412        3.32496121763170        0.84276092222739
C           20.36639604801692        2.37701802063880        0.61151303348124
N           18.31674089761652        1.38990492978007        0.26627915186872
C           19.66560300338745        1.18865587317142        0.23751907399067
C           20.31167837599802        0.00663688861374       -0.14059140642050
C           19.62263218496669       -1.16568497031347       -0.47004145105927
C           20.27454478874514       -2.35910260220559       -0.90956501412685
C           19.30836145099936       -3.29743096357739       -1.05644862111682
C           18.06981327687757       -2.67514876039417       -0.69399835124806
N           18.27597831619437       -1.35644073619935       -0.36708737772306
C           16.85306419011496       -3.34165987855869       -0.64222347637642
C           16.82856236067101       -4.79426186735796       -0.93124883399796
C           16.09773775243256       -5.28751890297332       -2.01452688993593
C           16.07769919387631       -6.64258883219696       -2.29168058188451
C           16.78661022896889       -7.53417279728580       -1.48110897069237
C           16.76662787874935       -8.92944066208456       -1.76305681143969
N           16.75529135816392      -10.05709509602589       -1.99152018040062
C           17.51530703932980       -7.04572546243504       -0.39256801826781
C           17.53675907890746       -5.68858911067789       -0.12543792665720
C           15.65536104298812       -2.70537352159933       -0.33498143572569
C           14.39337609842299       -3.37948659352171       -0.22883819040049
C           13.45803439359019       -2.42616209184357       -0.00832850773025
C           14.15035909713350       -1.17349103825382        0.03007100912334
N           15.49863564904299       -1.36123318335052       -0.12963500526817
H           12.43306078531834        0.05219548004750        0.18765541691497
H           12.42933134908978        2.64784659988589        0.25103201064539
H           14.34276021943821        4.53049595989460        0.52201232458186
H           15.83566848399979        4.65885847011639        2.75914695661465
H           15.86700397886592        7.07695706806410        3.25639108210649
H           18.13349017645009        7.77674200988890       -0.32036323729740
H           18.09158305819769        5.35849216233492       -0.81602404446271
H           19.57271291725936        4.34571775126711        1.15619746676618
H           21.43872367734919        2.45947980999986        0.68505190493010
H           21.33468871957363       -2.45047874146607       -1.08274811305722
H           19.41397427379436       -4.31767362936653       -1.38737968538415
H           15.55625873405344       -4.59754715878188       -2.65176122450508
H           15.51417109383680       -7.01771802189674       -3.13791344639573
H           18.06218775861249       -7.73465331105691        0.24042550143781
H           18.09421718995196       -5.31384670618634        0.72550723870704
H           14.25479849496142       -4.44535872902660       -0.30977261559609
H           12.39317874229938       -2.54048355769661        0.11755172689685
Fe          30.32110200662461       -0.03616174520764       -0.03904166199960
C           33.70684099901730       -0.03729835585064        0.14649421608169
C           33.05231688338024       -1.24513768758698        0.27265692345510
C           33.72417777648104       -2.49968394094279        0.42959795753197
C           32.76257875878553       -3.43299419151410        0.62176440053619
C           31.50453561107907       -2.74418489279420        0.59220228515666
N           31.69398665668512       -1.41165087304035        0.34505839509789
C           30.27788378545507       -3.35422308212672        0.83126201785021
C           30.26117077598242       -4.78862514204949        1.20030021225137
C           30.89355796147321       -5.22373759849944        2.36724552308465
C           30.87250721688812       -6.56024862363529        2.72309155484413
C           30.22096889847439       -7.49179877165603        1.90930086400904
C           30.19738530446219       -8.86791189633248        2.27329140993611
N           30.17802315893560       -9.97942560171993        2.57041531799811
C           29.59210044400613       -7.06204034034746        0.73701837079530
C           29.61115302642106       -5.72284902715179        0.39077044089484
C           29.06900896998895       -2.67773618460357        0.74186111354401
C           27.79664898789695       -3.27428154276424        1.02154425353907
C           26.85701679307794       -2.34044217896828        0.73915998865924
N           28.90653244285720       -1.37299445206627        0.34146123810829
C           27.55764333311343       -1.17389843943107        0.30158835677966
C           26.91146795152252       -0.01405290038783       -0.13977803823799
C           27.60038703759757        1.13904959778675       -0.53141660598415
C           26.94819444600576        2.30707684828017       -1.03420057033123
C           27.91418099197186        3.23633210930910       -1.23136917634698
C           29.15289670644890        2.63459062326250       -0.83628151804098
N           28.94699441390134        1.33534409825249       -0.43885653621430
C           30.36963514490906        3.30294550845280       -0.82116016893516
C           30.39424433493847        4.73757957576233       -1.18910153560490
C           31.12519933096561        5.17060430901909       -2.29776050514319
C           31.14598746133109        6.50853577002003       -2.64836771607865
C           30.43773870308935        7.44343479889664       -1.88747616520616
C           30.45924070127029        8.82127663157062       -2.24500390131996
N           30.47859432971444        9.93468390024686       -2.53488895840643
C           29.70839385340459        7.01540086160760       -0.77427011491713
C           29.68623083364344        5.67486378541432       -0.43352809636088
C           31.56745752971731        2.68426552624347       -0.48022619789382
C           32.82940806850992        3.36322547059022       -0.41091842358121
C           33.76485810473340        2.42330177410208       -0.13928603994232
C           33.07263930855105        1.17448654438317       -0.03310225813818
N           31.72431357156652        1.35322372444549       -0.20246907931799
H           34.79008785587467       -0.04077304020926        0.18997510449114
H           34.79408967178141       -2.62924595920987        0.39285100737710
H           32.88092533647445       -4.49473127995240        0.76533713353635
H           31.38936501329417       -4.50200972299941        3.00645983773017
H           31.35873797752223       -6.88966711617215        3.63383398173396
H           29.09017722258972       -7.78223224409236        0.10158907927587
H           29.13145733778947       -5.39435890172185       -0.52426858375218
H           27.65096788202489       -4.27660103841584        1.38975063783818
H           25.78469891890726       -2.41906112614149        0.81690788115719
H           25.88799738419548        2.38882881220062       -1.21180324216722
H           27.80828299037514        4.23733681960479       -1.61651284989044
H           31.66626020611266        4.44661115315193       -2.89644459265950
H           31.70959804341972        6.83666182611710       -3.51385897505780
H           29.16159323577091        7.73804327147675       -0.17997942213401
H           29.12842926545070        5.34740073037531        0.43648241718627
H           32.96788247247919        4.42317201042680       -0.54939741178772
H           34.82972622832071        2.54432457602036       -0.01994231659375
C           22.93739030914066       -0.00434839625912       -0.19754640525283
C           21.71448612601333       -0.00296806080826       -0.18160819562387
C           24.28577110804448       -0.00752182510850       -0.19591047921300
C           25.50869068161381       -0.00685901256472       -0.18240756275638

          :  Hamiltonian                  GFN1-xTB          :
         :: total energy            -214.584983765392 Eh    ::
         :: gradient norm              0.000580803993 Eh/a0 ::
         :: HOMO-LUMO gap              0.101671046479 eV    ::
         :: SCC energy              -218.209711267931 Eh    ::
         :: repulsion energy           3.735127891308 Eh    ::

    * Orbital Energies and Occupations

         #    Occupation            Energy/Eh            Energy/eV
      -------------------------------------------------------------
         1        2.0000           -0.7821339             -21.2829
       ...           ...                  ...                  ...
       187        2.0000           -0.4397440             -11.9660
       188        2.0000           -0.4393591             -11.9556
       189        2.0000           -0.4392340             -11.9522
       190        2.0000           -0.4096376             -11.1468
       191        2.0000           -0.4096368             -11.1468
       192        2.0000           -0.4089044             -11.1269
       193        1.9917           -0.4026824             -10.9575
       194        1.9916           -0.4026661             -10.9571
       195        1.9391           -0.4007619             -10.9053
       196        1.9373           -0.4007324             -10.9045
       197        1.9304           -0.4006307             -10.9017
       198        1.9304           -0.4006295             -10.9017
       199        1.7891           -0.3995047             -10.8711 (HOMO)
       200        0.2850           -0.3957683             -10.7694 (LUMO)
       201        0.2054           -0.3954143             -10.7598
       202                         -0.3506603              -9.5420
       203                         -0.3420725              -9.3083
       204                         -0.3420681              -9.3081
       205                         -0.3388839              -9.2215
       206                         -0.3156025              -8.5880
       207                         -0.3148057              -8.5663
       208                         -0.3147828              -8.5657
       209                         -0.3131253              -8.5206
       210                         -0.3055323              -8.3140
       ...                                ...                  ...
       422                          1.4989577              40.7887
      -------------------------------------------------------------
                  HL-Gap            0.0037363 Eh            0.1017 eV

Wiberg/Mayer (AO) data.
largest (>0.10) Wiberg bond orders for each atom

     #   Z sym  total        # sym  WBO       # sym  WBO       # sym  WBO
 ---------------------------------------------------------------------------
     1  26 Fe   3.180 --    41 N    0.677     7 N    0.670    20 N    0.668
                            27 N    0.663
     2   6 C    3.928 --    40 C    1.364     3 C    1.363    42 H    0.970
     3   6 C    3.923 --     2 C    1.363     7 N    1.208     4 C    1.173
     4   6 C    3.959 --     5 C    1.649     3 C    1.173    43 H    0.975
     5   6 C    3.961 --     4 C    1.649     6 C    1.175    44 H    0.973
     6   6 C    3.920 --     8 C    1.313     7 N    1.224     5 C    1.175
     7   7 N    3.382 --     6 C    1.224     3 C    1.208     1 Fe   0.670
     8   6 C    3.929 --    17 C    1.331     6 C    1.313     9 C    1.030
     9   6 C    3.963 --    16 C    1.385    10 C    1.385     8 C    1.030
    10   6 C    3.987 --    11 C    1.464     9 C    1.385    45 H    0.971
                            15 C    0.102
    11   6 C    3.993 --    10 C    1.464    12 C    1.364    46 H    0.972
                            16 C    0.102
    12   6 C    3.984 --    15 C    1.365    11 C    1.364    13 C    1.098
    13   6 C    3.958 --    14 N    2.820    12 C    1.098
    14   7 N    2.973 --    13 C    2.820
    15   6 C    3.993 --    16 C    1.463    12 C    1.365    47 H    0.972
                            10 C    0.102
    16   6 C    3.987 --    15 C    1.463     9 C    1.385    48 H    0.971
                            11 C    0.102
    17   6 C    3.916 --     8 C    1.331    20 N    1.202    18 C    1.179
    18   6 C    3.957 --    19 C    1.638    17 C    1.179    49 H    0.973
    19   6 C    3.960 --    18 C    1.638    21 C    1.188    50 H    0.973
    20   7 N    3.385 --    21 C    1.242    17 C    1.202     1 Fe   0.668
    21   6 C    3.905 --    22 C    1.256    20 N    1.242    19 C    1.188
    22   6 C    3.928 --    21 C    1.256    23 C    1.255   118 C    1.193
    23   6 C    3.905 --    22 C    1.255    27 N    1.242    24 C    1.188
    24   6 C    3.959 --    25 C    1.637    23 C    1.188    51 H    0.973
    25   6 C    3.957 --    24 C    1.637    26 C    1.180    52 H    0.973
    26   6 C    3.916 --    28 C    1.330    27 N    1.202    25 C    1.180
    27   7 N    3.382 --    23 C    1.242    26 C    1.202     1 Fe   0.663
    28   6 C    3.929 --    26 C    1.330    37 C    1.314    29 C    1.030
    29   6 C    3.963 --    36 C    1.385    30 C    1.385    28 C    1.030
    30   6 C    3.987 --    31 C    1.463    29 C    1.385    53 H    0.971
                            35 C    0.102
    31   6 C    3.993 --    30 C    1.463    32 C    1.364    54 H    0.972
                            36 C    0.102
    32   6 C    3.984 --    35 C    1.364    31 C    1.364    33 C    1.098
    33   6 C    3.958 --    34 N    2.820    32 C    1.098
    34   7 N    2.973 --    33 C    2.820
    35   6 C    3.993 --    36 C    1.463    32 C    1.364    55 H    0.972
                            30 C    0.102
    36   6 C    3.987 --    35 C    1.463    29 C    1.385    56 H    0.971
                            31 C    0.102
    37   6 C    3.920 --    28 C    1.314    41 N    1.224    38 C    1.174
    38   6 C    3.961 --    39 C    1.650    37 C    1.174    57 H    0.973
    39   6 C    3.959 --    38 C    1.650    40 C    1.173    58 H    0.975
    40   6 C    3.923 --     2 C    1.364    41 N    1.208    39 C    1.173
    41   7 N    3.385 --    37 C    1.224    40 C    1.208     1 Fe   0.677
    42   1 H    1.000 --     2 C    0.970
    43   1 H    0.997 --     4 C    0.975
    44   1 H    1.004 --     5 C    0.973
    45   1 H    1.003 --    10 C    0.971
    46   1 H    1.000 --    11 C    0.972
    47   1 H    1.000 --    15 C    0.972
    48   1 H    1.003 --    16 C    0.971
    49   1 H    1.004 --    18 C    0.973
    50   1 H    1.002 --    19 C    0.973
    51   1 H    1.001 --    24 C    0.973
    52   1 H    1.004 --    25 C    0.973
    53   1 H    1.003 --    30 C    0.971
    54   1 H    1.000 --    31 C    0.972
    55   1 H    1.000 --    35 C    0.972
    56   1 H    1.003 --    36 C    0.971
    57   1 H    1.004 --    38 C    0.973
    58   1 H    0.997 --    39 C    0.975
    59  26 Fe   3.180 --    99 N    0.677    65 N    0.670    78 N    0.668
                            85 N    0.663
    60   6 C    3.928 --    98 C    1.364    61 C    1.363   100 H    0.970
    61   6 C    3.923 --    60 C    1.363    65 N    1.208    62 C    1.173
    62   6 C    3.959 --    63 C    1.649    61 C    1.173   101 H    0.975
    63   6 C    3.961 --    62 C    1.649    64 C    1.175   102 H    0.973
    64   6 C    3.920 --    66 C    1.313    65 N    1.224    63 C    1.175
    65   7 N    3.382 --    64 C    1.224    61 C    1.208    59 Fe   0.670
    66   6 C    3.929 --    75 C    1.331    64 C    1.313    67 C    1.030
    67   6 C    3.963 --    74 C    1.385    68 C    1.385    66 C    1.030
    68   6 C    3.987 --    69 C    1.464    67 C    1.385   103 H    0.971
                            73 C    0.102
    69   6 C    3.993 --    68 C    1.464    70 C    1.364   104 H    0.972
                            74 C    0.102
    70   6 C    3.984 --    73 C    1.365    69 C    1.364    71 C    1.098
    71   6 C    3.958 --    72 N    2.820    70 C    1.098
    72   7 N    2.973 --    71 C    2.820
    73   6 C    3.993 --    74 C    1.463    70 C    1.365   105 H    0.972
                            68 C    0.102
    74   6 C    3.987 --    73 C    1.463    67 C    1.385   106 H    0.971
                            69 C    0.102
    75   6 C    3.916 --    66 C    1.331    78 N    1.202    76 C    1.179
    76   6 C    3.957 --    77 C    1.638    75 C    1.179   107 H    0.973
    77   6 C    3.960 --    76 C    1.638    79 C    1.188   108 H    0.973
    78   7 N    3.385 --    79 C    1.242    75 C    1.202    59 Fe   0.668
    79   6 C    3.905 --    80 C    1.256    78 N    1.242    77 C    1.188
    80   6 C    3.928 --    79 C    1.256    81 C    1.255   120 C    1.193
    81   6 C    3.905 --    80 C    1.255    85 N    1.242    82 C    1.188
    82   6 C    3.959 --    83 C    1.637    81 C    1.188   109 H    0.973
    83   6 C    3.957 --    82 C    1.637    84 C    1.180   110 H    0.973
    84   6 C    3.916 --    86 C    1.330    85 N    1.202    83 C    1.180
    85   7 N    3.382 --    81 C    1.242    84 C    1.202    59 Fe   0.663
    86   6 C    3.929 --    84 C    1.330    95 C    1.314    87 C    1.030
    87   6 C    3.963 --    94 C    1.385    88 C    1.385    86 C    1.030
    88   6 C    3.987 --    89 C    1.464    87 C    1.385   111 H    0.971
                            93 C    0.102
    89   6 C    3.993 --    88 C    1.464    90 C    1.364   112 H    0.972
                            94 C    0.102
    90   6 C    3.984 --    93 C    1.365    89 C    1.364    91 C    1.098
    91   6 C    3.958 --    92 N    2.820    90 C    1.098
    92   7 N    2.973 --    91 C    2.820
    93   6 C    3.993 --    94 C    1.463    90 C    1.365   113 H    0.972
                            88 C    0.102
    94   6 C    3.987 --    93 C    1.463    87 C    1.385   114 H    0.971
                            89 C    0.102
    95   6 C    3.920 --    86 C    1.314    99 N    1.224    96 C    1.174
    96   6 C    3.961 --    97 C    1.650    95 C    1.174   115 H    0.973
    97   6 C    3.959 --    96 C    1.650    98 C    1.173   116 H    0.975
    98   6 C    3.923 --    60 C    1.364    99 N    1.208    97 C    1.173
    99   7 N    3.385 --    95 C    1.224    98 C    1.208    59 Fe   0.677
   100   1 H    1.000 --    60 C    0.970
   101   1 H    0.997 --    62 C    0.975
   102   1 H    1.004 --    63 C    0.973
   103   1 H    1.003 --    68 C    0.971
   104   1 H    1.000 --    69 C    0.972
   105   1 H    1.000 --    73 C    0.972
   106   1 H    1.003 --    74 C    0.971
   107   1 H    1.004 --    76 C    0.973
   108   1 H    1.002 --    77 C    0.973
   109   1 H    1.001 --    82 C    0.973
   110   1 H    1.004 --    83 C    0.973
   111   1 H    1.003 --    88 C    0.971
   112   1 H    1.000 --    89 C    0.972
   113   1 H    1.000 --    93 C    0.972
   114   1 H    1.003 --    94 C    0.971
   115   1 H    1.004 --    96 C    0.973
   116   1 H    0.997 --    97 C    0.975
   117   6 C    3.923 --   118 C    2.461   119 C    1.315
   118   6 C    3.915 --   117 C    2.461    22 C    1.193   120 C    0.195
   119   6 C    3.923 --   120 C    2.461   117 C    1.315
   120   6 C    3.915 --   119 C    2.461    80 C    1.193   118 C    0.195
 ---------------------------------------------------------------------------

           -------------------------------------------------
          | TOTAL ENERGY             -214.584983765392 Eh   |
          | GRADIENT NORM               0.000580803993 Eh/α |
          | HOMO-LUMO GAP               0.101671046479 eV   |
           -------------------------------------------------

 * finished run on 2022/07/29 at 23:53:29.427
