   * xtb version 6.5.1 (b24c23e) compiled by 'conda@728c89f4b128' on 2022-07-12
          program call               : xtb H_C2_2.xyz --gfn 1 --opt -T 48

   ID    Z sym.   atoms
    1    6 C      1-5, 7-10, 12-17, 19-23, 38-42, 44-47, 49-54, 56-60, 75, 76
    2    7 N      6, 11, 18, 24, 43, 48, 55, 61
    3    1 H      25-37, 62-74
########################################################################
[WARNING] Please study the warnings concerning your input carefully
-1- prog_main_parseArguments: Unknown option '-T' provided
########################################################################

          :  Hamiltonian                  GFN1-xTB          :
 * total energy  :  -128.0519487 Eh     change       -0.4635581E-10 Eh
 * total energy  :  -128.1480243 Eh     change       -0.9607557E-01 Eh
 * total energy  :  -128.1999724 Eh     change       -0.5194807E-01 Eh
 * total energy  :  -128.2096858 Eh     change       -0.9713451E-02 Eh
 * total energy  :  -128.2140542 Eh     change       -0.4368360E-02 Eh
 * total energy  :  -128.2151904 Eh     change       -0.1136264E-02 Eh
 * total energy  :  -128.2157720 Eh     change       -0.5815402E-03 Eh
 * total energy  :  -128.2161127 Eh     change       -0.3407724E-03 Eh
 * total energy  :  -128.2163314 Eh     change       -0.2186636E-03 Eh
 * total energy  :  -128.2164764 Eh     change       -0.1449397E-03 Eh
 * total energy  :  -128.2165903 Eh     change       -0.1139810E-03 Eh
 * total energy  :  -128.2166802 Eh     change       -0.8990063E-04 Eh
 * total energy  :  -128.2167358 Eh     change       -0.5552390E-04 Eh
 * total energy  :  -128.2167657 Eh     change       -0.2996576E-04 Eh
 * total energy  :  -128.2167846 Eh     change       -0.1889379E-04 Eh
 * total energy  :  -128.2167994 Eh     change       -0.1481781E-04 Eh
 * total energy  :  -128.2168058 Eh     change       -0.6374071E-05 Eh
 * total energy  :  -128.2168107 Eh     change       -0.4909288E-05 Eh
   *** GEOMETRY OPTIMIZATION CONVERGED AFTER 18 ITERATIONS ***

 final structure:
================
76
 xtb: 6.5.1 (b24c23e)
C            5.60348617336243       -0.09241777355118       -0.00745556326632
C            6.22634691576366       -1.33266034822548       -0.06328840619209
C            5.61303738717484       -2.61691330722346       -0.12664215276817
C            6.60576619189164       -3.55475807880591       -0.17342349857667
C            7.85667613943265       -2.87338675987749       -0.14024185911377
N            7.57651122652624       -1.53927788246098       -0.07180858666211
C            9.12482073619487       -3.43980769764079       -0.18001560129141
C           10.34708502800390       -2.78285923800596       -0.15453694251778
C           11.61953866138909       -3.47814034424723       -0.22437826207696
C           12.57503602697662       -2.52713875673959       -0.17652713310135
N           10.55051956160744       -1.44040573478570       -0.06583511040242
C           11.88544824663817       -1.25459508435261       -0.07128855703488
C           12.54893215047470       -0.01259192096468        0.01289949339670
C           11.89846928700799        1.23325927832242        0.09586176640610
C           12.50076710695021        2.51557794479890        0.20186522833611
C           11.50314986227214        3.44950202128720        0.24807059734964
C           10.25882496419576        2.76373136280811        0.17653379954890
N           10.54938272274295        1.42910361045932        0.08826510778036
C            8.99218350608185        3.33485902112797        0.19320397075108
C            7.76861964499875        2.67953899394724        0.14118719554951
C            6.48781196458376        3.36959371929746        0.16608262194597
C            5.53859222341945        2.41387781162552        0.11076107787869
C            6.24048674002435        1.14149061874261        0.05248115584213
N            7.57968668739243        1.34112019543555        0.07047136563492
H            4.51874464594835       -0.09629135836617       -0.01126750170153
H            4.54789308054458       -2.78563597108736       -0.13546761429428
H            6.49621593181343       -4.62636517312296       -0.22718240985308
H            8.26932715591942       -0.79906975713424       -0.03527843203171
H            9.15453704962964       -4.52300190093038       -0.24318647509004
H           11.73301621508174       -4.54806570643036       -0.30271298696310
H           13.64541390649120       -2.64717400114234       -0.21396191046330
H           13.56282231501698        2.69207540639658        0.24276491975198
H           11.60815954307512        4.51981052913314        0.32718195831979
H            9.86107670175127        0.68596781695394        0.02700029319408
H            8.96659053029027        4.41798446401107        0.25808157281989
H            6.36845930747778        4.44058604978382        0.21919950450071
H            4.46537468563970        2.52440567350571        0.10859016582999
C           23.52991249077456        0.09068843665636       -0.01927301050412
C           22.90705350181998        1.31350442380238       -0.23384738892213
C           23.52036454725893        2.57899911616563       -0.46153323510913
C           22.52763683411454        3.50308236568574       -0.62830737079317
C           21.27672610819680        2.83160980513628       -0.50793085381906
N           21.55688945758919        1.51732170328805       -0.26881319158197
C           20.00858202954934        3.38824169240177       -0.62007868703421
C           18.78631703112028        2.74000090661198       -0.51047680737873
C           17.51386419904986        3.42056715801598       -0.66898554847523
C           16.55836578014452        2.48357687373157       -0.49945424323283
N           18.58288104393149        1.42004042509604       -0.25018231191194
C           17.24795207324780        1.23506845043105       -0.23174010571591
C           16.58446659035442        0.01414810433014        0.01118106574573
C           17.23492803700446       -1.21074586078323        0.25338961813385
C           16.63262855407588       -2.46884594902722        0.52313052745290
C           17.63024460741048       -3.38911284578762        0.68884226202440
C           18.87457038843326       -2.71820138879037        0.52986219459462
N           18.58401434577671       -1.40594680052009        0.27099628065568
C           20.14121124214080       -3.28246595755764        0.61970672030896
C           21.36477579517033       -2.63924772849865        0.48399096438111
C           22.64558268601947       -3.32039946887845        0.59725887036647
C           23.59480343087523       -2.37969496572527        0.41970183744731
C           22.89291038533693       -1.12531543451837        0.19856877829151
N           21.55371025447813       -1.32098109185984        0.24204428706556
H           24.61465400379014        0.09403809384995       -0.02355690557888
H           24.58550900421675        2.74519113015639       -0.49194924908856
H           22.63718831930272        4.55892326092677       -0.81917781908735
H           20.86407260528825        0.78792810073653       -0.13756450452908
H           19.97886679983362        4.45436619977257       -0.82176856514161
H           17.40038782314921        4.47158578412256       -0.88401290713764
H           15.48798798741574        2.59781536680396       -0.55198567119933
H           15.57057314398178       -2.63863076914998        0.58635070188443
H           17.52523359119916       -4.44040995669529        0.90469646172083
H           19.27232132214089       -0.67682542935901        0.11483950066283
H           20.16680302876355       -4.34830131626758        0.82309042015095
H           22.76493419422144       -4.37571185473778        0.78742197960573
H           24.66802081085651       -2.48958923811403        0.43173198357693
C           13.95783928750187       -0.00506284390759        0.01429939711914
C           15.17555944066924        0.00686177989510        0.01353273361425

          :  Hamiltonian                  GFN1-xTB          :
         :: total energy            -128.216810719006 Eh    ::
         :: gradient norm              0.000548478715 Eh/a0 ::
         :: HOMO-LUMO gap              1.032587372957 eV    ::
         :: SCC energy              -130.290495123408 Eh    ::
         :: repulsion energy           2.134225751130 Eh    ::

    * Orbital Energies and Occupations

         #    Occupation            Energy/Eh            Energy/eV
      -------------------------------------------------------------
         1        2.0000           -0.8023327             -21.8326
       ...           ...                  ...                  ...
       105        2.0000           -0.4356393             -11.8543
       106        2.0000           -0.4227923             -11.5048
       107        2.0000           -0.4196425             -11.4191
       108        2.0000           -0.4193064             -11.4099
       109        2.0000           -0.4190400             -11.4027
       110        2.0000           -0.4153060             -11.3011
       111        2.0000           -0.4152621             -11.2999
       112        2.0000           -0.4149305             -11.2908
       113        2.0000           -0.4149030             -11.2901
       114        2.0000           -0.3980575             -10.8317
       115        2.0000           -0.3978079             -10.8249
       116        2.0000           -0.3921413             -10.6707
       117        2.0000           -0.3784813             -10.2990 (HOMO)
       118                         -0.3405344              -9.2664 (LUMO)
       119                         -0.3298844              -8.9766
       120                         -0.3297663              -8.9734
       121                         -0.3237724              -8.8103
       122                         -0.2959892              -8.0543
       123                         -0.2866396              -7.7999
       124                         -0.2304683              -6.2714
       125                         -0.2290955              -6.2340
       126                         -0.2172130              -5.9107
       127                         -0.2107934              -5.7360
       128                         -0.2052731              -5.5858
       ...                                ...                  ...
       252                          1.3356451              36.3448
      -------------------------------------------------------------
                  HL-Gap            0.0379469 Eh            1.0326 eV

Wiberg/Mayer (AO) data.
largest (>0.10) Wiberg bond orders for each atom

     #   Z sym  total        # sym  WBO       # sym  WBO       # sym  WBO
 ---------------------------------------------------------------------------
     1   6 C    3.930 --    23 C    1.363     2 C    1.350    25 H    0.972
     2   6 C    3.903 --     1 C    1.350     3 C    1.225     6 N    1.172
     3   6 C    3.954 --     4 C    1.602     2 C    1.225    26 H    0.977
     4   6 C    3.958 --     3 C    1.602     5 C    1.226    27 H    0.977
     5   6 C    3.897 --     7 C    1.344     4 C    1.226     6 N    1.173
     6   7 N    3.471 --     5 C    1.173     2 C    1.172    28 H    0.873
     7   6 C    3.944 --     8 C    1.376     5 C    1.344    29 H    0.971
     8   6 C    3.916 --     7 C    1.376    11 N    1.280     9 C    1.120
     9   6 C    3.965 --    10 C    1.715     8 C    1.120    30 H    0.976
    10   6 C    3.964 --     9 C    1.715    12 C    1.125    31 H    0.968
    11   7 N    3.026 --    12 C    1.350     8 C    1.280
    12   6 C    3.914 --    11 N    1.350    13 C    1.256    10 C    1.125
    13   6 C    3.943 --    14 C    1.257    12 C    1.256    75 C    1.183
    14   6 C    3.889 --    13 C    1.257    15 C    1.245    18 N    1.190
    15   6 C    3.960 --    16 C    1.588    14 C    1.245    32 H    0.969
    16   6 C    3.953 --    15 C    1.588    17 C    1.233    33 H    0.977
    17   6 C    3.899 --    19 C    1.348    16 C    1.233    18 N    1.163
    18   7 N    3.475 --    14 C    1.190    17 C    1.163    34 H    0.873
    19   6 C    3.929 --    20 C    1.365    17 C    1.348    35 H    0.971
    20   6 C    3.930 --    19 C    1.365    24 N    1.308    21 C    1.111
    21   6 C    3.967 --    22 C    1.730    20 C    1.111    36 H    0.976
    22   6 C    3.966 --    21 C    1.730    23 C    1.113    37 H    0.976
    23   6 C    3.929 --     1 C    1.363    24 N    1.309    22 C    1.113
    24   7 N    3.015 --    23 C    1.309    20 C    1.308
    25   1 H    1.002 --     1 C    0.972
    26   1 H    0.998 --     3 C    0.977
    27   1 H    0.998 --     4 C    0.977
    28   1 H    0.986 --     6 N    0.873
    29   1 H    1.002 --     7 C    0.971
    30   1 H    0.998 --     9 C    0.976
    31   1 H    1.007 --    10 C    0.968
    32   1 H    1.006 --    15 C    0.969
    33   1 H    0.998 --    16 C    0.977
    34   1 H    0.987 --    18 N    0.873
    35   1 H    1.002 --    19 C    0.971
    36   1 H    0.998 --    21 C    0.976
    37   1 H    0.998 --    22 C    0.976
    38   6 C    3.930 --    60 C    1.363    39 C    1.350    62 H    0.972
    39   6 C    3.903 --    38 C    1.350    40 C    1.225    43 N    1.172
    40   6 C    3.954 --    41 C    1.602    39 C    1.225    63 H    0.977
    41   6 C    3.958 --    40 C    1.602    42 C    1.226    64 H    0.977
    42   6 C    3.897 --    44 C    1.344    41 C    1.226    43 N    1.173
    43   7 N    3.471 --    42 C    1.173    39 C    1.172    65 H    0.873
    44   6 C    3.944 --    45 C    1.376    42 C    1.344    66 H    0.971
    45   6 C    3.916 --    44 C    1.376    48 N    1.280    46 C    1.120
    46   6 C    3.965 --    47 C    1.715    45 C    1.120    67 H    0.976
    47   6 C    3.964 --    46 C    1.715    49 C    1.125    68 H    0.968
    48   7 N    3.026 --    49 C    1.350    45 C    1.280
    49   6 C    3.914 --    48 N    1.350    50 C    1.256    47 C    1.125
    50   6 C    3.943 --    51 C    1.257    49 C    1.256    76 C    1.183
    51   6 C    3.889 --    50 C    1.257    52 C    1.245    55 N    1.190
    52   6 C    3.960 --    53 C    1.588    51 C    1.245    69 H    0.969
    53   6 C    3.953 --    52 C    1.588    54 C    1.233    70 H    0.977
    54   6 C    3.899 --    56 C    1.348    53 C    1.233    55 N    1.163
    55   7 N    3.475 --    51 C    1.190    54 C    1.163    71 H    0.873
    56   6 C    3.929 --    57 C    1.365    54 C    1.348    72 H    0.971
    57   6 C    3.930 --    56 C    1.365    61 N    1.308    58 C    1.111
    58   6 C    3.967 --    59 C    1.730    57 C    1.111    73 H    0.976
    59   6 C    3.966 --    58 C    1.730    60 C    1.113    74 H    0.976
    60   6 C    3.929 --    38 C    1.363    61 N    1.309    59 C    1.113
    61   7 N    3.015 --    60 C    1.309    57 C    1.308
    62   1 H    1.002 --    38 C    0.972
    63   1 H    0.998 --    40 C    0.977
    64   1 H    0.998 --    41 C    0.977
    65   1 H    0.986 --    43 N    0.873
    66   1 H    1.002 --    44 C    0.971
    67   1 H    0.998 --    46 C    0.976
    68   1 H    1.007 --    47 C    0.968
    69   1 H    1.006 --    52 C    0.969
    70   1 H    0.998 --    53 C    0.977
    71   1 H    0.987 --    55 N    0.873
    72   1 H    1.002 --    56 C    0.971
    73   1 H    0.998 --    58 C    0.976
    74   1 H    0.998 --    59 C    0.976
    75   6 C    3.934 --    76 C    2.574    13 C    1.183
    76   6 C    3.934 --    75 C    2.574    50 C    1.183
 ---------------------------------------------------------------------------

           -------------------------------------------------
          | TOTAL ENERGY             -128.216810719006 Eh   |
          | GRADIENT NORM               0.000548478715 Eh/α |
          | HOMO-LUMO GAP               1.032587372957 eV   |
           -------------------------------------------------

 * finished run on 2022/07/26 at 13:17:11.199
