   * xtb version 6.5.1 (b24c23e) compiled by 'conda@728c89f4b128' on 2022-07-12
          program call               : xtb Zn_PhNH2_C6_3.xyz --gfn 1 --opt -T 48

   ID    Z sym.   atoms
    1   30 Zn     1, 61, 133
    2    6 C      2-6, 8-12, 14-18, 20-25, 27-31, 33-38, 62-66, 68-72, 74-78,
                  80-85, 87-91, 93-98, 121-132, 134-138, 140-144, 146-150,
                  152-157, 159-163, 165-170
    3    7 N      7, 13, 19, 26, 32, 39, 67, 73, 79, 86, 92, 99, 139, 145,
                  151, 158, 164, 171
    4    1 H      40-60, 100-120, 172-191

          :  Hamiltonian                  GFN1-xTB          :
 * total energy  :  -320.6770066 Eh     change       -0.5144784E-08 Eh
 * total energy  :  -320.9225811 Eh     change       -0.2455745E+00 Eh
 * total energy  :  -321.0357904 Eh     change       -0.1132093E+00 Eh
 * total energy  :  -321.1118733 Eh     change       -0.7608290E-01 Eh
 * total energy  :  -321.1811741 Eh     change       -0.6930080E-01 Eh
 * total energy  :  -321.2310534 Eh     change       -0.4987933E-01 Eh
 * total energy  :  -321.2579775 Eh     change       -0.2692411E-01 Eh
 * total energy  :  -321.2784067 Eh     change       -0.2042917E-01 Eh
 * total energy  :  -321.2929146 Eh     change       -0.1450790E-01 Eh
 * total energy  :  -321.3012993 Eh     change       -0.8384755E-02 Eh
 * total energy  :  -321.3884494 Eh     change       -0.2982982E-04 Eh
 * total energy  :  -321.3884845 Eh     change       -0.3514590E-04 Eh
 * total energy  :  -321.3885109 Eh     change       -0.2635145E-04 Eh
 * total energy  :  -321.3885342 Eh     change       -0.2332907E-04 Eh
 * total energy  :  -321.3885609 Eh     change       -0.2666521E-04 Eh
 * total energy  :  -321.3885854 Eh     change       -0.2454124E-04 Eh
 * total energy  :  -321.3885987 Eh     change       -0.1332905E-04 Eh
 * total energy  :  -321.3886053 Eh     change       -0.6521470E-05 Eh
 * total energy  :  -321.3886096 Eh     change       -0.4303083E-05 Eh
   *** GEOMETRY OPTIMIZATION CONVERGED AFTER 59 ITERATIONS ***

 final structure:
================
191
 xtb: 6.5.1 (b24c23e)
Zn          29.06795235440212        0.02091173008311        0.02621998862768
C           25.65890236132395        0.08609876765130        0.07480017898751
C           26.29176627075055        1.20976789218642       -0.44334232202006
C           25.62100632771952        2.35781611342895       -0.98485009339753
C           26.58272874662118        3.22705988780859       -1.38554170185924
C           27.85385675470769        2.62565975054612       -1.08131131683027
N           27.64184920704138        1.40001076600964       -0.52064584095921
C           29.10662406556234        3.19767080450116       -1.33933241038410
C           29.12261319334059        4.55642619839349       -1.93434621990613
C           29.70760888127220        4.77863752746763       -3.18328786121614
C           29.71734037982240        6.04170551501353       -3.74832734555124
C           29.15186527706403        7.12014995438140       -3.06358243569937
N           29.12347849106812        8.37776752056363       -3.64338646098848
C           28.56240711354562        6.90632836737776       -1.81517739578834
C           28.54863062474729        5.63793346359538       -1.26194817134953
C           30.34330636329044        2.59349609981925       -1.08560297781433
C           31.62447260143799        3.20925453267723       -1.29334553708052
C           32.56844130137353        2.30649297029344       -0.92222169492861
N           30.53381828300796        1.33525601441988       -0.57820614952798
C           31.87488035819619        1.13459781631817       -0.47603740590372
C           32.50261844883207       -0.03989218367487       -0.01216931492534
C           31.84396068408986       -1.19358697831917        0.46076856441437
C           32.50542775103103       -2.39242000870032        0.88326771796710
C           31.53861749082559       -3.26408299969615        1.26976456278706
C           30.27576004782195       -2.60129724335679        1.09733422051367
N           30.49930722769589       -1.34743128778616        0.59246963253895
C           29.02437982831468       -3.16033852110983        1.38142231184057
C           29.00407952832768       -4.52271801915653        1.96736674188331
C           29.62250698935990       -4.77966748891954        3.19342241975252
C           29.59823643536689       -6.04647037402688        3.74953583879721
C           28.96296729056034       -7.09438101347200        3.07869936384987
N           28.90082341089022       -8.35410107644875        3.65125963209287
C           28.33935917781696       -6.84570684480210        1.85358868323003
C           28.36088523917635       -5.57367338749440        1.30910460826584
C           27.78757357136121       -2.53900267088220        1.16222503817859
C           26.50366879089959       -3.09113510445409        1.50406561319871
C           25.56488974598976       -2.18397640778294        1.13415562790126
C           26.26315447694969       -1.06174058174763        0.57381641961694
N           27.60659558554878       -1.30445656628864        0.61033322453872
H           24.57346101783865        0.10702052263095        0.09106425792349
H           24.55015288567390        2.46982907054692       -1.05413861043354
H           26.44691598989058        4.18688978109775       -1.85777215114618
H           30.14079778453002        3.94476043740969       -3.72493240492763
H           30.16415927517705        6.19898671522027       -4.72402226989625
H           29.82846865407383        8.53647296245102       -4.34560224634121
H           29.01872390999294        9.14134503481766       -2.99435552566085
H           28.11904091722718        7.73917486514616       -1.28020187041971
H           28.10462383914696        5.48355070438168       -0.28447352367395
H           31.78067102234951        4.21045426589537       -1.66175619410240
H           33.64073883852202        2.42055363816524       -0.93912083367231
H           33.57311263774817       -2.54450420960043        0.87396969765334
H           31.66775956827113       -4.27329505506863        1.62653070872152
H           30.10917562607977       -3.96924220490871        3.72512185753291
H           30.07219656369181       -6.23040557796005        4.70758893512587
H           29.62358280697708       -8.54906291039058        4.32567479273157
H           28.73900995548771       -9.10725985646417        3.00170678421603
H           27.84160711061714       -7.65450080299636        1.32967464469272
H           27.88994944049290       -5.39305168005477        0.34888748424245
H           26.34460968263445       -4.04573469560099        1.97960166238233
H           24.49309161545767       -2.25434711065421        1.23601809640084
Zn          61.16848078491892       -0.01666962359453        0.04081179848906
C           64.57740384543590       -0.01339353667674        0.11818886806248
C           63.94505819194448       -1.06713657488519        0.76732245684839
C           64.61639121721880       -2.15354033192993        1.42329069363616
C           63.65510315682543       -2.96925191275523        1.92482403844659
C           62.38365879630565       -2.38380330607506        1.59208752710868
N           62.59508374387516       -1.23760942493869        0.88278139006226
C           61.13126621697063       -2.91732362698205        1.92355227446312
C           61.11599029758602       -4.16573061939416        2.72480118573260
C           60.53513275986534       -5.32996702043862        2.21633668370749
C           60.52618797235522       -6.50014163290135        2.95484250617882
C           61.08819897790592       -6.52617180259374        4.23356245601126
N           61.11767143641725       -7.70559170751029        4.95937555370303
C           61.67329595189668       -5.36692400772257        4.74881921234964
C           61.68643755997808       -4.20367157966098        3.99930653450612
C           59.89433563131129       -2.37236873084790        1.56047495360457
C           58.61341932612416       -2.88902277430389        1.95544456878012
C           57.66906875479900       -2.07809668823525        1.41291797409052
N           59.70329602488702       -1.25034667688129        0.79798428206884
C           58.36212753974951       -1.05393416151613        0.68881311093651
C           57.73376371111510       -0.01078515301993       -0.02216728040039
C           58.39152212057464        1.02512674876341       -0.71675835643436
C           57.72901579477844        2.04461711170205       -1.47499723411170
C           58.69545287069874        2.84761161448962       -1.98991648237341
C           59.95918624901437        2.33295406846508       -1.54050057907521
N           59.73642916709024        1.21718360864319       -0.77729977713468
C           61.21059704086100        2.87637750070203       -1.85364242100844
C           61.23102328518468        4.11779181411749       -2.66507809756393
C           60.61680397009474        5.28336317324680       -2.20056130321649
C           60.64130746982089        6.44634688159884       -2.95001369299297
C           61.27274268232912        6.46414377084117       -4.19605624883568
N           61.33520137213979        7.63680919690040       -4.93070748102908
C           61.89248917761018        5.30401379257979       -4.66683100230222
C           61.87059341880166        4.14785302349128       -3.90673819242535
C           62.44772332638906        2.34740333281474       -1.46184535564181
C           63.73172390624218        2.93634375145272       -1.73516346615299
C           64.67079454280622        2.12519367183969       -1.18633496912481
C           63.97272659833764        1.03786295609324       -0.56069779661588
N           62.62909490918814        1.20393907477490       -0.73996839993208
H           65.66286815416709       -0.01156981904679        0.14364977858601
H           65.68730842586699       -2.27256726098906        1.47839970838578
H           63.79125332260437       -3.89396028890972        2.46251119974356
H           60.10459022657449       -5.31996958072698        1.22089053557659
H           60.08268796024900       -7.40064358310115        2.54401030531943
H           60.41510365637199       -8.37992618253647        4.70055681138655
H           61.21930000584933       -7.58804881495886        5.95493828020626
H           62.11381730877575       -5.38182468088216        5.73984229067883
H           62.12720766530393       -3.30333906270958        4.41350516028842
H           58.45765184394078       -3.75317018663278        2.58113905877417
H           56.59681529661526       -2.15638575376374        1.49811515093030
H           56.66092086838746        2.12373265131207       -1.60190340499428
H           58.56535869941940        3.70513205090985       -2.63041559190684
H           60.13326078714048        5.28065827676593       -1.22972077795363
H           60.17048534668350        7.34776615912881       -2.57301607542418
H           60.61413399309038        8.30808071638214       -4.71929637434612
H           61.49383326993426        7.51030101841840       -5.91774014459179
H           62.38749393768351        5.31256249699953       -5.63186733299985
H           62.33849856535679        3.24652070872287       -4.28764990404867
H           63.89067606847458        3.86072877821124       -2.26709121825985
H           65.74270438356517        2.24794684208740       -1.19063298428153
C           37.70468298393642       -0.07778468882676       -0.03517005319706
C           36.47576441844780       -0.07804677278690       -0.03246813735390
C           35.13167851892160       -0.06881016773756       -0.02801032686484
C           33.90729921809282       -0.06122610706134       -0.02178968677648
C           39.04870207923854       -0.07605342347291       -0.03558830229340
C           40.27326846487511       -0.06860865072237       -0.03236637196470
C           53.76005113817536        0.00134886175746       -0.03028946928506
C           52.53126054477624        0.00108740923937       -0.02322480789544
C           51.18713450222786       -0.00102410156823       -0.00994005766661
C           49.96267704193232       -0.00443869278210        0.00374252834953
C           55.10434986981186       -0.00053414463888       -0.03392262462078
C           56.32875386903935       -0.00338611662994       -0.03676204347334
Zn          45.11712719499441       -0.03076164477448        0.00564684180102
C           41.67766281562304       -0.06129183904622       -0.03269421314872
C           42.31506587515112        1.14775118603452       -0.38026506804887
C           41.62980095528885        2.36534588203627       -0.69575385999533
C           42.58057889785305        3.30207786852175       -0.94684152404968
C           43.85671912926041        2.66088801547866       -0.79878015587845
N           43.65787588940826        1.35241729523718       -0.44542915210127
C           45.09913750233182        3.28496696056064       -0.96257875692731
C           45.09275160756183        4.71197201622350       -1.36797381961516
C           44.51237255953586        5.10959712343909       -2.57470319371472
C           44.51018969992914        6.43947145841872       -2.95735348508600
C           45.08985112630646        7.40703438829283       -2.13311439408224
N           45.04698144085309        8.74487314978358       -2.48930122090121
C           45.66050350383316        7.01976361775234       -0.91815017024693
C           45.66667329109711        5.68656166349563       -0.54791348723273
C           46.34834915551855        2.68067098094205       -0.77658958255220
C           47.61687049215811        3.31243618943486       -1.00735931044731
C           48.57840690154757        2.39373991625474       -0.73142676428222
N           46.56223067682672        1.38780346615173       -0.37813541827640
C           47.90722925395718        1.19109196119402       -0.33808877190066
C           48.55821352380639       -0.00756984019126        0.01978848293042
C           47.92066231261586       -1.21222333310599        0.38167723952998
C           48.60517220988271       -2.42714548400021        0.70890122646758
C           47.65379636209885       -3.35752052047253        0.98093047491506
C           46.37823952590362       -2.71583637682293        0.83026747189422
N           46.57778936900973       -1.41311478942047        0.45748256254220
C           45.13586107437914       -3.33703627072854        1.00556190550804
C           45.14428202553915       -4.75373723185834        1.44599843985495
C           44.57579535002444       -5.75270314235913        0.65220288694946
C           44.58386296681444       -7.07478292134058        1.06084002558408
C           45.16203974341260       -7.42737786365513        2.28279291695770
N           45.12743128573115       -8.74140146724321        2.71869922231904
C           45.72241605248152       -6.43280698572190        3.08817263942584
C           45.71831538867525       -5.11465120094347        2.66738382809916
C           43.88673394376858       -2.73793919678764        0.80419466191727
C           42.61764089253424       -3.36977472309354        1.03177063904005
C           41.65658605847096       -2.45748596888297        0.73419132371295
C           42.32843213483998       -1.25743373089114        0.33400255915926
N           43.67345278305876       -1.45048124321080        0.38774217981204
H           40.55807463787534        2.48451210975826       -0.71141437484546
H           42.43044257372797        4.34031559830217       -1.19534758020651
H           44.07650453325198        4.36228132111737       -3.22878337384901
H           44.06225170213278        6.73456210783409       -3.90000226357334
H           44.94031735481940        8.91743130190441       -3.47635379296193
H           45.74598940948235        9.32261793960993       -2.05000167514667
H           46.09943873537336        7.76821062064429       -0.26739794302208
H           46.10405412397103        5.39488850392562        0.40074802866041
H           47.75462806450354        4.32451049359253       -1.35251056379075
H           49.64858814621581        2.51164161186755       -0.79377063783140
H           49.67672449912221       -2.54860291613978        0.71926953807249
H           47.80267384590654       -4.39228778087295        1.24456828622897
H           44.14065661427983       -5.48974078038344       -0.30584298904468
H           44.14461421113941       -7.84205414964651        0.43257808543362
H           45.82574424240903       -8.97967042542527        3.40485787372836
H           45.02517155012825       -9.42836692942414        1.98872488277352
H           46.16087860167406       -6.69846456933002        4.04395264705727
H           46.14716109887829       -4.34706515256191        3.30241969330876
H           42.47890925819771       -4.37750119191865        1.38881512690400
H           40.58616577082559       -2.57720999516716        0.78802777754112

          :  Hamiltonian                  GFN1-xTB          :
         :: total energy            -321.388609568578 Eh    ::
         :: gradient norm              0.000570622743 Eh/a0 ::
         :: HOMO-LUMO gap              0.895640102672 eV    ::
         :: SCC energy              -326.743138944097 Eh    ::
         :: repulsion energy           5.522164134914 Eh    ::

    * Orbital Energies and Occupations

         #    Occupation            Energy/Eh            Energy/eV
      -------------------------------------------------------------
         1        2.0000           -0.7765724             -21.1316
       ...           ...                  ...                  ...
       283        2.0000           -0.4021378             -10.9427
       284        2.0000           -0.3974474             -10.8151
       285        2.0000           -0.3953777             -10.7588
       286        2.0000           -0.3949813             -10.7480
       287        2.0000           -0.3941796             -10.7262
       288        2.0000           -0.3941076             -10.7242
       289        2.0000           -0.3937303             -10.7139
       290        2.0000           -0.3857799             -10.4976
       291        2.0000           -0.3851652             -10.4809
       292        2.0000           -0.3847686             -10.4701
       293        2.0000           -0.3768214             -10.2538
       294        2.0000           -0.3713064             -10.1038
       295        2.0000           -0.3646261              -9.9220 (HOMO)
       296                         -0.3317119              -9.0263 (LUMO)
       297                         -0.3227105              -8.7814
       298                         -0.3172877              -8.6338
       299                         -0.3169306              -8.6241
       300                         -0.3165298              -8.6132
       301                         -0.3162750              -8.6063
       302                         -0.2937896              -7.9944
       303                         -0.2849961              -7.7551
       304                         -0.2819659              -7.6727
       305                         -0.2738521              -7.4519
       306                         -0.2730727              -7.4307
       ...                                ...                  ...
       640                          1.5884217              43.2232
      -------------------------------------------------------------
                  HL-Gap            0.0329142 Eh            0.8956 eV

Wiberg/Mayer (AO) data.
largest (>0.10) Wiberg bond orders for each atom

     #   Z sym  total        # sym  WBO       # sym  WBO       # sym  WBO
 ---------------------------------------------------------------------------
     1  30 Zn   2.000 --    39 N    0.460     7 N    0.460    19 N    0.457
                            26 N    0.457
     2   6 C    3.924 --     3 C    1.356    38 C    1.356    40 H    0.971
     3   6 C    3.923 --     2 C    1.356     7 N    1.232     4 C    1.173
     4   6 C    3.960 --     5 C    1.655     3 C    1.173    41 H    0.976
     5   6 C    3.963 --     4 C    1.655     6 C    1.175    42 H    0.973
     6   6 C    3.916 --     8 C    1.311     7 N    1.245     5 C    1.175
     7   7 N    3.293 --     6 C    1.245     3 C    1.232     1 Zn   0.460
     8   6 C    3.933 --    16 C    1.323     6 C    1.311     9 C    1.032
     9   6 C    3.988 --    15 C    1.382    10 C    1.382     8 C    1.032
    10   6 C    3.988 --    11 C    1.468     9 C    1.382    43 H    0.973
                            14 C    0.100
    11   6 C    3.990 --    10 C    1.468    12 C    1.355    44 H    0.972
                            15 C    0.100
    12   6 C    3.952 --    14 C    1.355    11 C    1.355    13 N    1.113
    13   7 N    3.131 --    12 C    1.113    46 H    0.934    45 H    0.934
    14   6 C    3.990 --    15 C    1.467    12 C    1.355    47 H    0.972
                            10 C    0.100
    15   6 C    3.988 --    14 C    1.467     9 C    1.382    48 H    0.973
                            11 C    0.100
    16   6 C    3.912 --     8 C    1.323    19 N    1.224    17 C    1.181
    17   6 C    3.960 --    18 C    1.643    16 C    1.181    49 H    0.973
    18   6 C    3.961 --    17 C    1.643    20 C    1.188    50 H    0.974
    19   7 N    3.296 --    20 C    1.264    16 C    1.224     1 Zn   0.457
    20   6 C    3.903 --    19 N    1.264    21 C    1.251    18 C    1.188
    21   6 C    3.936 --    22 C    1.251    20 C    1.251   124 C    1.195
    22   6 C    3.903 --    26 N    1.264    21 C    1.251    23 C    1.188
    23   6 C    3.961 --    24 C    1.643    22 C    1.188    51 H    0.974
    24   6 C    3.960 --    23 C    1.643    25 C    1.181    52 H    0.973
    25   6 C    3.912 --    27 C    1.323    26 N    1.224    24 C    1.181
    26   7 N    3.296 --    22 C    1.264    25 C    1.224     1 Zn   0.457
    27   6 C    3.933 --    25 C    1.323    35 C    1.310    28 C    1.033
    28   6 C    3.988 --    34 C    1.382    29 C    1.381    27 C    1.033
    29   6 C    3.988 --    30 C    1.468    28 C    1.381    53 H    0.973
                            33 C    0.100
    30   6 C    3.990 --    29 C    1.468    31 C    1.355    54 H    0.972
                            34 C    0.100
    31   6 C    3.952 --    33 C    1.355    30 C    1.355    32 N    1.113
    32   7 N    3.131 --    31 C    1.113    56 H    0.934    55 H    0.934
    33   6 C    3.990 --    34 C    1.467    31 C    1.355    57 H    0.972
                            29 C    0.100
    34   6 C    3.987 --    33 C    1.467    28 C    1.382    58 H    0.973
                            30 C    0.100
    35   6 C    3.916 --    27 C    1.310    39 N    1.245    36 C    1.175
    36   6 C    3.963 --    37 C    1.655    35 C    1.175    59 H    0.973
    37   6 C    3.960 --    36 C    1.655    38 C    1.173    60 H    0.976
    38   6 C    3.923 --     2 C    1.356    39 N    1.232    37 C    1.173
    39   7 N    3.293 --    35 C    1.245    38 C    1.232     1 Zn   0.460
    40   1 H    1.002 --     2 C    0.971
    41   1 H    0.998 --     4 C    0.976
    42   1 H    1.006 --     5 C    0.973
    43   1 H    1.005 --    10 C    0.973
    44   1 H    0.999 --    11 C    0.972
    45   1 H    0.961 --    13 N    0.934
    46   1 H    0.961 --    13 N    0.934
    47   1 H    0.999 --    14 C    0.972
    48   1 H    1.005 --    15 C    0.973
    49   1 H    1.006 --    17 C    0.973
    50   1 H    1.003 --    18 C    0.974
    51   1 H    1.002 --    23 C    0.974
    52   1 H    1.006 --    24 C    0.973
    53   1 H    1.005 --    29 C    0.973
    54   1 H    0.999 --    30 C    0.972
    55   1 H    0.961 --    32 N    0.934
    56   1 H    0.961 --    32 N    0.934
    57   1 H    0.999 --    33 C    0.972
    58   1 H    1.005 --    34 C    0.973
    59   1 H    1.006 --    36 C    0.973
    60   1 H    0.998 --    37 C    0.976
    61  30 Zn   2.000 --    99 N    0.460    67 N    0.460    79 N    0.457
                            86 N    0.457
    62   6 C    3.925 --    63 C    1.356    98 C    1.356   100 H    0.971
    63   6 C    3.923 --    62 C    1.356    67 N    1.232    64 C    1.173
    64   6 C    3.960 --    65 C    1.656    63 C    1.173   101 H    0.976
    65   6 C    3.963 --    64 C    1.656    66 C    1.174   102 H    0.973
    66   6 C    3.916 --    68 C    1.311    67 N    1.245    65 C    1.174
    67   7 N    3.293 --    66 C    1.245    63 C    1.232    61 Zn   0.460
    68   6 C    3.933 --    76 C    1.323    66 C    1.311    69 C    1.032
    69   6 C    3.988 --    75 C    1.382    70 C    1.382    68 C    1.032
    70   6 C    3.988 --    71 C    1.468    69 C    1.382   103 H    0.973
                            74 C    0.100
    71   6 C    3.990 --    70 C    1.468    72 C    1.355   104 H    0.972
                            75 C    0.100
    72   6 C    3.952 --    74 C    1.355    71 C    1.355    73 N    1.113
    73   7 N    3.131 --    72 C    1.113   106 H    0.934   105 H    0.934
    74   6 C    3.990 --    75 C    1.467    72 C    1.355   107 H    0.972
                            70 C    0.100
    75   6 C    3.988 --    74 C    1.467    69 C    1.382   108 H    0.973
                            71 C    0.100
    76   6 C    3.912 --    68 C    1.323    79 N    1.224    77 C    1.181
    77   6 C    3.960 --    78 C    1.643    76 C    1.181   109 H    0.973
    78   6 C    3.961 --    77 C    1.643    80 C    1.188   110 H    0.974
    79   7 N    3.297 --    80 C    1.263    76 C    1.224    61 Zn   0.457
    80   6 C    3.903 --    79 N    1.263    81 C    1.251    78 C    1.188
    81   6 C    3.936 --    82 C    1.252    80 C    1.251   132 C    1.194
    82   6 C    3.903 --    86 N    1.263    81 C    1.252    83 C    1.188
    83   6 C    3.961 --    84 C    1.643    82 C    1.188   111 H    0.974
    84   6 C    3.960 --    83 C    1.643    85 C    1.181   112 H    0.973
    85   6 C    3.912 --    87 C    1.322    86 N    1.224    84 C    1.181
    86   7 N    3.297 --    82 C    1.263    85 C    1.224    61 Zn   0.457
    87   6 C    3.933 --    85 C    1.322    95 C    1.310    88 C    1.033
    88   6 C    3.988 --    94 C    1.382    89 C    1.382    87 C    1.033
    89   6 C    3.988 --    90 C    1.468    88 C    1.382   113 H    0.973
                            93 C    0.100
    90   6 C    3.990 --    89 C    1.468    91 C    1.355   114 H    0.972
                            94 C    0.100
    91   6 C    3.952 --    90 C    1.355    93 C    1.355    92 N    1.113
    92   7 N    3.131 --    91 C    1.113   116 H    0.934   115 H    0.934
    93   6 C    3.990 --    94 C    1.467    91 C    1.355   117 H    0.972
                            89 C    0.100
    94   6 C    3.987 --    93 C    1.467    88 C    1.382   118 H    0.973
                            90 C    0.100
    95   6 C    3.916 --    87 C    1.310    99 N    1.245    96 C    1.175
    96   6 C    3.963 --    97 C    1.655    95 C    1.175   119 H    0.973
    97   6 C    3.960 --    96 C    1.655    98 C    1.173   120 H    0.976
    98   6 C    3.923 --    62 C    1.356    99 N    1.232    97 C    1.173
    99   7 N    3.293 --    95 C    1.245    98 C    1.232    61 Zn   0.460
   100   1 H    1.002 --    62 C    0.971
   101   1 H    0.998 --    64 C    0.976
   102   1 H    1.006 --    65 C    0.973
   103   1 H    1.005 --    70 C    0.973
   104   1 H    0.999 --    71 C    0.972
   105   1 H    0.961 --    73 N    0.934
   106   1 H    0.961 --    73 N    0.934
   107   1 H    0.999 --    74 C    0.972
   108   1 H    1.005 --    75 C    0.973
   109   1 H    1.006 --    77 C    0.973
   110   1 H    1.003 --    78 C    0.974
   111   1 H    1.002 --    83 C    0.974
   112   1 H    1.006 --    84 C    0.973
   113   1 H    1.005 --    89 C    0.973
   114   1 H    0.999 --    90 C    0.972
   115   1 H    0.961 --    92 N    0.934
   116   1 H    0.961 --    92 N    0.934
   117   1 H    0.999 --    93 C    0.972
   118   1 H    1.005 --    94 C    0.973
   119   1 H    1.006 --    96 C    0.973
   120   1 H    0.998 --    97 C    0.976
   121   6 C    3.925 --   122 C    2.364   125 C    1.338   124 C    0.190
   122   6 C    3.924 --   121 C    2.364   123 C    1.338   126 C    0.190
   123   6 C    3.932 --   124 C    2.444   122 C    1.338
   124   6 C    3.889 --   123 C    2.444    21 C    1.195   121 C    0.190
   125   6 C    3.930 --   126 C    2.442   121 C    1.338
   126   6 C    3.890 --   125 C    2.442   134 C    1.197   122 C    0.190
   127   6 C    3.923 --   128 C    2.365   131 C    1.337   130 C    0.189
   128   6 C    3.925 --   127 C    2.365   129 C    1.337   132 C    0.190
   129   6 C    3.930 --   130 C    2.443   128 C    1.337
   130   6 C    3.890 --   129 C    2.443   153 C    1.196   127 C    0.189
   131   6 C    3.932 --   132 C    2.445   127 C    1.337
   132   6 C    3.889 --   131 C    2.445    81 C    1.194   128 C    0.190
   133  30 Zn   1.997 --   171 N    0.457   139 N    0.457   151 N    0.456
                           158 N    0.456
   134   6 C    3.924 --   170 C    1.249   135 C    1.249   126 C    1.197
   135   6 C    3.903 --   139 N    1.263   134 C    1.249   136 C    1.190
   136   6 C    3.959 --   137 C    1.640   135 C    1.190   172 H    0.974
   137   6 C    3.961 --   136 C    1.640   138 C    1.184   173 H    0.973
   138   6 C    3.909 --   140 C    1.318   139 N    1.224   137 C    1.184
   139   7 N    3.291 --   135 C    1.263   138 C    1.224   133 Zn   0.457
   140   6 C    3.929 --   138 C    1.318   148 C    1.317   141 C    1.032
   141   6 C    3.988 --   142 C    1.382   147 C    1.381   140 C    1.032
   142   6 C    3.988 --   143 C    1.467   141 C    1.382   174 H    0.973
                           146 C    0.100
   143   6 C    3.990 --   142 C    1.467   144 C    1.355   175 H    0.972
                           147 C    0.100
   144   6 C    3.952 --   143 C    1.355   146 C    1.355   145 N    1.113
   145   7 N    3.132 --   144 C    1.113   176 H    0.934   177 H    0.934
   146   6 C    3.990 --   147 C    1.468   144 C    1.355   178 H    0.972
                           142 C    0.100
   147   6 C    3.988 --   146 C    1.468   141 C    1.381   179 H    0.973
                           143 C    0.100
   148   6 C    3.909 --   140 C    1.317   151 N    1.225   149 C    1.184
   149   6 C    3.961 --   150 C    1.640   148 C    1.184   180 H    0.973
   150   6 C    3.959 --   149 C    1.640   152 C    1.191   181 H    0.974
   151   7 N    3.291 --   152 C    1.263   148 C    1.225   133 Zn   0.456
   152   6 C    3.903 --   151 N    1.263   153 C    1.249   150 C    1.191
   153   6 C    3.924 --   154 C    1.249   152 C    1.249   130 C    1.196
   154   6 C    3.903 --   158 N    1.263   153 C    1.249   155 C    1.190
   155   6 C    3.959 --   156 C    1.640   154 C    1.190   182 H    0.974
   156   6 C    3.961 --   155 C    1.640   157 C    1.184   183 H    0.973
   157   6 C    3.909 --   159 C    1.317   158 N    1.225   156 C    1.184
   158   7 N    3.291 --   154 C    1.263   157 C    1.225   133 Zn   0.456
   159   6 C    3.929 --   167 C    1.318   157 C    1.317   160 C    1.032
   160   6 C    3.988 --   161 C    1.382   166 C    1.381   159 C    1.032
   161   6 C    3.988 --   162 C    1.467   160 C    1.382   184 H    0.973
                           165 C    0.100
   162   6 C    3.990 --   161 C    1.467   163 C    1.355   185 H    0.972
                           166 C    0.100
   163   6 C    3.952 --   162 C    1.355   165 C    1.355   164 N    1.114
   164   7 N    3.132 --   163 C    1.114   187 H    0.934   186 H    0.934
   165   6 C    3.990 --   166 C    1.468   163 C    1.355   188 H    0.972
                           161 C    0.100
   166   6 C    3.988 --   165 C    1.468   160 C    1.381   189 H    0.973
                           162 C    0.100
   167   6 C    3.909 --   159 C    1.318   171 N    1.224   168 C    1.184
   168   6 C    3.961 --   169 C    1.640   167 C    1.184   190 H    0.973
   169   6 C    3.959 --   168 C    1.640   170 C    1.190   191 H    0.974
   170   6 C    3.903 --   171 N    1.263   134 C    1.249   169 C    1.190
   171   7 N    3.291 --   170 C    1.263   167 C    1.224   133 Zn   0.457
   172   1 H    1.002 --   136 C    0.974
   173   1 H    1.006 --   137 C    0.973
   174   1 H    1.005 --   142 C    0.973
   175   1 H    0.999 --   143 C    0.972
   176   1 H    0.961 --   145 N    0.934
   177   1 H    0.961 --   145 N    0.934
   178   1 H    0.999 --   146 C    0.972
   179   1 H    1.005 --   147 C    0.973
   180   1 H    1.006 --   149 C    0.973
   181   1 H    1.002 --   150 C    0.974
   182   1 H    1.002 --   155 C    0.974
   183   1 H    1.006 --   156 C    0.973
   184   1 H    1.005 --   161 C    0.973
   185   1 H    0.999 --   162 C    0.972
   186   1 H    0.961 --   164 N    0.934
   187   1 H    0.961 --   164 N    0.934
   188   1 H    0.999 --   165 C    0.972
   189   1 H    1.005 --   166 C    0.973
   190   1 H    1.006 --   168 C    0.973
   191   1 H    1.002 --   169 C    0.974
 ---------------------------------------------------------------------------

           -------------------------------------------------
          | TOTAL ENERGY             -321.388609568578 Eh   |
          | GRADIENT NORM               0.000570622743 Eh/α |
          | HOMO-LUMO GAP               0.895640102672 eV   |
           -------------------------------------------------

 * finished run on 2022/07/30 at 09:45:51.476
