   * xtb version 6.5.1 (b24c23e) compiled by 'conda@728c89f4b128' on 2022-07-12
          program call               : xtb Co_PhCHO_C8_3.xyz --gfn 1 --opt -T 48

   ID    Z sym.   atoms
    1   27 Co     1, 61, 137
    2    6 C      2-6, 8-13, 15-19, 21-26, 28-33, 35-40, 62-66, 68-73, 75-79,
                  81-86, 88-93, 95-100, 121-136, 138-142, 144-149, 151-155,
                  157-162, 164-169, 171-176
    3    7 N      7, 20, 27, 41, 67, 80, 87, 101, 143, 156, 163, 177
    4    8 O      14, 34, 74, 94, 150, 170
    5    1 H      42-60, 102-120, 178-195

          :  Hamiltonian                  GFN1-xTB          :
 * total energy  :  -354.2168197 Eh     change       -0.3038735E-08 Eh
 * total energy  :  -355.3987302 Eh     change       -0.1181911E+01 Eh
 * total energy  :  -355.6561120 Eh     change       -0.2573818E+00 Eh
 * total energy  :  -355.7974733 Eh     change       -0.1413612E+00 Eh
 * total energy  :  -355.9061026 Eh     change       -0.1086294E+00 Eh
 * total energy  :  -355.9883693 Eh     change       -0.8226670E-01 Eh
 * total energy  :  -356.0350876 Eh     change       -0.4671822E-01 Eh
 * total energy  :  -356.0680925 Eh     change       -0.3300492E-01 Eh
 * total energy  :  -356.0898125 Eh     change       -0.2172004E-01 Eh
 * total energy  :  -356.1017502 Eh     change       -0.1193768E-01 Eh
 * total energy  :  -356.1274039 Eh     change        0.9574720E-05 Eh
 * total energy  :  -356.1274157 Eh     change       -0.1178677E-04 Eh
 * total energy  :  -356.1273961 Eh     change        0.1957399E-04 Eh
 * total energy  :  -356.1274181 Eh     change       -0.2197561E-04 Eh
 * total energy  :  -356.1274052 Eh     change        0.1289375E-04 Eh
 * total energy  :  -356.1274188 Eh     change       -0.1356694E-04 Eh
 * total energy  :  -356.1274134 Eh     change        0.5379510E-05 Eh
 * total energy  :  -356.1274236 Eh     change       -0.1024743E-04 Eh
 * total energy  :  -356.1274248 Eh     change       -0.1226135E-05 Eh
   *** GEOMETRY OPTIMIZATION CONVERGED AFTER 78 ITERATIONS ***

 final structure:
================
195
 xtb: 6.5.1 (b24c23e)
Co          26.96951167706735        0.01074693817105       -0.06483483637765
C           23.60092060669315        0.07528662847931       -0.24796462741376
C           24.28350283227960        1.27038867582921       -0.31615544377908
C           23.64203679703216        2.54341703346498       -0.44618765343573
C           24.59843889589735        3.48106090669876       -0.25261587475559
C           25.82712875153479        2.77934430513597       -0.01984338027410
N           25.63064584761434        1.42483122303974       -0.10294183278504
C           27.00598510664792        3.38798931424475        0.39050374210272
C           27.02172724331622        4.85413868566554        0.60374918881346
C           27.22398090695721        5.37932106230829        1.88294451330538
C           27.24072263366669        6.74693313440292        2.07936537400501
C           27.06070203268709        7.61896057047860        1.00062902875589
C           27.08772900012839        9.07445911946685        1.23523469263419
O           27.25883356130933        9.57471239059493        2.31721751026281
C           26.86060641675821        7.09400364827012       -0.27825512968412
C           26.83927667378961        5.72436156291017       -0.47380407929232
C           28.17493230771787        2.67055770384335        0.59113519526556
C           29.42580651024941        3.26722167009358        0.95359572377521
C           30.37136691092695        2.30784409484495        0.81436946732443
N           28.35023200759388        1.34046945308019        0.28063844828159
C           29.69650878828022        1.12895318149896        0.37188163010480
C           30.36247409417088       -0.03381605146524       -0.02567020983903
C           29.67173598470541       -1.19057805918825       -0.39519193913485
C           30.32004744911999       -2.39832558524527       -0.79784019434647
C           29.35675845108978       -3.34738578148229       -0.87770068923170
C           28.12283592752287       -2.71391467148580       -0.52155515604359
N           28.32176776140263       -1.37339553255066       -0.28500336783155
C           26.92018100203020       -3.38662741175406       -0.36278639834934
C           26.90407259558331       -4.86092257685671       -0.48485570769564
C           26.11996771219020       -5.48122763565135       -1.46164274054334
C           26.10963244278442       -6.85949117591143       -1.58081011208015
C           26.87932773139986       -7.64599948443172       -0.72036645654353
C           26.88343052590091       -9.11682167483058       -0.82494008890248
O           27.52749749392880       -9.83683023434176       -0.10590380090796
C           27.66234974471057       -7.02568105226155        0.25880593564480
C           27.67758893760172       -5.64901689743483        0.37292076839944
C           25.73075732575877       -2.71401823408518       -0.11487239880765
C           24.46285136331611       -3.35901317028483        0.06583588865013
C           23.52547706517427       -2.38248215456617        0.07439150318598
C           24.22358793484496       -1.14236530722891       -0.07742886109963
N           25.57862157282523       -1.35119805576886       -0.13314269698753
H           22.51933218379513        0.09621699638205       -0.31012303601844
H           22.58938380336150        2.68030877657567       -0.63576094845155
H           24.49098302726182        4.55352462793378       -0.24594588697302
H           27.35375538730232        4.70509041307461        2.72187415434368
H           27.39260976670879        7.16398724674495        3.06911655171415
H           26.93596489894707        9.68638694578699        0.32053256704194
H           26.72388651810389        7.76376388820161       -1.12105466461415
H           26.69705175225473        5.31918937817338       -1.46928042419029
H           29.55605584744215        4.29545190555921        1.24885392544564
H           31.43434527685076        2.37916911020232        0.97897287670834
H           31.37827752280296       -2.49336066692191       -0.98012394078524
H           29.46016898027964       -4.38382211202393       -1.15456433195465
H           25.53224382617888       -4.87285989665699       -2.13982796866162
H           25.50330134348265       -7.33247019116674       -2.34648316007074
H           26.23509804523697       -9.51808831467512       -1.63289605678474
H           28.25448514422080       -7.64465239709340        0.92428295336639
H           28.27723265270440       -5.17128836420674        1.13943468324256
H           24.32214876330884       -4.42290500379946        0.16696324068766
H           22.45547260594282       -2.47297758495294        0.17271949558545
Co          64.00829709199731       -0.02345360721570       -0.10790137305731
C           67.37942484524112       -0.06262333726247       -0.29485654722516
C           66.69829034191379       -1.24035426744113       -0.51158919415355
C           67.34485124930148       -2.48630473386133       -0.79174387587099
C           66.38990430439377       -3.44244874171010       -0.72315188498948
C           65.15636416008478       -2.77671500185886       -0.42085559453784
N           65.34993118183068       -1.42213765431372       -0.32932569102173
C           63.97007365114521       -3.43430363790185       -0.12453696627112
C           63.95327069398206       -4.91582474522877       -0.10821109848757
C           63.71204998933579       -5.60489431694169        1.08355285583936
C           63.69470107210070       -6.98641361858900        1.09792470201614
C           63.91340697843994       -7.70905160529658       -0.07960697560120
C           63.88566270695172       -9.18267843568063       -0.03932579819382
O           63.68091933936170       -9.82110967863001        0.96110363776796
C           64.15190563200382       -7.02038822086998       -1.27127406070182
C           64.17324493901846       -5.63691257655738       -1.28440801471500
C           62.79281691311255       -2.75040271882829        0.13551168270419
C           61.53397146326905       -3.39381097329759        0.36651501558574
C           60.58923145377362       -2.42421079714921        0.34162002950609
N           62.62201856039731       -1.38914185895925        0.01768490066564
C           61.27260736396986       -1.19263612017441        0.10261476104609
C           60.61277466898110        0.02002632483125       -0.11095757198579
C           61.30670245274008        1.22133825780347       -0.26916307247124
C           60.65987999294956        2.47981653210215       -0.46656213670585
C           61.62322476926714        3.42815257425219       -0.38249494042328
C           62.85606716242464        2.74313964795202       -0.13490872570805
N           62.65639833963698        1.38217592693507       -0.12199533160498
C           64.06063903431989        3.38215539423394        0.11905239565048
C           64.07667826002938        4.85784455858966        0.22852641407045
C           64.84115782564066        5.62446344399980       -0.65540928996800
C           64.85083736814444        7.00446889948393       -0.55799053242300
C           64.10016923741070        7.64538301089500        0.43049054255935
C           64.09589392695220        9.11444322147048        0.55690949764248
O           63.46811993444329        9.71227894515878        1.39282078868638
C           63.33656784789761        6.87824617778349        1.31656992771036
C           63.32177381802629        5.50061452805836        1.21438414556710
C           65.25155625925463        2.68033359670517        0.24571748651858
C           66.52221271093798        3.29347077766816        0.50236011636195
C           67.45863220299920        2.32725588254458        0.35639817890625
C           66.75730864700702        1.12122732144387        0.03723866739362
N           65.40197983836897        1.33470890671751        0.02563915541880
H           68.46087399095067       -0.07436960805249       -0.36167189847424
H           68.39970287036336       -2.59658165469311       -0.98640067324012
H           66.50095541982418       -4.50740362500806       -0.84669827190564
H           63.55212922590903       -5.04677990745043        1.99907895024563
H           63.51260606772016       -7.52998639585407        2.01878686753724
H           64.07084054653032       -9.66894209321836       -1.02089688644922
H           64.31841979224794       -7.57349157083914       -2.18994796530072
H           64.34478758603186       -5.10454400840846       -2.21313598278391
H           61.39912276354057       -4.45448783701403        0.50121619311265
H           59.52205499737906       -2.51858373832181        0.46128111140054
H           59.60236232259302        2.60444670319875       -0.63455532097595
H           61.52100897531439        4.49640413086603       -0.48217423868516
H           65.41406754086097        5.13059525440047       -1.43215948039615
H           65.44177659299881        7.59245057138088       -1.25274794702637
H           64.72804283979924        9.63809392270038       -0.19167956980457
H           62.75899892391586        7.38456640998901        2.08250747648464
H           62.73674883201603        4.90770689023327        1.90831542176403
H           66.66498945098724        4.33151401624615        0.75523320294678
H           68.52987968006927        2.40316679095842        0.45356659484675
C           31.76421244133467       -0.04376242709640       -0.03664748520175
C           32.98952408587105       -0.04737856526251       -0.04521250416221
C           34.33029552351087       -0.05026947986514       -0.05165936862204
C           35.56216847251121       -0.05006341878346       -0.05509168748167
C           36.89786995977193       -0.04877564118137       -0.05544124459521
C           38.12991832855790       -0.04606417770851       -0.05347657226816
C           39.47015054006589       -0.04241377101770       -0.04850373546952
C           40.69594660874686       -0.03775080799213       -0.04125598474518
C           50.27845807015212        0.02448721396018       -0.12176709789235
C           51.50370995891278        0.03560902489321       -0.14358001399113
C           52.84450146175983        0.04372240853820       -0.16138697267326
C           54.07608257096561        0.04832058941930       -0.17083528945109
C           55.41252647892198        0.04920721889408       -0.17405834131146
C           56.64395750891354        0.04747813830725       -0.16987418716927
C           57.98546253004538        0.04081651382808       -0.15777310280084
C           59.21021937212699        0.03371648040781       -0.13887152558068
Co          45.48706054672366       -0.01456105147818       -0.05206943831493
C           42.09590356298801       -0.03355988192648       -0.03095332310034
C           42.77477542987682        1.18791024778549        0.03570653710397
C           42.12348038654115        2.45850955996234        0.06228640618714
C           43.07427578082718        3.37535127043351        0.36885091570744
C           44.30098737793400        2.65678340006987        0.53464956339958
N           44.11517427129694        1.32245330361934        0.26133956822948
C           45.47610375728136        3.20773432643397        1.02935040765628
C           45.46879027836081        4.61144578379392        1.49365531736180
C           46.33077777365222        5.55188670372006        0.92086290061270
C           46.31907700998255        6.86345010247478        1.35442702242125
C           45.45040851309668        7.26379166131307        2.37499293858037
C           45.46083604499248        8.66915029667381        2.82274593939817
O           46.18070333058171        9.51370440277199        2.35567788728361
C           44.59031311059823        6.32491988372161        2.94936093303812
C           44.59720553884669        5.01310932194725        2.51000789916767
C           46.65854132607014        2.48231685844478        1.08972217104538
C           47.89021079216977        2.98308217151776        1.62074093060353
C           48.85056511062864        2.08515682149064        1.29054682865029
N           46.85091042919352        1.24595203531032        0.51845621493037
C           48.19904769145116        1.03361009645467        0.57674232334237
C           48.87809720240885        0.00966197197041       -0.09163687061470
C           48.19319717223402       -1.03625047924156       -0.71882263352131
C           48.83658382138845       -2.09106911070834       -1.43475361308705
C           47.88583599777679       -3.02411627258446       -1.68806872246405
C           46.66743618650109       -2.53579588871348       -1.11750939141492
N           46.85632178857999       -1.28321691951206       -0.58425455447464
C           45.49903100036840       -3.27829798017362       -1.00109445380030
C           45.50759064681884       -4.69602570802614       -1.42065327393020
C           46.39801681046464       -5.59940665156749       -0.83324543009215
C           46.40761771592819       -6.92702798614402       -1.22208507116700
C           45.53122241662848       -7.37635579313548       -2.21265623975511
C           45.52418057728644       -8.78540482397929       -2.64860643339288
O           44.79123436213721       -9.21747920697375       -3.50060647499419
C           44.64312644328547       -6.47177830115736       -2.80381788799342
C           44.62884485893763       -5.14767278774213       -2.41025460178845
C           44.32325979370724       -2.72487832483952       -0.51289288428308
C           43.09949288852540       -3.44675500664342       -0.33656524750088
C           42.13854496101710       -2.52680205307555       -0.07605778648881
C           42.78227153274424       -1.25187308987400       -0.07646808836824
N           44.12714347412662       -1.38441916889437       -0.27308827221448
H           41.07219871691306        2.61196305031638       -0.12049626558511
H           42.96482084745765        4.44235807120795        0.47452648751225
H           46.99570299454637        5.24770077490696        0.12046432650097
H           46.98018282897752        7.60049086205780        0.91136071219912
H           44.74026759474033        8.89345370880544        3.63777975094967
H           43.91528232504601        6.62653907694369        3.74363821345312
H           43.93730517193400        4.28365424634363        2.96593349436638
H           47.99694361076943        3.90512295127086        2.16840279741515
H           49.90779834438995        2.12092274181734        1.49807225271036
H           49.88306798307293       -2.10662100827709       -1.69317788824315
H           47.99029180977355       -3.95978983214054       -2.21271062575650
H           47.07088601010038       -5.25580618643127       -0.05568041146243
H           47.09740506384227       -7.62296141539129       -0.75586367994015
H           46.26042631559629       -9.42931969079512       -2.12211754825988
H           43.96943272096407       -6.82886594991179       -3.57532430276463
H           43.94891217763432       -4.44608147293126       -2.88010288089981
H           42.99793282364611       -4.51714778608164       -0.41039961080007
H           41.08557241602450       -2.68108801898057        0.09583650716590

          :  Hamiltonian                  GFN1-xTB          :
         :: total energy            -356.127424847949 Eh    ::
         :: gradient norm              0.000258321697 Eh/a0 ::
         :: HOMO-LUMO gap              0.003128000920 eV    ::
         :: SCC energy              -361.932935581865 Eh    ::
         :: repulsion energy           5.978167361314 Eh    ::

    * Orbital Energies and Occupations

         #    Occupation            Energy/Eh            Energy/eV
      -------------------------------------------------------------
         1        2.0000           -0.7948124             -21.6279
       ...           ...                  ...                  ...
       314        2.0000           -0.4086492             -11.1199
       315        2.0000           -0.4085428             -11.1170
       316        2.0000           -0.4074670             -11.0877
       317        1.9998           -0.4054747             -11.0335
       318        1.9998           -0.4053126             -11.0291
       319        1.9998           -0.4051035             -11.0234
       320        1.9998           -0.4050612             -11.0223
       321        1.9997           -0.4049944             -11.0205
       322        1.9997           -0.4049434             -11.0191
       323        1.9970           -0.4026866             -10.9577
       324        1.7199           -0.3981876             -10.8352
       325        1.1218           -0.3965969             -10.7919
       326        1.1089           -0.3965697             -10.7912 (HOMO)
       327        1.0538           -0.3964548             -10.7881 (LUMO)
       328                         -0.3570399              -9.7155
       329                         -0.3479570              -9.4684
       330                         -0.3471823              -9.4473
       331                         -0.3440725              -9.3627
       332                         -0.3436276              -9.3506
       333                         -0.3434470              -9.3457
       334                         -0.3327965              -9.0559
       335                         -0.3291337              -8.9562
       336                         -0.3286669              -8.9435
       337                         -0.3250008              -8.8437
       ...                                ...                  ...
       683                          1.5901126              43.2692
      -------------------------------------------------------------
                  HL-Gap            0.0001150 Eh            0.0031 eV

Wiberg/Mayer (AO) data.
largest (>0.10) Wiberg bond orders for each atom

     #   Z sym  total        # sym  WBO       # sym  WBO       # sym  WBO
 ---------------------------------------------------------------------------
     1  27 Co   3.024 --    41 N    0.637     7 N    0.637    20 N    0.632
                            27 N    0.632
     2   6 C    3.929 --     3 C    1.367    40 C    1.364    42 H    0.970
     3   6 C    3.923 --     2 C    1.367     7 N    1.200     4 C    1.173
     4   6 C    3.960 --     5 C    1.651     3 C    1.173    43 H    0.975
     5   6 C    3.963 --     4 C    1.651     6 C    1.175    44 H    0.972
     6   6 C    3.919 --     8 C    1.317     7 N    1.214     5 C    1.175
     7   7 N    3.347 --     6 C    1.214     3 C    1.200     1 Co   0.637
     8   6 C    3.931 --    17 C    1.335     6 C    1.317     9 C    1.025
     9   6 C    3.986 --    16 C    1.386    10 C    1.383     8 C    1.025
    10   6 C    3.988 --    11 C    1.470     9 C    1.383    45 H    0.972
                            15 C    0.100
    11   6 C    3.988 --    10 C    1.470    12 C    1.371    46 H    0.968
                            16 C    0.101
    12   6 C    3.984 --    15 C    1.379    11 C    1.371    13 C    1.048
    13   6 C    3.864 --    14 O    1.809    12 C    1.048    47 H    0.942
    14   8 O    2.005 --    13 C    1.809
    15   6 C    3.993 --    16 C    1.464    12 C    1.379    48 H    0.971
                            10 C    0.100
    16   6 C    3.988 --    15 C    1.464     9 C    1.386    49 H    0.972
                            11 C    0.101
    17   6 C    3.915 --     8 C    1.335    20 N    1.191    18 C    1.179
    18   6 C    3.957 --    19 C    1.640    17 C    1.179    50 H    0.973
    19   6 C    3.962 --    18 C    1.640    21 C    1.189    51 H    0.973
    20   7 N    3.348 --    21 C    1.234    17 C    1.191     1 Co   0.632
    21   6 C    3.901 --    22 C    1.256    20 N    1.234    19 C    1.189
    22   6 C    3.934 --    23 C    1.259    21 C    1.256   121 C    1.196
    23   6 C    3.901 --    22 C    1.259    27 N    1.230    24 C    1.189
    24   6 C    3.961 --    25 C    1.638    23 C    1.189    52 H    0.973
    25   6 C    3.958 --    24 C    1.638    26 C    1.181    53 H    0.973
    26   6 C    3.916 --    28 C    1.329    27 N    1.196    25 C    1.181
    27   7 N    3.347 --    23 C    1.230    26 C    1.196     1 Co   0.632
    28   6 C    3.932 --    26 C    1.329    37 C    1.317    29 C    1.034
    29   6 C    3.986 --    30 C    1.382    36 C    1.380    28 C    1.034
    30   6 C    3.987 --    31 C    1.465    29 C    1.382    54 H    0.972
                            35 C    0.101
    31   6 C    3.993 --    30 C    1.465    32 C    1.378    55 H    0.971
    32   6 C    3.983 --    31 C    1.378    35 C    1.370    33 C    1.048
    33   6 C    3.864 --    34 O    1.809    32 C    1.048    56 H    0.942
    34   8 O    2.004 --    33 C    1.809
    35   6 C    3.988 --    36 C    1.471    32 C    1.370    57 H    0.968
                            30 C    0.101
    36   6 C    3.987 --    35 C    1.471    29 C    1.380    58 H    0.972
    37   6 C    3.920 --    28 C    1.317    41 N    1.213    38 C    1.175
    38   6 C    3.963 --    39 C    1.649    37 C    1.175    59 H    0.973
    39   6 C    3.959 --    38 C    1.649    40 C    1.174    60 H    0.975
    40   6 C    3.923 --     2 C    1.364    41 N    1.201    39 C    1.174
    41   7 N    3.346 --    37 C    1.213    40 C    1.201     1 Co   0.637
    42   1 H    1.000 --     2 C    0.970
    43   1 H    0.997 --     4 C    0.975
    44   1 H    1.004 --     5 C    0.972
    45   1 H    1.003 --    10 C    0.972
    46   1 H    1.005 --    11 C    0.968
    47   1 H    1.010 --    13 C    0.942
    48   1 H    1.000 --    15 C    0.971
    49   1 H    1.003 --    16 C    0.972
    50   1 H    1.003 --    18 C    0.973
    51   1 H    1.001 --    19 C    0.973
    52   1 H    1.001 --    24 C    0.973
    53   1 H    1.003 --    25 C    0.973
    54   1 H    1.004 --    30 C    0.972
    55   1 H    1.000 --    31 C    0.971
    56   1 H    1.010 --    33 C    0.942
    57   1 H    1.005 --    35 C    0.968
    58   1 H    1.004 --    36 C    0.972
    59   1 H    1.003 --    38 C    0.973
    60   1 H    0.997 --    39 C    0.975
    61  27 Co   3.021 --   101 N    0.637    67 N    0.637    80 N    0.633
                            87 N    0.632
    62   6 C    3.931 --    63 C    1.367   100 C    1.364   102 H    0.970
    63   6 C    3.923 --    62 C    1.367    67 N    1.200    64 C    1.172
    64   6 C    3.960 --    65 C    1.651    63 C    1.172   103 H    0.975
    65   6 C    3.963 --    64 C    1.651    66 C    1.175   104 H    0.972
    66   6 C    3.919 --    68 C    1.318    67 N    1.214    65 C    1.175
    67   7 N    3.348 --    66 C    1.214    63 C    1.200    61 Co   0.637
    68   6 C    3.933 --    77 C    1.335    66 C    1.318    69 C    1.026
    69   6 C    3.986 --    76 C    1.385    70 C    1.383    68 C    1.026
    70   6 C    3.988 --    71 C    1.470    69 C    1.383   105 H    0.972
                            75 C    0.100
    71   6 C    3.988 --    70 C    1.470    72 C    1.370   106 H    0.968
                            76 C    0.101
    72   6 C    3.984 --    75 C    1.379    71 C    1.370    73 C    1.049
    73   6 C    3.864 --    74 O    1.809    72 C    1.049   107 H    0.942
    74   8 O    2.005 --    73 C    1.809
    75   6 C    3.993 --    76 C    1.464    72 C    1.379   108 H    0.971
                            70 C    0.100
    76   6 C    3.988 --    75 C    1.464    69 C    1.385   109 H    0.972
                            71 C    0.101
    77   6 C    3.915 --    68 C    1.335    80 N    1.192    78 C    1.179
    78   6 C    3.957 --    79 C    1.640    77 C    1.179   110 H    0.973
    79   6 C    3.961 --    78 C    1.640    81 C    1.188   111 H    0.973
    80   7 N    3.350 --    81 C    1.232    77 C    1.192    61 Co   0.633
    81   6 C    3.901 --    82 C    1.259    80 N    1.232    79 C    1.188
    82   6 C    3.937 --    83 C    1.262    81 C    1.259   136 C    1.191
    83   6 C    3.901 --    82 C    1.262    87 N    1.228    84 C    1.189
    84   6 C    3.961 --    85 C    1.638    83 C    1.189   112 H    0.973
    85   6 C    3.958 --    84 C    1.638    86 C    1.181   113 H    0.973
    86   6 C    3.916 --    88 C    1.328    87 N    1.197    85 C    1.181
    87   7 N    3.349 --    83 C    1.228    86 C    1.197    61 Co   0.632
    88   6 C    3.934 --    86 C    1.328    97 C    1.319    89 C    1.033
    89   6 C    3.986 --    90 C    1.383    96 C    1.380    88 C    1.033
    90   6 C    3.987 --    91 C    1.465    89 C    1.383   114 H    0.972
                            95 C    0.101
    91   6 C    3.993 --    90 C    1.465    92 C    1.379   115 H    0.971
    92   6 C    3.983 --    91 C    1.379    95 C    1.370    93 C    1.049
    93   6 C    3.864 --    94 O    1.809    92 C    1.049   116 H    0.942
    94   8 O    2.004 --    93 C    1.809
    95   6 C    3.988 --    96 C    1.471    92 C    1.370   117 H    0.968
                            90 C    0.101
    96   6 C    3.987 --    95 C    1.471    89 C    1.380   118 H    0.972
    97   6 C    3.920 --    88 C    1.319   101 N    1.212    98 C    1.175
    98   6 C    3.963 --    99 C    1.650    97 C    1.175   119 H    0.973
    99   6 C    3.960 --    98 C    1.650   100 C    1.174   120 H    0.975
   100   6 C    3.923 --    62 C    1.364   101 N    1.202    99 C    1.174
   101   7 N    3.347 --    97 C    1.212   100 C    1.202    61 Co   0.637
   102   1 H    1.000 --    62 C    0.970
   103   1 H    0.997 --    64 C    0.975
   104   1 H    1.004 --    65 C    0.972
   105   1 H    1.003 --    70 C    0.972
   106   1 H    1.005 --    71 C    0.968
   107   1 H    1.010 --    73 C    0.942
   108   1 H    1.000 --    75 C    0.971
   109   1 H    1.003 --    76 C    0.972
   110   1 H    1.003 --    78 C    0.973
   111   1 H    1.001 --    79 C    0.973
   112   1 H    1.001 --    84 C    0.973
   113   1 H    1.003 --    85 C    0.973
   114   1 H    1.004 --    90 C    0.972
   115   1 H    1.000 --    91 C    0.971
   116   1 H    1.010 --    93 C    0.942
   117   1 H    1.005 --    95 C    0.968
   118   1 H    1.004 --    96 C    0.972
   119   1 H    1.003 --    98 C    0.973
   120   1 H    0.997 --    99 C    0.975
   121   6 C    3.868 --   122 C    2.427    22 C    1.196   124 C    0.184
   122   6 C    3.931 --   121 C    2.427   123 C    1.354
   123   6 C    3.884 --   124 C    2.319   122 C    1.354   126 C    0.179
   124   6 C    3.920 --   123 C    2.319   125 C    1.381   121 C    0.184
   125   6 C    3.917 --   126 C    2.316   124 C    1.381   128 C    0.184
   126   6 C    3.885 --   125 C    2.316   127 C    1.357   123 C    0.179
   127   6 C    3.925 --   128 C    2.420   126 C    1.357
   128   6 C    3.870 --   127 C    2.420   138 C    1.203   125 C    0.184
   129   6 C    3.871 --   130 C    2.425   158 C    1.200   132 C    0.184
   130   6 C    3.926 --   129 C    2.425   131 C    1.353
   131   6 C    3.887 --   132 C    2.322   130 C    1.353   134 C    0.180
   132   6 C    3.917 --   131 C    2.322   133 C    1.377   129 C    0.184
   133   6 C    3.921 --   134 C    2.325   132 C    1.377   136 C    0.185
   134   6 C    3.885 --   133 C    2.325   135 C    1.349   131 C    0.180
   135   6 C    3.933 --   136 C    2.433   134 C    1.349
   136   6 C    3.869 --   135 C    2.433    82 C    1.191   133 C    0.185
   137  27 Co   3.030 --   156 N    0.630   177 N    0.630   163 N    0.626
                           143 N    0.626
   138   6 C    3.920 --   139 C    1.252   176 C    1.251   128 C    1.203
   139   6 C    3.902 --   138 C    1.252   143 N    1.232   140 C    1.193
   140   6 C    3.958 --   141 C    1.632   139 C    1.193   178 H    0.973
   141   6 C    3.959 --   140 C    1.632   142 C    1.185   179 H    0.973
   142   6 C    3.914 --   144 C    1.319   143 N    1.198   141 C    1.185
   143   7 N    3.339 --   139 C    1.232   142 C    1.198   137 Co   0.626
   144   6 C    3.925 --   153 C    1.322   142 C    1.319   145 C    1.037
   145   6 C    3.986 --   152 C    1.382   146 C    1.379   144 C    1.037
   146   6 C    3.985 --   147 C    1.471   145 C    1.379   180 H    0.971
   147   6 C    3.988 --   146 C    1.471   148 C    1.370   181 H    0.967
                           152 C    0.101
   148   6 C    3.983 --   151 C    1.379   147 C    1.370   149 C    1.047
   149   6 C    3.864 --   150 O    1.810   148 C    1.047   182 H    0.942
   150   8 O    2.005 --   149 C    1.810
   151   6 C    3.993 --   152 C    1.465   148 C    1.379   183 H    0.971
   152   6 C    3.985 --   151 C    1.465   145 C    1.382   184 H    0.971
                           147 C    0.101
   153   6 C    3.914 --   144 C    1.322   156 N    1.196   154 C    1.183
   154   6 C    3.959 --   155 C    1.634   153 C    1.183   185 H    0.973
   155   6 C    3.958 --   154 C    1.634   157 C    1.192   186 H    0.973
   156   7 N    3.338 --   157 C    1.233   153 C    1.196   137 Co   0.630
   157   6 C    3.902 --   158 C    1.253   156 N    1.233   155 C    1.192
   158   6 C    3.921 --   157 C    1.253   159 C    1.253   129 C    1.200
   159   6 C    3.902 --   158 C    1.253   163 N    1.231   160 C    1.193
   160   6 C    3.959 --   161 C    1.632   159 C    1.193   187 H    0.973
   161   6 C    3.959 --   160 C    1.632   162 C    1.185   188 H    0.973
   162   6 C    3.914 --   164 C    1.317   163 N    1.199   161 C    1.185
   163   7 N    3.339 --   159 C    1.231   162 C    1.199   137 Co   0.626
   164   6 C    3.925 --   173 C    1.324   162 C    1.317   165 C    1.037
   165   6 C    3.986 --   166 C    1.382   172 C    1.379   164 C    1.037
   166   6 C    3.985 --   167 C    1.465   165 C    1.382   189 H    0.971
                           171 C    0.101
   167   6 C    3.993 --   166 C    1.465   168 C    1.379   190 H    0.971
   168   6 C    3.983 --   167 C    1.379   171 C    1.370   169 C    1.047
   169   6 C    3.864 --   170 O    1.810   168 C    1.047   191 H    0.942
   170   8 O    2.005 --   169 C    1.810
   171   6 C    3.988 --   172 C    1.471   168 C    1.370   192 H    0.967
                           166 C    0.101
   172   6 C    3.986 --   171 C    1.471   165 C    1.379   193 H    0.971
   173   6 C    3.914 --   164 C    1.324   177 N    1.195   174 C    1.183
   174   6 C    3.959 --   175 C    1.634   173 C    1.183   194 H    0.973
   175   6 C    3.958 --   174 C    1.634   176 C    1.192   195 H    0.973
   176   6 C    3.902 --   138 C    1.251   177 N    1.234   175 C    1.192
   177   7 N    3.338 --   176 C    1.234   173 C    1.195   137 Co   0.630
   178   1 H    1.001 --   140 C    0.973
   179   1 H    1.003 --   141 C    0.973
   180   1 H    1.004 --   146 C    0.971
   181   1 H    1.004 --   147 C    0.967
   182   1 H    1.010 --   149 C    0.942
   183   1 H    1.000 --   151 C    0.971
   184   1 H    1.004 --   152 C    0.971
   185   1 H    1.003 --   154 C    0.973
   186   1 H    1.000 --   155 C    0.973
   187   1 H    1.001 --   160 C    0.973
   188   1 H    1.003 --   161 C    0.973
   189   1 H    1.004 --   166 C    0.971
   190   1 H    1.000 --   167 C    0.971
   191   1 H    1.010 --   169 C    0.942
   192   1 H    1.004 --   171 C    0.967
   193   1 H    1.004 --   172 C    0.971
   194   1 H    1.003 --   174 C    0.973
   195   1 H    1.000 --   175 C    0.973
 ---------------------------------------------------------------------------

           -------------------------------------------------
          | TOTAL ENERGY             -356.127424847949 Eh   |
          | GRADIENT NORM               0.000258321697 Eh/α |
          | HOMO-LUMO GAP               0.003128000920 eV   |
           -------------------------------------------------

 * finished run on 2022/07/29 at 23:00:40.263
