   * xtb version 6.5.1 (b24c23e) compiled by 'conda@728c89f4b128' on 2022-07-12
          program call               : xtb Cu_Py_C4_3.xyz --gfn 1 --opt -T 48

   ID    Z sym.   atoms
    1   29 Cu     1, 55, 117
    2    6 C      2-6, 8-11, 13-17, 19-24, 26-29, 31-36, 56-60, 62-65, 67-71,
                  73-78, 80-83, 85-90, 109-116, 118-122, 124-127, 129-133,
                  135-140, 142-145, 147-152
    3    7 N      7, 12, 18, 25, 30, 37, 61, 66, 72, 79, 84, 91, 123, 128,
                  134, 141, 146, 153
    4    1 H      38-54, 92-108, 154-169

          :  Hamiltonian                  GFN1-xTB          :
 * total energy  :  -303.9955812 Eh     change        0.4546337E-08 Eh
 * total energy  :  -304.3162933 Eh     change       -0.3207121E+00 Eh
 * total energy  :  -304.4351892 Eh     change       -0.1188958E+00 Eh
 * total energy  :  -304.5023690 Eh     change       -0.6717986E-01 Eh
 * total energy  :  -304.5622967 Eh     change       -0.5992765E-01 Eh
 * total energy  :  -304.6230116 Eh     change       -0.6071489E-01 Eh
 * total energy  :  -304.6557047 Eh     change       -0.3269319E-01 Eh
 * total energy  :  -304.6768030 Eh     change       -0.2109821E-01 Eh
 * total energy  :  -304.6869219 Eh     change       -0.1011896E-01 Eh
 * total energy  :  -304.7049356 Eh     change       -0.1801363E-01 Eh
 * total energy  :  -304.8191371 Eh     change       -0.8758187E-05 Eh
 * total energy  :  -304.8191428 Eh     change       -0.5754103E-05 Eh
 * total energy  :  -304.8191502 Eh     change       -0.7359965E-05 Eh
 * total energy  :  -304.8191590 Eh     change       -0.8814309E-05 Eh
 * total energy  :  -304.8191679 Eh     change       -0.8844776E-05 Eh
 * total energy  :  -304.8191784 Eh     change       -0.1049718E-04 Eh
 * total energy  :  -304.8191878 Eh     change       -0.9463523E-05 Eh
 * total energy  :  -304.8191929 Eh     change       -0.5066815E-05 Eh
 * total energy  :  -304.8191960 Eh     change       -0.3149140E-05 Eh
   *** GEOMETRY OPTIMIZATION CONVERGED AFTER 61 ITERATIONS ***

 final structure:
================
169
 xtb: 6.5.1 (b24c23e)
Cu          24.71090616546271       -0.02269969351227       -0.01978667592145
C           21.30475933013032       -0.05144164261076       -0.03843888889319
C           21.93838857897800       -1.27702152804567        0.10067291733001
C           21.26151523981535       -2.53138602945820        0.26761724166085
C           22.21890898186773       -3.48376235375844        0.38952913123381
C           23.49051771778117       -2.82006827465947        0.28953013093236
N           23.28885694530238       -1.48047002934397        0.12052765348501
C           24.73439834651255       -3.44771173423250        0.38632711107802
C           24.74540734190192       -4.92070113452032        0.55920118821844
C           25.27655424842281       -5.51254976017952        1.70435495667414
C           25.26287801408022       -6.89374083820170        1.81975688095082
N           24.76769201368305       -7.69425126614333        0.88146163535217
C           24.26153312002462       -7.13820001179405       -0.21462217099729
C           24.22558142541006       -5.76786869566095       -0.41876277242951
C           25.96863615189197       -2.79757081593878        0.33143052320537
C           27.24535338693085       -3.45190292578043        0.38617360430559
C           28.19249737884662       -2.48601096362910        0.27980596796261
N           26.15841130005679       -1.44944434444663        0.18178312343086
C           27.50260727328561       -1.23747075785520        0.15091060702997
C           28.13922438283830        0.00486458500382       -0.00998689197212
C           27.48348056003198        1.23698615038653       -0.17129047920804
C           28.15364317590803        2.48898672516844       -0.35774468696638
C           27.19166123525698        3.43976137489738       -0.46749323708425
C           25.92562038016602        2.77441617268392       -0.34171468432049
N           26.13625296232864        1.43171998167875       -0.17294596586652
C           24.68135250491459        3.40421418758613       -0.41004128558917
C           24.66977535447232        4.87895910010069       -0.56487260012826
C           24.10788072784836        5.48719842970391       -1.68671029255435
C           24.12047319992852        6.86974093133359       -1.78355361783060
N           24.64338724842795        7.65698043971455       -0.84897506203943
C           25.18030913921445        7.08532650431004        0.22419921169683
C           25.21914978407044        5.71234040624616        0.40892605131658
C           23.44706314467379        2.75394364066388       -0.34148315071595
C           22.16529165830843        3.40484236693486       -0.37497297911031
C           21.22291625125423        2.43494258624713       -0.27661498434832
C           21.91914488973055        1.18458119993717       -0.17109307897834
N           23.26629850386518        1.40743663517213       -0.20746567983123
H           20.21968279083675       -0.05924888640756       -0.03159306770222
H           20.18999537795630       -2.65214146475601        0.29380064666594
H           22.08361353918708       -4.54181888809252        0.54605091257807
H           25.68110944040754       -4.89896484167794        2.50046257107106
H           25.66719098895723       -7.37735042602314        2.70423000561299
H           23.86756394745823       -7.81834626102961       -0.96414868378431
H           23.81361546448023       -5.35942638541783       -1.33386926472739
H           27.39401635694496       -4.51540179789470        0.47981075771582
H           29.26473560139162       -2.59972287710768        0.27956392991018
H           29.22378759464884        2.61331815608654       -0.40264081279391
H           27.32324944497153        4.49687636014214       -0.63225014682781
H           23.68114203087335        4.88509660969622       -2.48005528153826
H           23.69219468949247        7.36596595822029       -2.64968740114424
H           25.59793634794012        7.75452937919585        0.97082285345415
H           25.65672256634767        5.29114400883896        1.30625538102429
H           22.01314809026817        4.46933669898342       -0.45213083940737
H           20.14975462321572        2.54295478661537       -0.26768323351969
Cu          51.65167364750106        0.04043662742906       -0.01941775071186
C           55.05791909747108        0.05446135402570       -0.05902814396453
C           54.42646284250657        1.26797887359372       -0.28608915569357
C           55.10512703573513        2.51486232184230       -0.49594766492741
C           54.14914021934862        3.46063898700670       -0.66963047979467
C           52.87671109628059        2.79741408605362       -0.57744031954630
N           53.07638115526736        1.46898404389120       -0.33424591672208
C           51.63326876997730        3.42245347199833       -0.69519690148673
C           51.62366069603964        4.87854840254230       -0.97617142177478
C           51.07017057819987        5.78578281153889       -0.07370927631967
C           51.08867384803754        7.13805071308760       -0.37725622729277
N           51.60883263860219        7.62118232746534       -1.50072836282327
C           52.13537380009192        6.76275763695908       -2.36828885725688
C           52.16857733327240        5.39431103172474       -2.15147393835651
C           50.39821960579544        2.78391475406006       -0.56807249792588
C           49.12304086473139        3.41905455713597       -0.74514980116417
C           48.17438282191880        2.46857731264172       -0.54954929966547
N           50.20639294578804        1.45797458887638       -0.28321626015262
C           48.86201034522318        1.24649828700400       -0.25848550149717
C           48.22307412060462        0.02446149326107        0.01248924323015
C           48.87715982807375       -1.19111555582424        0.27601529823827
C           48.20479056725169       -2.43199762260971        0.51973427760980
C           49.16539002066081       -3.37339665985448        0.69985458624790
C           50.43299268805551       -2.71080765550352        0.57562003584372
N           50.22416780136469       -1.38306669269836        0.31213955212803
C           51.67636585570258       -3.33859471367474        0.67162955773206
C           51.68701548821447       -4.79163329345767        0.96808352107149
C           52.21452207884783       -5.71139670911985        0.06249521986911
C           52.20042686808306       -7.05973308559024        0.38286697800821
N           51.70756033334224       -7.52793581666387        1.52504804566219
C           51.20444425260033       -6.65771632185611        2.39468675354715
C           51.17009170051679       -5.29172456604314        2.16262038322340
C           52.91090347222405       -2.70571131546464        0.50952360609072
C           54.19198223273156       -3.34347461084086        0.64994555937649
C           55.13576035025993       -2.39242910506297        0.44203501339891
C           54.44125641694436       -1.16396556431015        0.18170295570032
N           53.09363184753308       -1.38185030306187        0.23066197110830
H           56.14302526951371        0.06104347664826       -0.05899370846838
H           56.17672268912365        2.63768665950032       -0.49992257339357
H           54.28618283201682        4.51718222451931       -0.83457708881281
H           50.64491064905076        5.43846620136093        0.86034135199571
H           50.66747614977363        7.86393405210006        0.31225716089176
H           52.54934011143474        7.18757132927836       -3.27807066578164
H           52.59802627899160        4.73095815098138       -2.89272911969497
H           48.97668172260501        4.45616780847202       -0.99984293592039
H           47.10257183701145        2.57459417892587       -0.60061587917968
H           47.13412331505666       -2.55812225074774        0.54062709738496
H           49.03120838469032       -4.42643885832173        0.88694656369500
H           52.61566549731508       -5.37660338509469       -0.88675039952151
H           52.60192856569611       -7.79520353568337       -0.30823583743827
H           50.81101602209066       -7.07030477993557        3.31916705836281
H           50.76072320613617       -4.61847254487034        2.90638062561209
H           54.34275127514663       -4.38362554066421        0.88995629199493
H           56.20893176865576       -2.49778367806435        0.46673131945680
C           30.76823347267721        0.01793407309065       -0.02094388104568
C           29.54695021393730        0.01328102800464       -0.01797944875182
C           32.11913093115102        0.01905669965795       -0.02408729365918
C           33.34053985646546        0.01660057144524       -0.02581323290446
C           44.24380947541339        0.00260579460427        0.00495091638602
C           43.02222826000521       -0.00024190249620       -0.00114527074630
C           45.59435274123087        0.00848722071543        0.00874132406103
C           46.81580918159903        0.01541007213550        0.01039092017841
Cu          38.18123905897746        0.00038532581225       -0.02204215596075
C           34.74771210294688        0.01158987297901       -0.02603149945969
C           35.39092116972223       -0.89314448780709        0.83636480649546
C           34.70863272520791       -1.76856584206209        1.74153216919931
C           35.66118300042362       -2.47786905972094        2.39852183987140
C           36.93229070635270       -2.04578701969979        1.89064734036509
N           36.73494106970529       -1.07456214852780        0.94583631004840
C           38.17089491803769       -2.53103721896296        2.31507890143115
C           38.16651399446540       -3.61411873356331        3.32820568345112
C           37.59134015194153       -4.85585548185351        3.06099771955406
C           37.61242018719149       -5.83540608852696        4.04128768567293
N           38.15478561884316       -5.64887997279100        5.24034364452423
C           38.70348577854396       -4.46731466045796        5.50396158051716
C           38.73631938306621       -3.42839531472724        4.58724396006399
C           39.41337538096048       -2.07815213791088        1.86693841120722
C           40.68005779134010       -2.62655978783740        2.26069864825191
C           41.63873358762953       -1.92102236306008        1.60842319670482
N           39.61932890653936       -1.06058329675353        0.97427177513142
C           40.96454314399584       -0.94373288244935        0.80749179295414
C           41.61553651094782       -0.00187392662679       -0.00832289642631
C           40.97180490278356        0.93777855735108       -0.83236706631149
C           41.65344986820755        1.90950222858047       -1.63382685002782
C           40.70090755778375        2.61105895016557       -2.29916189679932
C           39.43045471732955        2.06712792098442       -1.91135999024936
N           39.62803282309135        1.05501991120377       -1.01070525455709
C           38.19231547467368        2.52155947459898       -2.36991810531138
C           38.19934741902096        3.59500084369710       -3.39328079518698
C           38.77346729866329        3.39165961886713       -4.64768671764413
C           38.75296617532096        4.42100349563513       -5.57542015330211
N           38.21247502381702        5.60955983529357       -5.32659070737495
C           37.66617415865944        5.81284369834377       -4.13209383952909
C           37.63272573701476        4.84380562840993       -3.14165874601808
C           36.94944804632566        2.04645187564623       -1.94673652971027
C           35.68222544439128        2.48507410757004       -2.45879499187793
C           34.72360938773080        1.78641863633314       -1.79924131167210
C           35.39831207848154        0.90995036975733       -0.88938061986331
N           36.74372237303722        1.08128740819912       -0.99752094544228
H           33.63801990788412       -1.82037572266560        1.85877563269074
H           35.51964653764286       -3.21884984724620        3.16848750230337
H           37.14737289825418       -5.05667257457454        2.09323974403860
H           37.17454798702380       -6.81174562925571        3.85510172621618
H           39.13618390293689       -4.34462907989293        6.49259084601359
H           39.18472564593671       -2.47772311037827        4.85028744803447
H           40.81428950263862       -3.45401512793681        2.93840304367287
H           42.70853600939524       -2.04807158392720        1.65381662128867
H           42.72371256637782        2.03511437736800       -1.67146683111058
H           40.84135341253469        3.43339728071046       -2.98181241394121
H           39.21593865969569        2.43486146320480       -4.89829813255536
H           39.18922437019424        4.28454565656942       -6.56067125508470
H           37.23547905620372        6.79460458425762       -3.95806560987800
H           37.18608585827862        5.05845777211819       -2.17811256813471
H           35.54725655293147        3.22342509876278       -3.23245682426105
H           33.65352552821366        1.84535820343790       -1.91802247557050

          :  Hamiltonian                  GFN1-xTB          :
         :: total energy            -304.819196042660 Eh    ::
         :: gradient norm              0.000466186912 Eh/a0 ::
         :: HOMO-LUMO gap              0.000038770772 eV    ::
         :: SCC energy              -309.558753389141 Eh    ::
         :: repulsion energy           4.895226797897 Eh    ::

    * Orbital Energies and Occupations

         #    Occupation            Energy/Eh            Energy/eV
      -------------------------------------------------------------
         1        2.0000           -0.7706465             -20.9704
       ...           ...                  ...                  ...
       271        2.0000           -0.4146173             -11.2823
       272        2.0000           -0.4145997             -11.2818
       273        2.0000           -0.4142448             -11.2722
       274        2.0000           -0.4140663             -11.2673
       275        2.0000           -0.4137988             -11.2600
       276        2.0000           -0.4018897             -10.9360
       277        2.0000           -0.4018687             -10.9354
       278        2.0000           -0.4017944             -10.9334
       279        2.0000           -0.3989326             -10.8555
       280        2.0000           -0.3928948             -10.6912
       281        2.0000           -0.3850141             -10.4768
       282        1.0182           -0.3622000              -9.8560
       283        0.9912           -0.3621423              -9.8544 (HOMO)
       284        0.9906           -0.3621408              -9.8544 (LUMO)
       285        0.0000           -0.3464911              -9.4285
       286                         -0.3378394              -9.1931
       287                         -0.3350092              -9.1161
       288                         -0.3349887              -9.1155
       289                         -0.3347474              -9.1089
       290                         -0.3307145              -8.9992
       291                         -0.3081873              -8.3862
       292                         -0.3017004              -8.2097
       293                         -0.2993791              -8.1465
       294                         -0.2817407              -7.6666
       ...                                ...                  ...
       591                          1.5136708              41.1891
      -------------------------------------------------------------
                  HL-Gap            0.0000014 Eh            0.0000 eV

Wiberg/Mayer (AO) data.
largest (>0.10) Wiberg bond orders for each atom

     #   Z sym  total        # sym  WBO       # sym  WBO       # sym  WBO
 ---------------------------------------------------------------------------
     1  29 Cu   2.190 --     7 N    0.506    37 N    0.506    25 N    0.503
                            18 N    0.503
     2   6 C    3.931 --    36 C    1.362     3 C    1.362    38 H    0.971
     3   6 C    3.916 --     2 C    1.362     7 N    1.229     4 C    1.170
     4   6 C    3.955 --     5 C    1.657     3 C    1.170    39 H    0.975
     5   6 C    3.958 --     4 C    1.657     6 C    1.171    40 H    0.973
     6   6 C    3.914 --     8 C    1.320     7 N    1.239     5 C    1.171
     7   7 N    3.245 --     6 C    1.239     3 C    1.229     1 Cu   0.506
     8   6 C    3.935 --    15 C    1.326     6 C    1.320     9 C    1.027
     9   6 C    3.986 --    10 C    1.393    14 C    1.393     8 C    1.027
                            12 N    0.107
    10   6 C    3.987 --    11 C    1.442     9 C    1.393    41 H    0.973
                            13 C    0.109
    11   6 C    3.972 --    10 C    1.442    12 N    1.416    42 H    0.972
                            14 C    0.109
    12   7 N    3.030 --    11 C    1.416    13 C    1.415     9 C    0.107
    13   6 C    3.972 --    14 C    1.442    12 N    1.415    43 H    0.972
                            10 C    0.109
    14   6 C    3.987 --    13 C    1.442     9 C    1.393    44 H    0.973
                            11 C    0.109
    15   6 C    3.909 --     8 C    1.326    18 N    1.223    16 C    1.178
    16   6 C    3.955 --    17 C    1.644    15 C    1.178    45 H    0.973
    17   6 C    3.957 --    16 C    1.644    19 C    1.186    46 H    0.974
    18   7 N    3.249 --    19 C    1.255    15 C    1.223     1 Cu   0.503
    19   6 C    3.899 --    20 C    1.263    18 N    1.255    17 C    1.186
    20   6 C    3.940 --    21 C    1.264    19 C    1.263   110 C    1.180
    21   6 C    3.899 --    20 C    1.264    25 N    1.254    22 C    1.186
    22   6 C    3.957 --    23 C    1.644    21 C    1.186    47 H    0.974
    23   6 C    3.955 --    22 C    1.644    24 C    1.178    48 H    0.973
    24   6 C    3.909 --    26 C    1.325    25 N    1.223    23 C    1.178
    25   7 N    3.249 --    21 C    1.254    24 C    1.223     1 Cu   0.503
    26   6 C    3.935 --    24 C    1.325    33 C    1.319    27 C    1.028
    27   6 C    3.986 --    28 C    1.393    32 C    1.392    26 C    1.028
                            30 N    0.107
    28   6 C    3.987 --    29 C    1.442    27 C    1.393    49 H    0.973
                            31 C    0.108
    29   6 C    3.972 --    28 C    1.442    30 N    1.416    50 H    0.972
                            32 C    0.108
    30   7 N    3.030 --    29 C    1.416    31 C    1.415    27 C    0.107
    31   6 C    3.972 --    32 C    1.442    30 N    1.415    51 H    0.972
                            28 C    0.108
    32   6 C    3.987 --    31 C    1.442    27 C    1.392    52 H    0.973
                            29 C    0.108
    33   6 C    3.914 --    26 C    1.319    37 N    1.239    34 C    1.171
    34   6 C    3.958 --    35 C    1.657    33 C    1.171    53 H    0.973
    35   6 C    3.955 --    34 C    1.657    36 C    1.170    54 H    0.975
    36   6 C    3.916 --     2 C    1.362    37 N    1.229    35 C    1.170
    37   7 N    3.244 --    33 C    1.239    36 C    1.229     1 Cu   0.506
    38   1 H    1.001 --     2 C    0.971
    39   1 H    0.998 --     4 C    0.975
    40   1 H    1.004 --     5 C    0.973
    41   1 H    1.004 --    10 C    0.973
    42   1 H    1.013 --    11 C    0.972
    43   1 H    1.013 --    13 C    0.972
    44   1 H    1.004 --    14 C    0.973
    45   1 H    1.004 --    16 C    0.973
    46   1 H    1.002 --    17 C    0.974
    47   1 H    1.002 --    22 C    0.974
    48   1 H    1.004 --    23 C    0.973
    49   1 H    1.004 --    28 C    0.973
    50   1 H    1.013 --    29 C    0.972
    51   1 H    1.013 --    31 C    0.972
    52   1 H    1.004 --    32 C    0.973
    53   1 H    1.004 --    34 C    0.973
    54   1 H    0.998 --    35 C    0.975
    55  29 Cu   2.191 --    91 N    0.507    61 N    0.506    72 N    0.504
                            79 N    0.503
    56   6 C    3.931 --    90 C    1.362    57 C    1.362    92 H    0.971
    57   6 C    3.916 --    56 C    1.362    61 N    1.229    58 C    1.170
    58   6 C    3.955 --    59 C    1.656    57 C    1.170    93 H    0.975
    59   6 C    3.958 --    58 C    1.656    60 C    1.172    94 H    0.973
    60   6 C    3.914 --    62 C    1.320    61 N    1.238    59 C    1.172
    61   7 N    3.244 --    60 C    1.238    57 C    1.229    55 Cu   0.506
    62   6 C    3.935 --    69 C    1.325    60 C    1.320    63 C    1.028
    63   6 C    3.986 --    64 C    1.393    68 C    1.393    62 C    1.028
                            66 N    0.107
    64   6 C    3.987 --    65 C    1.442    63 C    1.393    95 H    0.973
                            67 C    0.109
    65   6 C    3.972 --    64 C    1.442    66 N    1.416    96 H    0.972
                            68 C    0.108
    66   7 N    3.030 --    65 C    1.416    67 C    1.415    63 C    0.107
    67   6 C    3.972 --    68 C    1.442    66 N    1.415    97 H    0.972
                            64 C    0.109
    68   6 C    3.987 --    67 C    1.442    63 C    1.393    98 H    0.973
                            65 C    0.108
    69   6 C    3.909 --    62 C    1.325    72 N    1.222    70 C    1.179
    70   6 C    3.954 --    71 C    1.643    69 C    1.179    99 H    0.973
    71   6 C    3.957 --    70 C    1.643    73 C    1.186   100 H    0.974
    72   7 N    3.249 --    73 C    1.255    69 C    1.222    55 Cu   0.504
    73   6 C    3.898 --    74 C    1.262    72 N    1.255    71 C    1.186
    74   6 C    3.940 --    75 C    1.262    73 C    1.262   116 C    1.182
    75   6 C    3.898 --    74 C    1.262    79 N    1.255    76 C    1.186
    76   6 C    3.957 --    77 C    1.644    75 C    1.186   101 H    0.974
    77   6 C    3.954 --    76 C    1.644    78 C    1.179   102 H    0.973
    78   6 C    3.909 --    80 C    1.326    79 N    1.223    77 C    1.179
    79   7 N    3.248 --    75 C    1.255    78 C    1.223    55 Cu   0.503
    80   6 C    3.935 --    78 C    1.326    87 C    1.319    81 C    1.027
    81   6 C    3.986 --    86 C    1.393    82 C    1.393    80 C    1.027
                            84 N    0.107
    82   6 C    3.987 --    83 C    1.442    81 C    1.393   103 H    0.973
                            85 C    0.108
    83   6 C    3.972 --    82 C    1.442    84 N    1.415   104 H    0.972
                            86 C    0.108
    84   7 N    3.030 --    85 C    1.415    83 C    1.415    81 C    0.107
    85   6 C    3.972 --    86 C    1.442    84 N    1.415   105 H    0.972
                            82 C    0.108
    86   6 C    3.987 --    85 C    1.442    81 C    1.393   106 H    0.973
                            83 C    0.108
    87   6 C    3.914 --    80 C    1.319    91 N    1.239    88 C    1.172
    88   6 C    3.958 --    89 C    1.657    87 C    1.172   107 H    0.973
    89   6 C    3.955 --    88 C    1.657    90 C    1.170   108 H    0.975
    90   6 C    3.916 --    56 C    1.362    91 N    1.229    89 C    1.170
    91   7 N    3.244 --    87 C    1.239    90 C    1.229    55 Cu   0.507
    92   1 H    1.001 --    56 C    0.971
    93   1 H    0.998 --    58 C    0.975
    94   1 H    1.004 --    59 C    0.973
    95   1 H    1.004 --    64 C    0.973
    96   1 H    1.013 --    65 C    0.972
    97   1 H    1.013 --    67 C    0.972
    98   1 H    1.004 --    68 C    0.973
    99   1 H    1.004 --    70 C    0.973
   100   1 H    1.002 --    71 C    0.974
   101   1 H    1.002 --    76 C    0.974
   102   1 H    1.004 --    77 C    0.973
   103   1 H    1.004 --    82 C    0.973
   104   1 H    1.013 --    83 C    0.972
   105   1 H    1.013 --    85 C    0.972
   106   1 H    1.004 --    86 C    0.973
   107   1 H    1.004 --    88 C    0.973
   108   1 H    0.998 --    89 C    0.975
   109   6 C    3.936 --   110 C    2.485   111 C    1.301
   110   6 C    3.923 --   109 C    2.485    20 C    1.180   112 C    0.199
   111   6 C    3.933 --   112 C    2.484   109 C    1.301
   112   6 C    3.924 --   111 C    2.484   118 C    1.182   110 C    0.199
   113   6 C    3.933 --   114 C    2.482   115 C    1.303
   114   6 C    3.925 --   113 C    2.482   136 C    1.184   116 C    0.199
   115   6 C    3.936 --   116 C    2.483   113 C    1.303
   116   6 C    3.924 --   115 C    2.483    74 C    1.182   114 C    0.199
   117  29 Cu   2.162 --   123 N    0.498   141 N    0.498   153 N    0.498
                           134 N    0.498
   118   6 C    3.929 --   152 C    1.261   119 C    1.261   112 C    1.182
   119   6 C    3.899 --   118 C    1.261   123 N    1.257   120 C    1.186
   120   6 C    3.955 --   121 C    1.642   119 C    1.186   154 H    0.974
   121   6 C    3.956 --   120 C    1.642   122 C    1.180   155 H    0.973
   122   6 C    3.907 --   124 C    1.323   123 N    1.224   121 C    1.180
   123   7 N    3.241 --   119 C    1.257   122 C    1.224   117 Cu   0.498
   124   6 C    3.931 --   122 C    1.323   131 C    1.323   125 C    1.028
   125   6 C    3.986 --   126 C    1.393   130 C    1.393   124 C    1.028
                           128 N    0.107
   126   6 C    3.987 --   127 C    1.442   125 C    1.393   156 H    0.973
                           129 C    0.108
   127   6 C    3.972 --   126 C    1.442   128 N    1.416   157 H    0.972
                           130 C    0.109
   128   7 N    3.030 --   127 C    1.416   129 C    1.415   125 C    0.107
   129   6 C    3.972 --   130 C    1.442   128 N    1.415   158 H    0.972
                           126 C    0.108
   130   6 C    3.987 --   129 C    1.442   125 C    1.393   159 H    0.973
                           127 C    0.109
   131   6 C    3.907 --   124 C    1.323   134 N    1.224   132 C    1.180
   132   6 C    3.955 --   133 C    1.642   131 C    1.180   160 H    0.973
   133   6 C    3.955 --   132 C    1.642   135 C    1.186   161 H    0.974
   134   7 N    3.241 --   135 C    1.258   131 C    1.224   117 Cu   0.498
   135   6 C    3.899 --   136 C    1.260   134 N    1.258   133 C    1.186
   136   6 C    3.929 --   137 C    1.260   135 C    1.260   114 C    1.184
   137   6 C    3.899 --   136 C    1.260   141 N    1.258   138 C    1.186
   138   6 C    3.955 --   139 C    1.642   137 C    1.186   162 H    0.974
   139   6 C    3.955 --   138 C    1.642   140 C    1.180   163 H    0.973
   140   6 C    3.907 --   142 C    1.323   141 N    1.224   139 C    1.180
   141   7 N    3.242 --   137 C    1.258   140 C    1.224   117 Cu   0.498
   142   6 C    3.931 --   149 C    1.323   140 C    1.323   143 C    1.028
   143   6 C    3.986 --   148 C    1.393   144 C    1.392   142 C    1.028
                           146 N    0.107
   144   6 C    3.987 --   145 C    1.442   143 C    1.392   164 H    0.973
                           147 C    0.109
   145   6 C    3.972 --   144 C    1.442   146 N    1.415   165 H    0.972
                           148 C    0.108
   146   7 N    3.030 --   147 C    1.416   145 C    1.415   143 C    0.107
   147   6 C    3.972 --   148 C    1.442   146 N    1.416   166 H    0.972
                           144 C    0.109
   148   6 C    3.987 --   147 C    1.442   143 C    1.393   167 H    0.973
                           145 C    0.108
   149   6 C    3.907 --   142 C    1.323   153 N    1.223   150 C    1.180
   150   6 C    3.956 --   151 C    1.642   149 C    1.180   168 H    0.973
   151   6 C    3.955 --   150 C    1.642   152 C    1.186   169 H    0.974
   152   6 C    3.899 --   118 C    1.261   153 N    1.257   151 C    1.186
   153   7 N    3.241 --   152 C    1.257   149 C    1.223   117 Cu   0.498
   154   1 H    1.002 --   120 C    0.974
   155   1 H    1.004 --   121 C    0.973
   156   1 H    1.004 --   126 C    0.973
   157   1 H    1.013 --   127 C    0.972
   158   1 H    1.013 --   129 C    0.972
   159   1 H    1.004 --   130 C    0.973
   160   1 H    1.004 --   132 C    0.973
   161   1 H    1.002 --   133 C    0.974
   162   1 H    1.002 --   138 C    0.974
   163   1 H    1.004 --   139 C    0.973
   164   1 H    1.004 --   144 C    0.973
   165   1 H    1.013 --   145 C    0.972
   166   1 H    1.013 --   147 C    0.972
   167   1 H    1.004 --   148 C    0.973
   168   1 H    1.004 --   150 C    0.973
   169   1 H    1.002 --   151 C    0.974
 ---------------------------------------------------------------------------

           -------------------------------------------------
          | TOTAL ENERGY             -304.819196042660 Eh   |
          | GRADIENT NORM               0.000466186912 Eh/α |
          | HOMO-LUMO GAP               0.000038770772 eV   |
           -------------------------------------------------

 * finished run on 2022/07/30 at 04:45:04.288
