   * xtb version 6.5.1 (b24c23e) compiled by 'conda@728c89f4b128' on 2022-07-12
          program call               : xtb Co_C2Py_C4_2.xyz --gfn 1 --opt -T 48

   ID    Z sym.   atoms
    1   27 Co     1, 59
    2    6 C      2-6, 8-13, 15-19, 21-26, 28-33, 35-40, 60-64, 66-71, 73-77,
                  79-84, 86-91, 93-98, 117-120
    3    7 N      7, 14, 20, 27, 34, 41, 65, 72, 78, 85, 92, 99
    4    1 H      42-58, 100-116
########################################################################
[WARNING] Please study the warnings concerning your input carefully
-1- prog_main_parseArguments: Unknown option '-T' provided
########################################################################

          :  Hamiltonian                  GFN1-xTB          :
 * total energy  :  -215.0393650 Eh     change       -0.8560477E-08 Eh
 * total energy  :  -215.3517047 Eh     change       -0.3123397E+00 Eh
 * total energy  :  -215.4233907 Eh     change       -0.7168595E-01 Eh
 * total energy  :  -215.4558395 Eh     change       -0.3244887E-01 Eh
 * total energy  :  -215.4653121 Eh     change       -0.9472518E-02 Eh
 * total energy  :  -215.4703839 Eh     change       -0.5071894E-02 Eh
 * total energy  :  -215.4721449 Eh     change       -0.1760914E-02 Eh
 * total energy  :  -215.4728448 Eh     change       -0.6999800E-03 Eh
 * total energy  :  -215.4735769 Eh     change       -0.7320282E-03 Eh
 * total energy  :  -215.4739161 Eh     change       -0.3392729E-03 Eh
 * total energy  :  -215.4750495 Eh     change       -0.1236150E-04 Eh
 * total energy  :  -215.4750614 Eh     change       -0.1193361E-04 Eh
 * total energy  :  -215.4750748 Eh     change       -0.1341807E-04 Eh
 * total energy  :  -215.4750824 Eh     change       -0.7620126E-05 Eh
 * total energy  :  -215.4750949 Eh     change       -0.1241358E-04 Eh
 * total energy  :  -215.4751026 Eh     change       -0.7733096E-05 Eh
 * total energy  :  -215.4751087 Eh     change       -0.6114358E-05 Eh
 * total energy  :  -215.4751147 Eh     change       -0.6023900E-05 Eh
 * total energy  :  -215.4751197 Eh     change       -0.4940311E-05 Eh
   *** GEOMETRY OPTIMIZATION CONVERGED AFTER 37 ITERATIONS ***

 final structure:
================
120
 xtb: 6.5.1 (b24c23e)
Co          16.18654154324049        0.05776238282509        0.02286063611782
C           12.80141092288487        0.14904847041087       -0.00079828007267
C           13.46632728343056        0.82438187376256        0.99970197355246
C           12.80988586194995        1.54809564124165        2.04557264224363
C           13.77861386097681        2.20035716324078        2.73164634172105
C           15.01959130903149        1.87513634030610        2.09780279217179
N           14.82745499637142        0.99921470111288        1.06711530355194
C           16.23122109891694        2.49013640711344        2.41419803346112
C           16.25262505196495        3.48800139073612        3.41192885945527
C           16.27726238929488        4.34583697882161        4.26976733323995
C           16.30515364053933        5.34493743898334        5.26975482131210
C           17.49676628122964        5.99310553517620        5.61496595651891
C           17.47038042271540        6.96318273593377        6.60110160690201
N           16.36066677601010        7.31600531683635        7.24479216461852
C           15.22369889869724        6.70478271154715        6.92208791275106
C           15.14235853943041        5.72221705733743        5.95152028094495
C           17.42031232818394        2.15708030131457        1.76915534557713
C           18.67081291590926        2.79097682432101        2.04533616795993
C           19.61399114876213        2.10457889589622        1.35513306305471
N           17.58296972981784        1.12130615125651        0.88507680918458
C           18.93198100737518        1.05555010881244        0.66566786135539
C           19.59167940819989        0.03305206117237       -0.02043728994770
C           18.89876068259164       -0.98172682776019       -0.68509680637631
C           19.54481301291185       -2.05604382073044       -1.36990043748817
C           18.57307774691619       -2.73779989254062       -2.02452304532128
C           17.34179914999077       -2.07261604120189       -1.73538931589197
N           17.54494466168073       -1.02110579213584       -0.87874773364548
C           16.13487599114677       -2.38493998208730       -2.35743110882164
C           16.11253520625271       -3.40395432862854       -3.33360035277438
C           16.09585341046191       -4.27772523757594       -4.17539247322322
C           16.08063471605731       -5.29559283910633       -5.15659752331375
C           17.25171343493212       -5.97366425746990       -5.51481149536798
C           17.18539853690120       -6.96063305378161       -6.48203353257261
N           16.05536452474522       -7.30292363836456       -7.09547023140024
C           14.93779983860670       -6.66331697536901       -6.76032467861619
C           14.89640698860416       -5.66167998764929       -5.80675756043652
C           14.94867618960960       -1.71781778713554       -2.05014829395241
C           13.69716447551047       -1.99720330090234       -2.68522557598081
C           12.75798525157466       -1.27852177571163       -2.02526450350946
C           13.44179429767463       -0.56673197137285       -0.98861229739245
N           14.79397757961573       -0.80702339960259       -1.04375230169790
H           11.71802830348617        0.17678330173443       -0.00690987558277
H           11.74407639755706        1.55183079836146        2.20958145584217
H           13.68047078459075        2.85787023875031        3.58059903932319
H           18.42340980196758        5.73658347830686        5.11592646029284
H           18.38022543581654        7.48183938719265        6.88922922073292
H           14.33731426949232        7.01709470044375        7.46666264206320
H           14.19532580526194        5.24993384938214        5.72007278937072
H           18.79513134034902        3.64215739646830        2.69518426865797
H           20.67846745081781        2.27076190695084        1.31745451722630
H           20.60650770621813       -2.24251163548988       -1.35191817680641
H           18.66598519962842       -3.60423370165749       -2.65935355781080
H           18.19359407638490       -5.72624983866692       -5.04026866058866
H           18.07857979564828       -7.50227803569698       -6.77981027122095
H           14.03402978871554       -6.96772216027060       -7.28031487590610
H           13.96384196025952       -5.16648195175009       -5.56464179617738
H           13.57250687666419       -2.66923771468881       -3.51914735056201
H           11.69463799001567       -1.23241858396871       -2.19833638833666
Co          29.59544820407081       -0.04920027320407       -0.03534508591004
C           32.97997436801722       -0.07534834561549       -0.12810599799946
C           32.31476832571575       -1.28081879515912       -0.18927827504849
C           32.97021435477482       -2.55077958625501       -0.26724371285877
C           32.00127981468243       -3.47414335636694       -0.47526867140073
C           30.76116217945657       -2.76224353055867       -0.52813102896666
N           30.95390828410559       -1.42773528074957       -0.30832623988842
C           29.55052044756152       -3.34821062678569       -0.89902079289262
C           29.52922630578131       -4.71661926778214       -1.24325970700060
C           29.50461387353073       -5.89338507866247       -1.53827076054951
C           29.47697029384999       -7.26462460507394       -1.88152320964838
C           28.28583319849448       -7.89359325919321       -2.26207383198236
C           28.31239078205936       -9.23820056371150       -2.58690762291451
N           29.42184785822276       -9.97201109216848       -2.55655231397344
C           30.55835265997817       -9.38130839896193       -2.19621941080617
C           30.63948693584126       -8.04367194418651       -1.85242550727921
C           28.36235731333525       -2.62239892961652       -0.94896210178151
C           27.11249142549420       -3.18294927273564       -1.35586189455983
C           26.16920613074422       -2.23855391504142       -1.12024166097213
N           28.19939213970033       -1.33289826501560       -0.51159875310755
C           26.85049475292145       -1.11032453602257       -0.56898115892890
C           26.19094167925647        0.00112355389854       -0.03867918495094
C           26.88426070525318        1.08996739490983        0.49567922872367
C           26.23922434789468        2.22664861853024        1.07216190442473
C           27.21099786242221        3.13865357372861        1.32045015015269
C           28.44133575643739        2.55166248172902        0.89183343699776
N           28.23771498148911        1.27776449636039        0.42647916007300
C           29.64723792237884        3.24733986604748        0.83567923094129
C           29.66929775295196        4.60809776467288        1.20926668748103
C           29.68542482094460        5.77905981256249        1.52700169153135
C           29.69991066906319        7.14351310776122        1.89724459621570
C           28.52880047029722        7.79798815984215        2.29682200104402
C           28.59453905228180        9.13465732231174        2.64759919579638
N           29.72402657302442        9.83764717706061        2.62535815873660
C           30.84164954032181        9.22262492730834        2.24713052689917
C           30.88358987040645        7.89025523988599        1.87659357854542
C           30.83254466577787        2.64234514401540        0.41656231421446
C           32.08344567809775        3.33133862211662        0.32593312633523
C           33.02262186774306        2.39593698424909        0.04813278816503
C           32.33950188336821        1.14024654329001       -0.02599478307170
N           30.98742560606206        1.31085373811488        0.15313351775545
H           34.06336356714415       -0.08459228991098       -0.15460597006903
H           34.03557319941833       -2.69430638525186       -0.18207086428678
H           32.09888842454991       -4.54071126079180       -0.60005583490982
H           27.35944413250885       -7.33336509166615       -2.30026151677811
H           27.40292576543653       -9.75175297308516       -2.88518902995402
H           31.44452875184891      -10.00922362599191       -2.18246321874669
H           31.58611904507231       -7.60260175308525       -1.56461820862647
H           26.98856824387110       -4.17642553671910       -1.75576129175253
H           25.10501177224983       -2.29060602338608       -1.28439059047391
H           25.17807578185493        2.30529699256508        1.24555053589462
H           27.11855831828341        4.12682577074737        1.74155947752015
H           27.58733968488239        7.26304942537277        2.32902304746017
H           27.70132007964197        9.66754164809331        2.96067827631404
H           31.74496711982210        9.82580282388345        2.24062243021462
H           31.81612728833493        7.42895332309631        1.57477066055171
H           32.20783272260332        4.39235935438966        0.47209982927972
H           34.08565677131323        2.52117339430399       -0.08250323560675
C           22.21706974107514        0.02543027021280       -0.03634404719526
C           20.99460897241475        0.02170537143356       -0.03374611759506
C           23.56551873342410        0.01877487956061       -0.03998129244193
C           24.78805743693667        0.01811306621660       -0.03535613469775

          :  Hamiltonian                  GFN1-xTB          :
         :: total energy            -215.475119666179 Eh    ::
         :: gradient norm              0.000635356583 Eh/a0 ::
         :: HOMO-LUMO gap              0.005170500682 eV    ::
         :: SCC energy              -219.134050945173 Eh    ::
         :: repulsion energy           3.758555956396 Eh    ::

    * Orbital Energies and Occupations

         #    Occupation            Energy/Eh            Energy/eV
      -------------------------------------------------------------
         1        2.0000           -0.7790394             -21.1987
       ...           ...                  ...                  ...
       188        2.0000           -0.4221859             -11.4883
       189        2.0000           -0.4221740             -11.4879
       190        2.0000           -0.4047804             -11.0146
       191        2.0000           -0.4047347             -11.0134
       192        2.0000           -0.4024378             -10.9509
       193        2.0000           -0.4023036             -10.9472
       194        2.0000           -0.4018986             -10.9362
       195        1.9999           -0.3991502             -10.8614
       196        1.9999           -0.3991497             -10.8614
       197        1.9998           -0.3989632             -10.8563
       198        1.9998           -0.3989595             -10.8562
       199        1.7947           -0.3921797             -10.6718
       200        1.1524           -0.3904119             -10.6236 (HOMO)
       201        1.0536           -0.3902219             -10.6185 (LUMO)
       202                         -0.3469417              -9.4408
       203                         -0.3447511              -9.3812
       204                         -0.3446928              -9.3796
       205                         -0.3321228              -9.0375
       206                         -0.3176424              -8.6435
       207                         -0.3133463              -8.5266
       208                         -0.3031552              -8.2493
       209                         -0.3030318              -8.2459
       210                         -0.2910238              -7.9192
       211                         -0.2909679              -7.9176
       ...                                ...                  ...
       422                          1.5071561              41.0118
      -------------------------------------------------------------
                  HL-Gap            0.0001900 Eh            0.0052 eV

Wiberg/Mayer (AO) data.
largest (>0.10) Wiberg bond orders for each atom

     #   Z sym  total        # sym  WBO       # sym  WBO       # sym  WBO
 ---------------------------------------------------------------------------
     1  27 Co   2.994 --    41 N    0.630     7 N    0.628    20 N    0.626
                            27 N    0.624
     2   6 C    3.927 --    40 C    1.368     3 C    1.365    42 H    0.970
     3   6 C    3.916 --     2 C    1.365     7 N    1.196     4 C    1.176
     4   6 C    3.959 --     5 C    1.644     3 C    1.176    43 H    0.975
     5   6 C    3.962 --     4 C    1.644     6 C    1.184    44 H    0.974
     6   6 C    3.911 --     8 C    1.269     7 N    1.233     5 C    1.184
     7   7 N    3.343 --     6 C    1.233     3 C    1.196     1 Co   0.628
     8   6 C    3.928 --    17 C    1.282     6 C    1.269     9 C    1.158
     9   6 C    3.956 --    10 C    2.625     8 C    1.158
    10   6 C    3.931 --     9 C    2.625    11 C    1.141
    11   6 C    3.987 --    12 C    1.351    16 C    1.351    10 C    1.141
    12   6 C    3.973 --    13 C    1.456    11 C    1.351    45 H    0.974
                            15 C    0.104
    13   6 C    3.973 --    12 C    1.456    14 N    1.407    46 H    0.972
                            16 C    0.104
    14   7 N    2.994 --    13 C    1.407    15 C    1.407
    15   6 C    3.973 --    16 C    1.457    14 N    1.407    47 H    0.972
                            12 C    0.104
    16   6 C    3.973 --    15 C    1.457    11 C    1.351    48 H    0.974
                            13 C    0.104
    17   6 C    3.906 --     8 C    1.282    20 N    1.212    18 C    1.190
    18   6 C    3.958 --    19 C    1.632    17 C    1.190    49 H    0.974
    19   6 C    3.960 --    18 C    1.632    21 C    1.192    50 H    0.974
    20   7 N    3.343 --    21 C    1.225    17 C    1.212     1 Co   0.626
    21   6 C    3.895 --    22 C    1.260    20 N    1.225    19 C    1.192
    22   6 C    3.928 --    21 C    1.260    23 C    1.259   118 C    1.191
    23   6 C    3.896 --    22 C    1.259    27 N    1.225    24 C    1.192
    24   6 C    3.960 --    25 C    1.631    23 C    1.192    51 H    0.974
    25   6 C    3.958 --    24 C    1.631    26 C    1.190    52 H    0.974
    26   6 C    3.906 --    28 C    1.282    27 N    1.212    25 C    1.190
    27   7 N    3.344 --    23 C    1.225    26 C    1.212     1 Co   0.624
    28   6 C    3.928 --    26 C    1.282    37 C    1.269    29 C    1.158
    29   6 C    3.957 --    30 C    2.625    28 C    1.158
    30   6 C    3.931 --    29 C    2.625    31 C    1.141
    31   6 C    3.987 --    36 C    1.351    32 C    1.350    30 C    1.141
    32   6 C    3.973 --    33 C    1.457    31 C    1.350    53 H    0.974
                            35 C    0.104
    33   6 C    3.973 --    32 C    1.457    34 N    1.407    54 H    0.972
                            36 C    0.104
    34   7 N    2.994 --    35 C    1.407    33 C    1.407
    35   6 C    3.973 --    36 C    1.456    34 N    1.407    55 H    0.972
                            32 C    0.104
    36   6 C    3.973 --    35 C    1.456    31 C    1.351    56 H    0.974
                            33 C    0.104
    37   6 C    3.911 --    28 C    1.269    41 N    1.234    38 C    1.184
    38   6 C    3.962 --    39 C    1.644    37 C    1.184    57 H    0.974
    39   6 C    3.959 --    38 C    1.644    40 C    1.175    58 H    0.975
    40   6 C    3.916 --     2 C    1.368    41 N    1.194    39 C    1.175
    41   7 N    3.342 --    37 C    1.234    40 C    1.194     1 Co   0.630
    42   1 H    1.000 --     2 C    0.970
    43   1 H    0.997 --     4 C    0.975
    44   1 H    1.002 --     5 C    0.974
    45   1 H    1.002 --    12 C    0.974
    46   1 H    1.013 --    13 C    0.972
    47   1 H    1.013 --    15 C    0.972
    48   1 H    1.002 --    16 C    0.974
    49   1 H    1.002 --    18 C    0.974
    50   1 H    1.002 --    19 C    0.974
    51   1 H    1.001 --    24 C    0.974
    52   1 H    1.002 --    25 C    0.974
    53   1 H    1.002 --    32 C    0.974
    54   1 H    1.013 --    33 C    0.972
    55   1 H    1.013 --    35 C    0.972
    56   1 H    1.002 --    36 C    0.974
    57   1 H    1.002 --    38 C    0.974
    58   1 H    0.997 --    39 C    0.975
    59  27 Co   3.000 --    99 N    0.630    65 N    0.628    78 N    0.626
                            85 N    0.625
    60   6 C    3.927 --    98 C    1.368    61 C    1.365   100 H    0.970
    61   6 C    3.916 --    60 C    1.365    65 N    1.196    62 C    1.176
    62   6 C    3.959 --    63 C    1.644    61 C    1.176   101 H    0.975
    63   6 C    3.962 --    62 C    1.644    64 C    1.184   102 H    0.974
    64   6 C    3.911 --    66 C    1.269    65 N    1.233    63 C    1.184
    65   7 N    3.343 --    64 C    1.233    61 C    1.196    59 Co   0.628
    66   6 C    3.928 --    75 C    1.282    64 C    1.269    67 C    1.158
    67   6 C    3.957 --    68 C    2.625    66 C    1.158
    68   6 C    3.931 --    67 C    2.625    69 C    1.141
    69   6 C    3.987 --    70 C    1.351    74 C    1.351    68 C    1.141
    70   6 C    3.973 --    71 C    1.456    69 C    1.351   103 H    0.974
                            73 C    0.104
    71   6 C    3.973 --    70 C    1.456    72 N    1.407   104 H    0.972
                            74 C    0.104
    72   7 N    2.994 --    71 C    1.407    73 C    1.407
    73   6 C    3.973 --    74 C    1.457    72 N    1.407   105 H    0.972
                            70 C    0.104
    74   6 C    3.973 --    73 C    1.457    69 C    1.351   106 H    0.974
                            71 C    0.104
    75   6 C    3.906 --    66 C    1.282    78 N    1.212    76 C    1.190
    76   6 C    3.958 --    77 C    1.632    75 C    1.190   107 H    0.974
    77   6 C    3.960 --    76 C    1.632    79 C    1.192   108 H    0.974
    78   7 N    3.343 --    79 C    1.225    75 C    1.212    59 Co   0.626
    79   6 C    3.896 --    80 C    1.260    78 N    1.225    77 C    1.192
    80   6 C    3.928 --    79 C    1.260    81 C    1.259   120 C    1.191
    81   6 C    3.896 --    80 C    1.259    85 N    1.225    82 C    1.192
    82   6 C    3.960 --    83 C    1.631    81 C    1.192   109 H    0.974
    83   6 C    3.958 --    82 C    1.631    84 C    1.190   110 H    0.974
    84   6 C    3.906 --    86 C    1.282    85 N    1.212    83 C    1.190
    85   7 N    3.344 --    81 C    1.225    84 C    1.212    59 Co   0.625
    86   6 C    3.928 --    84 C    1.282    95 C    1.269    87 C    1.158
    87   6 C    3.957 --    88 C    2.625    86 C    1.158
    88   6 C    3.931 --    87 C    2.625    89 C    1.141
    89   6 C    3.987 --    94 C    1.351    90 C    1.350    88 C    1.141
    90   6 C    3.973 --    91 C    1.457    89 C    1.350   111 H    0.974
                            93 C    0.104
    91   6 C    3.973 --    90 C    1.457    92 N    1.407   112 H    0.972
                            94 C    0.104
    92   7 N    2.994 --    93 C    1.407    91 C    1.407
    93   6 C    3.973 --    94 C    1.456    92 N    1.407   113 H    0.972
                            90 C    0.104
    94   6 C    3.973 --    93 C    1.456    89 C    1.351   114 H    0.974
                            91 C    0.104
    95   6 C    3.911 --    86 C    1.269    99 N    1.234    96 C    1.184
    96   6 C    3.962 --    97 C    1.645    95 C    1.184   115 H    0.974
    97   6 C    3.959 --    96 C    1.645    98 C    1.175   116 H    0.975
    98   6 C    3.916 --    60 C    1.368    99 N    1.194    97 C    1.175
    99   7 N    3.342 --    95 C    1.234    98 C    1.194    59 Co   0.630
   100   1 H    1.000 --    60 C    0.970
   101   1 H    0.997 --    62 C    0.975
   102   1 H    1.002 --    63 C    0.974
   103   1 H    1.002 --    70 C    0.974
   104   1 H    1.013 --    71 C    0.972
   105   1 H    1.013 --    73 C    0.972
   106   1 H    1.002 --    74 C    0.974
   107   1 H    1.002 --    76 C    0.974
   108   1 H    1.002 --    77 C    0.974
   109   1 H    1.001 --    82 C    0.974
   110   1 H    1.002 --    83 C    0.974
   111   1 H    1.002 --    90 C    0.974
   112   1 H    1.013 --    91 C    0.972
   113   1 H    1.013 --    93 C    0.972
   114   1 H    1.002 --    94 C    0.974
   115   1 H    1.002 --    96 C    0.974
   116   1 H    0.997 --    97 C    0.975
   117   6 C    3.930 --   118 C    2.468   119 C    1.314
   118   6 C    3.920 --   117 C    2.468    22 C    1.191   120 C    0.198
   119   6 C    3.930 --   120 C    2.468   117 C    1.314
   120   6 C    3.920 --   119 C    2.468    80 C    1.191   118 C    0.198
 ---------------------------------------------------------------------------

           -------------------------------------------------
          | TOTAL ENERGY             -215.475119666179 Eh   |
          | GRADIENT NORM               0.000635356583 Eh/α |
          | HOMO-LUMO GAP               0.005170500682 eV   |
           -------------------------------------------------

 * finished run on 2022/07/29 at 23:48:55.792
