   * xtb version 6.5.1 (b24c23e) compiled by 'conda@728c89f4b128' on 2022-07-12
          program call               : xtb Zn_PhNO2_C2_2.xyz --gfn 1 --opt -T 48

   ID    Z sym.   atoms
    1   30 Zn     1, 61
    2    6 C      2-6, 8-12, 16-20, 22-27, 29-33, 37-42, 62-66, 68-72, 76-80,
                  82-87, 89-93, 97-102, 121, 122
    3    7 N      7, 13, 21, 28, 34, 43, 67, 73, 81, 88, 94, 103
    4    8 O      14, 15, 35, 36, 74, 75, 95, 96
    5    1 H      44-60, 104-120
########################################################################
[WARNING] Please study the warnings concerning your input carefully
-1- prog_main_parseArguments: Unknown option '-T' provided
########################################################################

          :  Hamiltonian                  GFN1-xTB          :
 * total energy  :  -234.5118055 Eh     change       -0.1360831E-09 Eh
 * total energy  :  -234.7034277 Eh     change       -0.1916221E+00 Eh
 * total energy  :  -234.7916863 Eh     change       -0.8825861E-01 Eh
 * total energy  :  -234.8090394 Eh     change       -0.1735315E-01 Eh
 * total energy  :  -234.8170786 Eh     change       -0.8039237E-02 Eh
 * total energy  :  -234.8193086 Eh     change       -0.2229964E-02 Eh
 * total energy  :  -234.8227571 Eh     change       -0.3448511E-02 Eh
 * total energy  :  -234.8245169 Eh     change       -0.1759758E-02 Eh
 * total energy  :  -234.8263002 Eh     change       -0.1783370E-02 Eh
 * total energy  :  -234.8272662 Eh     change       -0.9659791E-03 Eh
 * total energy  :  -234.8300221 Eh     change       -0.1764303E-04 Eh
 * total energy  :  -234.8300493 Eh     change       -0.2718797E-04 Eh
 * total energy  :  -234.8300678 Eh     change       -0.1844148E-04 Eh
 * total energy  :  -234.8300822 Eh     change       -0.1445951E-04 Eh
 * total energy  :  -234.8300984 Eh     change       -0.1622486E-04 Eh
 * total energy  :  -234.8301107 Eh     change       -0.1229974E-04 Eh
 * total energy  :  -234.8301189 Eh     change       -0.8161737E-05 Eh
 * total energy  :  -234.8301208 Eh     change       -0.1937337E-05 Eh
 * total energy  :  -234.8301257 Eh     change       -0.4881896E-05 Eh
   *** GEOMETRY OPTIMIZATION CONVERGED AFTER 37 ITERATIONS ***

 final structure:
================
122
 xtb: 6.5.1 (b24c23e)
Zn          17.19699228488484       -0.06432354683944       -0.01768236646242
C           13.78830389591886       -0.07325836954841       -0.15735501614835
C           14.41897863498599       -1.29951087429654       -0.32643305231520
C           13.74545629047472       -2.55466559357932       -0.51075682331680
C           14.70461145466504       -3.50276483227334       -0.65074223512813
C           15.97734048842699       -2.83449640582805       -0.56926916578539
N           15.76879605392539       -1.50414850716978       -0.35609355965834
C           17.23116361096017       -3.44815168638554       -0.68183182115233
C           17.24670058469155       -4.90453314279494       -0.95303024499481
C           17.85722175478383       -5.78246657917245       -0.05128268272168
C           17.86132545769646       -7.14477795767689       -0.28758308714806
C           17.25419936157340       -7.63582240323950       -1.44016864590652
N           17.25117624450839       -9.06548301823646       -1.69134443818543
O           16.70717178437699       -9.45476507607095       -2.69308597413472
O           17.79107637171658       -9.77530273399608       -0.88173240719605
C           16.64770105459299       -6.77923391866313       -2.35474902337740
C           16.64498985602775       -5.41901250540094       -2.10606488613226
C           18.47091608828993       -2.80721370368888       -0.56156064249926
C           19.74674686913369       -3.42982601178083       -0.78023881287264
C           20.69306416195384       -2.47890838273388       -0.57601047089520
N           18.66687674429426       -1.49002377156934       -0.24685772526101
C           20.01046599550012       -1.26749652608981       -0.23123970567559
C           20.64376744365211       -0.05121235272977        0.09775534213965
C           19.97762712092613        1.15555348009490        0.39660356250318
C           20.62525791020852        2.36850247386750        0.79812165029665
C           19.65965504588885        3.31062816382731        0.94472432963678
C           18.40722042399758        2.68136433427420        0.63126895171117
N           18.63441757329363        1.36743878055312        0.32304463135856
C           17.15853214837388        3.31529139501303        0.66001048139402
C           17.14734575436535        4.77074581075723        0.93641378513439
C           16.46007844616715        5.27928066808947        2.04319628174293
C           16.44332519336552        6.63835749086637        2.29789324759483
C           17.11553799842351        7.49962994492536        1.43512849452791
N           17.09483929326114        8.92792083062630        1.69345556995202
O           16.49071458563917        9.31090390347808        2.66262742054548
O           17.68211953917326        9.64286264060621        0.92229354312835
C           17.80608200257123        7.01463666695842        0.32786015643991
C           17.82126277768176        5.65340673476227        0.08591870364254
C           15.92066648281612        2.69652304765314        0.44607621420638
C           14.64206447996492        3.35820763200125        0.42792574634819
C           13.70273820084165        2.40672047121341        0.20226994493795
C           14.39570090907815        1.15590685659604        0.06660225451248
N           15.73742562006166        1.36674206615214        0.20820859335760
H           12.70381986222123       -0.07630623963207       -0.20345292931102
H           12.67461100140301       -2.68309058873416       -0.52026559122290
H           14.56605641860423       -4.56353657826756       -0.78462914651707
H           18.31375313729172       -5.38940540038679        0.84970567075006
H           18.32388695244959       -7.83232694523034        0.41028783604822
H           16.18750924391722       -7.18561305172199       -3.24735743183877
H           16.18713194042768       -4.74144274524765       -2.81730018101224
H           19.89837937496688       -4.45641691591229       -1.07225724317530
H           21.76140162009724       -2.58270037409091       -0.66382724170300
H           21.68367980048070        2.47796727506677        0.96436737997394
H           19.78261936360373        4.33539952611045        1.25581333677283
H           15.95100323359573        4.59810579198485        2.71504533954930
H           15.91768894661097        7.04034199236664        3.15564180234030
H           18.31878154899309        7.70574332736213       -0.33026387369530
H           18.34419844913705        5.26478356130081       -0.78019013488316
H           14.48749090179537        4.41715804445773        0.55883386642618
H           12.63408429194195        2.53031063103433        0.12454427731499
Zn          28.13111024049385        0.06628735406319        0.00760630144860
C           31.53981577915692        0.12691233971114       -0.11837497351511
C           30.90913169140067        1.32709459498151        0.18467430125777
C           31.58263879579933        2.55978130055794        0.48448979378479
C           30.62347477832668        3.49119588555134        0.71018635091118
C           29.35075161702537        2.84113877531257        0.53507310196592
N           29.55930995539324        1.52792959939587        0.23383429632627
C           28.09692418334071        3.45223594533670        0.66077889432678
C           28.08135586042821        4.90404204498100        0.95547401184505
C           27.47087196869031        5.37977338930046        2.12065305387160
C           27.46688426611516        6.73130175168663        2.41244635138789
C           28.07395613487953        7.61871848337838        1.52804653966444
N           28.07652750812838        9.03827538851653        1.83107473207945
O           28.62046015155567        9.77473275676837        1.04832213842658
O           27.53734507704696        9.39276899457166        2.84816063605524
C           28.68052143813249        7.16757441628543        0.35904382427065
C           28.68315411744456        5.81334810569439        0.07954198130605
C           26.85717334360878        2.81297619686507        0.53190544835921
C           25.58134414369135        3.47216047250533        0.56259723246306
C           24.63503061776520        2.51404671371301        0.39533839556569
N           26.66121914854682        1.47388978884848        0.32973222350535
C           25.31763180160641        1.26172776534215        0.26086869739720
C           24.68434115925937        0.01081345855072        0.10989559345227
C           25.35048341796354       -1.21996712443073       -0.06556451931866
C           24.70284617328175       -2.49496506915847       -0.14826226114790
C           25.66845801334934       -3.42333345425073       -0.36554836528791
C           26.92088924527803       -2.72244183894701       -0.42019803593524
N           26.69368526912874       -1.38880318583084       -0.21329626692692
C           28.16958259983633       -3.32088038103312       -0.63124878610478
C           28.18077299658254       -4.77378608274628       -0.92074762794846
C           28.86803546692600       -5.66021492923034       -0.08538802296314
C           28.88477384739241       -7.01563701823069       -0.35886025278521
C           28.21257166509183       -7.49057143913395       -1.48163007817656
N           28.23331283766650       -8.91151068294289       -1.77775027733894
O           28.83726473751659       -9.62994926073725       -1.02275555810780
O           27.64591211959926       -9.28519573489623       -2.76062373973081
C           27.52205942939923       -6.62577820262470       -2.32628188440477
C           27.50688428855313       -5.27314139817456       -2.04017210545786
C           29.40744439155343       -2.66703153175812       -0.59756628222456
C           30.68604267858046       -3.27363464584408       -0.86251310439851
C           31.62537186149630       -2.30695707291626       -0.71494065853381
C           30.93241371044623       -1.09654175347203       -0.37166179067492
N           29.59068840336924       -1.34508502667293       -0.31944575394459
H           32.62430076534758        0.14700097541112       -0.15993222985669
H           32.65348213209259        2.68238995942391        0.52389403835233
H           30.76202663664194        4.52477034832160        0.98384020371053
H           27.01434066431466        4.67754778007824        2.80850875267427
H           27.00422966545898        7.10701299393729        3.31715375018987
H           29.14063324667503        7.87899308573547       -0.31611330515342
H           29.14105693094852        5.45190764366750       -0.83384854252826
H           25.42970723860669        4.53334747544131        0.67680919110846
H           23.56669244007269        2.64320318492953        0.35285139027771
H           23.64442856585635       -2.65879026795720       -0.03518511378118
H           25.54548991827177       -4.48998782400689       -0.46137236543226
H           29.37712523682810       -5.28064811793930        0.79284321132659
H           29.41040844827587       -7.70991512617803        0.28558287271429
H           27.00935783776536       -7.01968867368887       -3.19552396334180
H           26.98397680396316       -4.58810631842753       -2.69738808797870
H           30.84059792426229       -4.30440706152506       -1.13823896314403
H           32.69402603818153       -2.39237182472407       -0.83334860220916
C           22.05506866363450       -0.03553786661141        0.12050030410701
C           23.27303883111076       -0.01221785769870        0.12507505016804

          :  Hamiltonian                  GFN1-xTB          :
         :: total energy            -234.830125728515 Eh    ::
         :: gradient norm              0.000709677789 Eh/a0 ::
         :: HOMO-LUMO gap              1.108997035718 eV    ::
         :: SCC energy              -238.008522219727 Eh    ::
         :: repulsion energy           3.290079180553 Eh    ::

    * Orbital Energies and Occupations

         #    Occupation            Energy/Eh            Energy/eV
      -------------------------------------------------------------
         1        2.0000           -0.9212029             -25.0672
       ...           ...                  ...                  ...
       193        2.0000           -0.4540819             -12.3562
       194        2.0000           -0.4454609             -12.1216
       195        2.0000           -0.4454586             -12.1215
       196        2.0000           -0.4451479             -12.1131
       197        2.0000           -0.4451120             -12.1121
       198        2.0000           -0.4449392             -12.1074
       199        2.0000           -0.4446786             -12.1003
       200        2.0000           -0.4446753             -12.1002
       201        2.0000           -0.4434972             -12.0682
       202        2.0000           -0.4174850             -11.3603
       203        2.0000           -0.4174718             -11.3600
       204        2.0000           -0.4162687             -11.3272
       205        2.0000           -0.4013622             -10.9216 (HOMO)
       206                         -0.3606073              -9.8126 (LUMO)
       207                         -0.3570958              -9.7171
       208                         -0.3570943              -9.7170
       209                         -0.3479577              -9.4684
       210                         -0.3479441              -9.4680
       211                         -0.3424710              -9.3191
       212                         -0.3410910              -9.2816
       213                         -0.3410844              -9.2814
       214                         -0.3167738              -8.6199
       215                         -0.3079637              -8.3801
       216                         -0.3009784              -8.1900
       ...                                ...                  ...
       420                          1.3092690              35.6270
      -------------------------------------------------------------
                  HL-Gap            0.0407549 Eh            1.1090 eV

Wiberg/Mayer (AO) data.
largest (>0.10) Wiberg bond orders for each atom

     #   Z sym  total        # sym  WBO       # sym  WBO       # sym  WBO
 ---------------------------------------------------------------------------
     1  30 Zn   1.990 --     7 N    0.459    43 N    0.458    28 N    0.454
                            21 N    0.453
     2   6 C    3.928 --    42 C    1.358     3 C    1.358    44 H    0.971
     3   6 C    3.919 --     2 C    1.358     7 N    1.232     4 C    1.169
     4   6 C    3.960 --     5 C    1.662     3 C    1.169    45 H    0.975
     5   6 C    3.963 --     4 C    1.662     6 C    1.169    46 H    0.973
     6   6 C    3.919 --     8 C    1.312     7 N    1.247     5 C    1.169
     7   7 N    3.293 --     6 C    1.247     3 C    1.232     1 Zn   0.459
     8   6 C    3.929 --    18 C    1.315     6 C    1.312     9 C    1.037
     9   6 C    3.984 --    17 C    1.381    10 C    1.381     8 C    1.037
    10   6 C    3.986 --    11 C    1.465     9 C    1.381    47 H    0.971
                            16 C    0.101
    11   6 C    3.987 --    10 C    1.465    12 C    1.386    48 H    0.965
                            17 C    0.101
    12   6 C    3.940 --    16 C    1.386    11 C    1.386    13 N    0.922
    13   7 N    3.865 --    15 O    1.453    14 O    1.453    12 C    0.922
    14   8 O    1.827 --    13 N    1.453    15 O    0.251
    15   8 O    1.828 --    13 N    1.453    14 O    0.251
    16   6 C    3.987 --    17 C    1.465    12 C    1.386    49 H    0.965
                            10 C    0.101
    17   6 C    3.986 --    16 C    1.465     9 C    1.381    50 H    0.971
                            11 C    0.101
    18   6 C    3.913 --     8 C    1.315    21 N    1.232    19 C    1.179
    19   6 C    3.959 --    20 C    1.645    18 C    1.179    51 H    0.973
    20   6 C    3.962 --    19 C    1.645    22 C    1.187    52 H    0.966
    21   7 N    3.294 --    22 C    1.258    18 C    1.232     1 Zn   0.453
    22   6 C    3.904 --    23 C    1.259    21 N    1.258    20 C    1.187
    23   6 C    3.940 --    22 C    1.259    24 C    1.258   121 C    1.181
    24   6 C    3.904 --    28 N    1.259    23 C    1.258    25 C    1.187
    25   6 C    3.962 --    26 C    1.644    24 C    1.187    53 H    0.966
    26   6 C    3.959 --    25 C    1.644    27 C    1.179    54 H    0.973
    27   6 C    3.913 --    29 C    1.315    28 N    1.231    26 C    1.179
    28   7 N    3.295 --    24 C    1.259    27 C    1.231     1 Zn   0.454
    29   6 C    3.929 --    27 C    1.315    39 C    1.312    30 C    1.037
    30   6 C    3.984 --    31 C    1.382    38 C    1.381    29 C    1.037
    31   6 C    3.986 --    32 C    1.465    30 C    1.382    55 H    0.971
                            37 C    0.101
    32   6 C    3.987 --    31 C    1.465    33 C    1.386    56 H    0.965
                            38 C    0.101
    33   6 C    3.940 --    32 C    1.386    37 C    1.386    34 N    0.922
    34   7 N    3.865 --    36 O    1.453    35 O    1.453    33 C    0.922
    35   8 O    1.827 --    34 N    1.453    36 O    0.251
    36   8 O    1.828 --    34 N    1.453    35 O    0.251
    37   6 C    3.987 --    38 C    1.465    33 C    1.386    57 H    0.965
                            31 C    0.101
    38   6 C    3.986 --    37 C    1.465    30 C    1.381    58 H    0.971
                            32 C    0.101
    39   6 C    3.919 --    29 C    1.312    43 N    1.247    40 C    1.169
    40   6 C    3.963 --    41 C    1.662    39 C    1.169    59 H    0.973
    41   6 C    3.960 --    40 C    1.662    42 C    1.169    60 H    0.975
    42   6 C    3.919 --     2 C    1.358    43 N    1.232    41 C    1.169
    43   7 N    3.292 --    39 C    1.247    42 C    1.232     1 Zn   0.458
    44   1 H    1.001 --     2 C    0.971
    45   1 H    0.997 --     4 C    0.975
    46   1 H    1.004 --     5 C    0.973
    47   1 H    1.004 --    10 C    0.971
    48   1 H    1.006 --    11 C    0.965
    49   1 H    1.006 --    16 C    0.965
    50   1 H    1.004 --    17 C    0.971
    51   1 H    1.003 --    19 C    0.973
    52   1 H    1.007 --    20 C    0.966
    53   1 H    1.007 --    25 C    0.966
    54   1 H    1.003 --    26 C    0.973
    55   1 H    1.004 --    31 C    0.971
    56   1 H    1.006 --    32 C    0.965
    57   1 H    1.006 --    37 C    0.965
    58   1 H    1.004 --    38 C    0.971
    59   1 H    1.003 --    40 C    0.973
    60   1 H    0.997 --    41 C    0.975
    61  30 Zn   1.990 --    67 N    0.459   103 N    0.458    88 N    0.454
                            81 N    0.453
    62   6 C    3.928 --   102 C    1.358    63 C    1.358   104 H    0.971
    63   6 C    3.919 --    62 C    1.358    67 N    1.232    64 C    1.169
    64   6 C    3.960 --    65 C    1.662    63 C    1.169   105 H    0.975
    65   6 C    3.963 --    64 C    1.662    66 C    1.169   106 H    0.973
    66   6 C    3.919 --    68 C    1.312    67 N    1.247    65 C    1.169
    67   7 N    3.293 --    66 C    1.247    63 C    1.232    61 Zn   0.459
    68   6 C    3.929 --    78 C    1.315    66 C    1.312    69 C    1.037
    69   6 C    3.984 --    77 C    1.381    70 C    1.381    68 C    1.037
    70   6 C    3.986 --    71 C    1.465    69 C    1.381   107 H    0.971
                            76 C    0.101
    71   6 C    3.987 --    70 C    1.465    72 C    1.386   108 H    0.965
                            77 C    0.101
    72   6 C    3.940 --    76 C    1.386    71 C    1.386    73 N    0.922
    73   7 N    3.865 --    75 O    1.453    74 O    1.453    72 C    0.922
    74   8 O    1.827 --    73 N    1.453    75 O    0.251
    75   8 O    1.828 --    73 N    1.453    74 O    0.251
    76   6 C    3.987 --    77 C    1.465    72 C    1.386   109 H    0.965
                            70 C    0.101
    77   6 C    3.986 --    76 C    1.465    69 C    1.381   110 H    0.971
                            71 C    0.101
    78   6 C    3.913 --    68 C    1.315    81 N    1.232    79 C    1.179
    79   6 C    3.959 --    80 C    1.645    78 C    1.179   111 H    0.973
    80   6 C    3.962 --    79 C    1.645    82 C    1.187   112 H    0.966
    81   7 N    3.294 --    82 C    1.258    78 C    1.232    61 Zn   0.453
    82   6 C    3.904 --    83 C    1.259    81 N    1.258    80 C    1.187
    83   6 C    3.940 --    82 C    1.259    84 C    1.258   122 C    1.181
    84   6 C    3.904 --    88 N    1.259    83 C    1.258    85 C    1.187
    85   6 C    3.962 --    86 C    1.644    84 C    1.187   113 H    0.966
    86   6 C    3.959 --    85 C    1.644    87 C    1.179   114 H    0.973
    87   6 C    3.913 --    89 C    1.315    88 N    1.231    86 C    1.179
    88   7 N    3.295 --    84 C    1.259    87 C    1.231    61 Zn   0.454
    89   6 C    3.929 --    87 C    1.315    99 C    1.312    90 C    1.037
    90   6 C    3.984 --    91 C    1.382    98 C    1.381    89 C    1.037
    91   6 C    3.986 --    92 C    1.465    90 C    1.382   115 H    0.971
                            97 C    0.101
    92   6 C    3.987 --    91 C    1.465    93 C    1.386   116 H    0.965
                            98 C    0.101
    93   6 C    3.940 --    92 C    1.386    97 C    1.386    94 N    0.922
    94   7 N    3.865 --    96 O    1.453    95 O    1.453    93 C    0.922
    95   8 O    1.827 --    94 N    1.453    96 O    0.251
    96   8 O    1.828 --    94 N    1.453    95 O    0.251
    97   6 C    3.987 --    98 C    1.465    93 C    1.386   117 H    0.965
                            91 C    0.101
    98   6 C    3.986 --    97 C    1.465    90 C    1.381   118 H    0.971
                            92 C    0.101
    99   6 C    3.919 --    89 C    1.312   103 N    1.247   100 C    1.169
   100   6 C    3.963 --   101 C    1.662    99 C    1.169   119 H    0.973
   101   6 C    3.960 --   100 C    1.662   102 C    1.169   120 H    0.975
   102   6 C    3.919 --    62 C    1.358   103 N    1.232   101 C    1.169
   103   7 N    3.292 --    99 C    1.247   102 C    1.232    61 Zn   0.458
   104   1 H    1.001 --    62 C    0.971
   105   1 H    0.997 --    64 C    0.975
   106   1 H    1.004 --    65 C    0.973
   107   1 H    1.004 --    70 C    0.971
   108   1 H    1.006 --    71 C    0.965
   109   1 H    1.006 --    76 C    0.965
   110   1 H    1.004 --    77 C    0.971
   111   1 H    1.003 --    79 C    0.973
   112   1 H    1.007 --    80 C    0.966
   113   1 H    1.007 --    85 C    0.966
   114   1 H    1.003 --    86 C    0.973
   115   1 H    1.004 --    91 C    0.971
   116   1 H    1.006 --    92 C    0.965
   117   1 H    1.006 --    97 C    0.965
   118   1 H    1.004 --    98 C    0.971
   119   1 H    1.003 --   100 C    0.973
   120   1 H    0.997 --   101 C    0.975
   121   6 C    3.935 --   122 C    2.577    23 C    1.181
   122   6 C    3.935 --   121 C    2.577    83 C    1.181
 ---------------------------------------------------------------------------

           -------------------------------------------------
          | TOTAL ENERGY             -234.830125728515 Eh   |
          | GRADIENT NORM               0.000709677789 Eh/α |
          | HOMO-LUMO GAP               1.108997035718 eV   |
           -------------------------------------------------

 * finished run on 2022/07/30 at 09:58:18.140
