   * xtb version 6.5.1 (b24c23e) compiled by 'conda@728c89f4b128' on 2022-07-12
          program call               : xtb Cu_PhCHO_C8_3.xyz --gfn 1 --opt -T 48

   ID    Z sym.   atoms
    1   29 Cu     1, 61, 137
    2    6 C      2-6, 8-13, 15-19, 21-26, 28-33, 35-40, 62-66, 68-73, 75-79,
                  81-86, 88-93, 95-100, 121-136, 138-142, 144-149, 151-155,
                  157-162, 164-169, 171-176
    3    7 N      7, 20, 27, 41, 67, 80, 87, 101, 143, 156, 163, 177
    4    8 O      14, 34, 74, 94, 150, 170
    5    1 H      42-60, 102-120, 178-195

          :  Hamiltonian                  GFN1-xTB          :
 * total energy  :  -357.2118979 Eh     change       -0.1914486E-09 Eh
 * total energy  :  -358.4034593 Eh     change       -0.1191561E+01 Eh
 * total energy  :  -355.9202949 Eh     change        0.2483164E+01 Eh
 * total energy  :  -357.4400784 Eh     change       -0.1519783E+01 Eh
 * total energy  :  -358.2570958 Eh     change       -0.8170173E+00 Eh
 * total energy  :  -358.6319372 Eh     change       -0.3748414E+00 Eh
 * total energy  :  -358.8132492 Eh     change       -0.1813120E+00 Eh
 * total energy  :  -358.9173522 Eh     change       -0.1041030E+00 Eh
 * total energy  :  -358.9964368 Eh     change       -0.7908456E-01 Eh
 * total energy  :  -359.0406074 Eh     change       -0.4417058E-01 Eh
 * total energy  :  -359.1244253 Eh     change        0.7433624E-04 Eh
 * total energy  :  -359.1245146 Eh     change       -0.8933667E-04 Eh
 * total energy  :  -359.1245306 Eh     change       -0.1596195E-04 Eh
 * total energy  :  -359.1245405 Eh     change       -0.9905145E-05 Eh
 * total energy  :  -359.1245485 Eh     change       -0.8012028E-05 Eh
 * total energy  :  -359.1245554 Eh     change       -0.6915107E-05 Eh
 * total energy  :  -359.1245639 Eh     change       -0.8461779E-05 Eh
 * total energy  :  -359.1245692 Eh     change       -0.5352658E-05 Eh
 * total energy  :  -359.1245739 Eh     change       -0.4623380E-05 Eh
   *** GEOMETRY OPTIMIZATION CONVERGED AFTER 58 ITERATIONS ***

 final structure:
================
195
 xtb: 6.5.1 (b24c23e)
Cu          26.87908379476397        0.00496776540720       -0.02507538467347
C           23.47416386711415        0.06280695000185       -0.11844808660382
C           24.11477614784877        1.28275696503727        0.03638672697769
C           23.44479537779431        2.54191480876756        0.19421766848748
C           24.40719334969036        3.48551870218137        0.34178326999587
C           25.67510680069035        2.81153788309045        0.26497260461664
N           25.46631204596476        1.47468878780043        0.08576641754846
C           26.92234852884928        3.42784301148072        0.39196390543602
C           26.94220349989021        4.89847895404756        0.58213086649691
C           27.45981687310805        5.45153264967413        1.75723339550695
C           27.47648018471141        6.82139897280258        1.93533022722006
C           26.98182032704528        7.67038193538987        0.93966891920924
C           27.01599023523946        9.12893841864690        1.15073488582275
O           27.44874724817736        9.65136900183803        2.14592527098577
C           26.46627716919659        7.11896577697046       -0.23577085567531
C           26.44405674049088        5.74663038505230       -0.41053477196154
C           28.15260797895698        2.76840387802503        0.35549250651221
C           29.43291286617026        3.41338173694962        0.43232701391021
C           30.37456534239696        2.44129337339846        0.33386698985958
N           28.33491286442139        1.41967961762308        0.20136210849789
C           29.67766534791036        1.19845424279142        0.19016933655860
C           30.30855144642018       -0.04993914776944        0.04527390960745
C           29.64413779225339       -1.27862840604482       -0.11536178078802
C           30.30708648822576       -2.53663511781358       -0.28461775986446
C           29.33940698552697       -3.47973571834215       -0.40929080065513
C           28.07689001952236       -2.80323986668892       -0.31014655998101
N           28.29569295241583       -1.46177964206725       -0.14128509814961
C           26.82865357732186       -3.42222751379122       -0.40655961698074
C           26.80763478759831       -4.89725374459948       -0.55444004289812
C           26.25428577876058       -5.48744854177180       -1.69409861713146
C           26.23403398754578       -6.86405729707204       -1.83121244789850
C           26.76283668139391       -7.67920940614407       -0.82749504514839
C           26.75051982159249       -9.14838389670122       -0.94768256281509
O           27.19209145227604       -9.89227706689914       -0.10962898692361
C           27.31491158619444       -7.08903735844073        0.31432007951586
C           27.33942548464629       -5.71432604629299        0.44797554870944
C           25.59827130906932       -2.76092617218150       -0.37037850104845
C           24.31184774284719       -3.40124677297697       -0.42675079637414
C           23.37603748237922       -2.42298489402609       -0.35210333517625
C           24.08081665738018       -1.17830960037724       -0.23747707848659
N           25.42663132449896       -1.41261615135218       -0.24629430399805
H           22.38931046182842        0.07949837381988       -0.13394423244805
H           22.37405859850412        2.67161101214512        0.19807533559211
H           24.27700292725051        4.54374419269364        0.50157359881645
H           27.83411888703317        4.79519223647823        2.53475003754450
H           27.87099903258196        7.25825671166659        2.84644126498787
H           26.60446279251696        9.72150848076016        0.30591373940682
H           26.08382154363551        7.77070035242052       -1.01463845127895
H           26.05437698348762        5.32179805038309       -1.32880130487145
H           29.58778776385474        4.47524178916576        0.53405112294747
H           31.44739739220515        2.54719415623669        0.35055078027233
H           31.37669471764083       -2.67021989733140       -0.30912486703296
H           29.46559551922950       -4.53819997907469       -0.56923235259367
H           25.85461859616179       -4.85717222293241       -2.48060638871967
H           25.80731773365356       -7.31362932104910       -2.72197066356809
H           26.29401208572198       -9.52504806118914       -1.88788917129789
H           27.72011249480516       -7.72974421797512        1.09016464307282
H           27.75667672233250       -5.26005661966204        1.33957771771276
H           24.15162810404014       -4.46481826286010       -0.50026349837875
H           22.30206782857995       -2.52185271343734       -0.36349954630758
Cu          64.09841792084067       -0.02519968867853       -0.04700983578259
C           67.50420896104916       -0.06974897384945       -0.10727628366210
C           66.86378848092974       -1.29932698338620       -0.13295180976632
C           67.53386175661281       -2.56825699896832       -0.14466868948343
C           66.57129573483678       -3.52315609137066       -0.14194968089976
C           65.30329192837476       -2.84495519808335       -0.13991095324686
N           65.51208416907957       -1.49620203735967       -0.12751509166188
C           64.05545748794712       -3.47264835230675       -0.11844384493689
C           64.03521393469113       -4.95545507927413       -0.13430002762935
C           63.50140147537992       -5.66544596370676        0.94535833340299
C           63.48465300649426       -7.04677284897145        0.93227484830536
C           63.99537451883501       -7.75018053887284       -0.16373033035512
C           63.96097776427499       -9.22388633048357       -0.15663693620427
O           63.51422150193166       -9.87878955957518        0.75011225504790
C           64.52684024944503       -7.04175106870354       -1.24410264020004
C           64.54911859323683       -5.65843805847406       -1.22727625418476
C           62.82462958923542       -2.81423434398643       -0.08228915095681
C           61.54462447508354       -3.46330985379416       -0.11938349051883
C           60.60267031200279       -2.48679673721869       -0.09658899748910
N           62.64204259144789       -1.45725209495877       -0.04781536920593
C           61.29919271198248       -1.23629941853083       -0.05056076359014
C           60.66818953974798        0.02008167706996       -0.02195781542947
C           61.33254128495541        1.25878570029087        0.01193807750419
C           60.66985345643641        2.52825665616718        0.02300343252219
C           61.63757133766314        3.47905403887863        0.05284597364811
C           62.89977921122928        2.79486447532963        0.06597687001446
N           62.68090650965161        1.44329051018505        0.03151072192515
C           64.14815561101253        3.42089234951804        0.07482182854922
C           64.16880873717405        4.90179022159476        0.14434636484673
C           64.72933174540729        5.65192706805776       -0.89313976232270
C           64.74958229346076        7.03379091960110       -0.82752372225990
C           64.21377710739225        7.69367444569524        0.28107701548388
C           64.22666541502159        9.16465065881285        0.37714788063293
O           63.77989048385481        9.77833828744128        1.31224376866656
C           63.65433022723514        6.94321519474036        1.32060564454156
C           63.62959865123695        5.56370963103859        1.25170089877273
C           65.37896379994477        2.76123300427911        0.02622452523981
C           66.66504744066300        3.40288026876614        0.07479329230132
C           67.60135811023444        2.42397994988662        0.01666247884445
C           66.89712113743997        1.17578559930571       -0.05532697081306
N           65.55116751753033        1.40909650506065       -0.04381835702513
H           68.58919297658774       -0.08417465746308       -0.11313217283919
H           68.60468511333598       -2.69732190283904       -0.14588414873937
H           66.70131055891277       -4.59333311377859       -0.12996691395599
H           63.11449526491446       -5.12275727723673        1.80047716648542
H           63.07776269200360       -7.60523801237522        1.76844801089706
H           64.38626197398179       -9.69411737150427       -1.06891901475632
H           64.92164046761481       -7.57971174048870       -2.09991118138057
H           64.95121689602374       -5.11090292460383       -2.07230137546351
H           61.39045202837636       -4.52890654434767       -0.17074206252813
H           59.52994728091888       -2.59372623479548       -0.11379862615205
H           59.60043736975049        2.66436140793956        0.00473219584931
H           61.51188748961167        4.54959994987754        0.05113239946561
H           65.13473737355113        5.14312391726609       -1.76051318461153
H           65.18185906670648        7.60855168401087       -1.64019264528404
H           64.68871971497238        9.67436572331773       -0.49518749272442
H           63.24363390261615        7.46384209513709        2.17903963753363
H           63.20640955489199        4.98418094843522        2.06439144419521
H           66.82454396751410        4.46597042965895        0.15642516513695
H           68.67526052667885        2.52336353221294        0.02975193492133
C           31.71406958882941       -0.06811876031013        0.05259175964441
C           32.93848395922775       -0.07596748155205        0.05874300844817
C           34.28125386188006       -0.08242851828265        0.06237451443344
C           35.51191188241853       -0.08233916413479        0.06090128281056
C           36.84980464901371       -0.07939239129402        0.05809986831948
C           38.08052122131475       -0.07255606835939        0.05058719629634
C           39.42303081380930       -0.06520241770283        0.04322861591562
C           40.64769362757006       -0.05569326712927        0.03320937803653
C           50.32909978349014        0.00864155882831       -0.06708782238262
C           51.55373727529119        0.01947250257868       -0.07241934402510
C           52.89630165909073        0.02949809765955       -0.07349780621284
C           54.12697342737419        0.03987166794705       -0.07103763338311
C           55.46488302174222        0.04535008080532       -0.06402130608273
C           56.69545732395915        0.04800099985214       -0.05533651065433
C           58.03825244278264        0.04404298401819       -0.04361195197116
C           59.26263604049107        0.03704143352851       -0.03295779439004
Cu          45.48835777855146       -0.02580404762301       -0.01166059408644
C           42.05244403896949       -0.04743424072424        0.02259508149693
C           42.69697163718040        1.15696855885493        0.35856766761497
C           42.01508646658885        2.37759075159418        0.66728316309326
C           42.96815861847742        3.30025357299879        0.95510118366563
C           44.23883667025731        2.64471341483339        0.83031391080374
N           44.04109097005711        1.34225345992481        0.45725694878978
C           45.47800087554528        3.25494241285857        1.03730009328746
C           45.47368768775320        4.66560305150854        1.49410950635814
C           46.04707061456887        5.66721979400603        0.70497587226176
C           46.04117927242888        6.98095436566873        1.13234450849329
C           45.46829572318963        7.32260088501709        2.36190845029455
C           45.47913279705773        8.73088867921056        2.79795998930276
O           45.95441058606739        9.62825464982927        2.15041909360692
C           44.89738103713322        6.32227743401782        3.15240442079171
C           44.89717704974750        5.00794441506573        2.72035914233998
C           46.72116031829822        2.64675393761104        0.84965388901149
C           47.98826597355594        3.26179122908827        1.12603108049246
C           48.94704011161271        2.35103306302089        0.82043930620115
N           46.92688235805431        1.37124633603162        0.39613182092430
C           48.27233305626462        1.17277650539412        0.36543719688620
C           48.92429431666872       -0.00099526813153       -0.05412582031864
C           48.27872539326521       -1.18411267627270       -0.45695300193486
C           48.95855440045838       -2.35283956473717       -0.92807512318927
C           48.00584721918736       -3.27979816559732       -1.20300802080567
C           46.73751366952689       -2.68422463975898       -0.89174173266655
N           46.93605294303597       -1.40365665171312       -0.44963184128120
C           45.49911292383491       -3.31396182323528       -1.03880224972194
C           45.50379066709792       -4.73082650052488       -1.47437481536880
C           46.13278475236959       -5.70606985596504       -0.69516737288002
C           46.13417081088401       -7.03036628058254       -1.09535437617963
C           45.50992321270166       -7.40590833468888       -2.28732625995318
C           45.49809214398772       -8.80991112069723       -2.73662158937384
O           44.97256110548695       -9.18264588193036       -3.75425019831876
C           44.88340260695722       -6.42989402586491       -3.06941751127073
C           44.87832925793604       -5.10844084820827       -2.66665749827298
C           44.25650085833360       -2.71882234275555       -0.80793196112196
C           42.99180110714312       -3.39188241588749       -0.89712399903621
C           42.03313897733450       -2.47740929595065       -0.60233391263139
C           42.70561548278916       -1.24516102560466       -0.32047795946923
N           44.04976636007236       -1.41492023571798       -0.44445082110786
H           40.94453007799562        2.50514403355065        0.65534278632654
H           42.82711516989237        4.33699382090794        1.21438204877678
H           46.48220590345061        5.40668753916027       -0.25322369570874
H           46.47829443675839        7.76500162876226        0.52339993305366
H           45.00657722925916        8.90516501845083        3.78816256644727
H           44.45406529807421        6.57817617397139        4.10927596385775
H           44.46340318107271        4.23171212622305        3.34072315544808
H           48.12342550627493        4.25715408094564        1.51697375052893
H           50.01709339004923        2.45589850288028        0.90066764621491
H           50.02738337351572       -2.44063535779790       -1.03949695944483
H           48.14583435715738       -4.27341064825143       -1.59678788165697
H           46.60653434634908       -5.41970712873460        0.23708071389199
H           46.61988154161897       -7.78147790829256       -0.48092332849652
H           46.02061377650104       -9.51191265610495       -2.05234282914586
H           44.40443909478295       -6.73001363463436       -3.99522291414480
H           44.40290805855103       -4.35255628133993       -3.28147575717840
H           42.85762817278835       -4.43359221456436       -1.13927054699829
H           40.96476752355254       -2.61818199148112       -0.56728232431623

          :  Hamiltonian                  GFN1-xTB          :
         :: total energy            -359.124573875050 Eh    ::
         :: gradient norm              0.000377383706 Eh/a0 ::
         :: HOMO-LUMO gap              0.000010994583 eV    ::
         :: SCC energy              -364.869962308684 Eh    ::
         :: repulsion energy           5.918474735330 Eh    ::

    * Orbital Energies and Occupations

         #    Occupation            Energy/Eh            Energy/eV
      -------------------------------------------------------------
         1        2.0000           -0.7924043             -21.5624
       ...           ...                  ...                  ...
       317        2.0000           -0.4210074             -11.4562
       318        2.0000           -0.4208598             -11.4522
       319        2.0000           -0.4202367             -11.4352
       320        2.0000           -0.4173046             -11.3554
       321        2.0000           -0.4169673             -11.3463
       322        2.0000           -0.4090160             -11.1299
       323        2.0000           -0.4090012             -11.1295
       324        2.0000           -0.4089214             -11.1273
       325        2.0000           -0.4036324             -10.9834
       326        2.0000           -0.3984514             -10.8424
       327        2.0000           -0.3915534             -10.6547
       328        1.0166           -0.3691446             -10.0449
       329        0.9918           -0.3690917             -10.0435 (HOMO)
       330        0.9916           -0.3690913             -10.0435 (LUMO)
       331        0.0000           -0.3541844              -9.6378
       332                         -0.3467135              -9.4346
       333                         -0.3442601              -9.3678
       334                         -0.3442519              -9.3676
       335                         -0.3441531              -9.3649
       336                         -0.3412480              -9.2858
       337                         -0.3287288              -8.9452
       338                         -0.3278099              -8.9202
       339                         -0.3275652              -8.9135
       340                         -0.3228250              -8.7845
       ...                                ...                  ...
       683                          1.5965495              43.4443
      -------------------------------------------------------------
                  HL-Gap            0.0000004 Eh            0.0000 eV

Wiberg/Mayer (AO) data.
largest (>0.10) Wiberg bond orders for each atom

     #   Z sym  total        # sym  WBO       # sym  WBO       # sym  WBO
 ---------------------------------------------------------------------------
     1  29 Cu   2.187 --    41 N    0.505     7 N    0.505    27 N    0.503
                            20 N    0.502
     2   6 C    3.930 --    40 C    1.362     3 C    1.362    42 H    0.971
     3   6 C    3.916 --     2 C    1.362     7 N    1.229     4 C    1.170
     4   6 C    3.955 --     5 C    1.657     3 C    1.170    43 H    0.975
     5   6 C    3.958 --     4 C    1.657     6 C    1.171    44 H    0.973
     6   6 C    3.913 --     8 C    1.318     7 N    1.240     5 C    1.171
     7   7 N    3.244 --     6 C    1.240     3 C    1.229     1 Cu   0.505
     8   6 C    3.933 --    17 C    1.325     6 C    1.318     9 C    1.030
     9   6 C    3.986 --    16 C    1.384    10 C    1.381     8 C    1.030
    10   6 C    3.988 --    11 C    1.471     9 C    1.381    45 H    0.972
    11   6 C    3.988 --    10 C    1.471    12 C    1.370    46 H    0.968
                            16 C    0.100
    12   6 C    3.984 --    15 C    1.378    11 C    1.370    13 C    1.049
    13   6 C    3.864 --    14 O    1.808    12 C    1.049    47 H    0.942
    14   8 O    2.004 --    13 C    1.808
    15   6 C    3.993 --    16 C    1.465    12 C    1.378    48 H    0.971
    16   6 C    3.988 --    15 C    1.465     9 C    1.384    49 H    0.972
                            11 C    0.100
    17   6 C    3.907 --     8 C    1.325    20 N    1.222    18 C    1.178
    18   6 C    3.954 --    19 C    1.643    17 C    1.178    50 H    0.973
    19   6 C    3.956 --    18 C    1.643    21 C    1.186    51 H    0.974
    20   7 N    3.248 --    21 C    1.256    17 C    1.222     1 Cu   0.502
    21   6 C    3.895 --    22 C    1.259    20 N    1.256    19 C    1.186
    22   6 C    3.940 --    23 C    1.259    21 C    1.259   121 C    1.189
    23   6 C    3.895 --    22 C    1.259    27 N    1.256    24 C    1.186
    24   6 C    3.956 --    25 C    1.643    23 C    1.186    52 H    0.974
    25   6 C    3.954 --    24 C    1.643    26 C    1.178    53 H    0.973
    26   6 C    3.907 --    28 C    1.324    27 N    1.223    25 C    1.178
    27   7 N    3.248 --    23 C    1.256    26 C    1.223     1 Cu   0.503
    28   6 C    3.933 --    26 C    1.324    37 C    1.317    29 C    1.032
    29   6 C    3.986 --    30 C    1.383    36 C    1.380    28 C    1.032
    30   6 C    3.987 --    31 C    1.465    29 C    1.383    54 H    0.972
                            35 C    0.100
    31   6 C    3.993 --    30 C    1.465    32 C    1.378    55 H    0.971
    32   6 C    3.983 --    31 C    1.378    35 C    1.369    33 C    1.049
    33   6 C    3.864 --    34 O    1.808    32 C    1.049    56 H    0.942
    34   8 O    2.003 --    33 C    1.808
    35   6 C    3.988 --    36 C    1.471    32 C    1.369    57 H    0.968
                            30 C    0.100
    36   6 C    3.987 --    35 C    1.471    29 C    1.380    58 H    0.972
    37   6 C    3.913 --    28 C    1.317    41 N    1.240    38 C    1.171
    38   6 C    3.958 --    39 C    1.657    37 C    1.171    59 H    0.973
    39   6 C    3.955 --    38 C    1.657    40 C    1.170    60 H    0.975
    40   6 C    3.916 --     2 C    1.362    41 N    1.228    39 C    1.170
    41   7 N    3.244 --    37 C    1.240    40 C    1.228     1 Cu   0.505
    42   1 H    1.001 --     2 C    0.971
    43   1 H    0.997 --     4 C    0.975
    44   1 H    1.004 --     5 C    0.973
    45   1 H    1.004 --    10 C    0.972
    46   1 H    1.005 --    11 C    0.968
    47   1 H    1.010 --    13 C    0.942
    48   1 H    1.000 --    15 C    0.971
    49   1 H    1.004 --    16 C    0.972
    50   1 H    1.004 --    18 C    0.973
    51   1 H    1.001 --    19 C    0.974
    52   1 H    1.001 --    24 C    0.974
    53   1 H    1.004 --    25 C    0.973
    54   1 H    1.004 --    30 C    0.972
    55   1 H    1.000 --    31 C    0.971
    56   1 H    1.010 --    33 C    0.942
    57   1 H    1.005 --    35 C    0.968
    58   1 H    1.004 --    36 C    0.972
    59   1 H    1.004 --    38 C    0.973
    60   1 H    0.997 --    39 C    0.975
    61  29 Cu   2.187 --   101 N    0.505    67 N    0.505    87 N    0.502
                            80 N    0.502
    62   6 C    3.930 --   100 C    1.362    63 C    1.362   102 H    0.971
    63   6 C    3.916 --    62 C    1.362    67 N    1.229    64 C    1.170
    64   6 C    3.955 --    65 C    1.657    63 C    1.170   103 H    0.975
    65   6 C    3.958 --    64 C    1.657    66 C    1.171   104 H    0.973
    66   6 C    3.913 --    68 C    1.318    67 N    1.240    65 C    1.171
    67   7 N    3.244 --    66 C    1.240    63 C    1.229    61 Cu   0.505
    68   6 C    3.933 --    77 C    1.325    66 C    1.318    69 C    1.030
    69   6 C    3.986 --    76 C    1.384    70 C    1.381    68 C    1.030
    70   6 C    3.988 --    71 C    1.471    69 C    1.381   105 H    0.972
    71   6 C    3.988 --    70 C    1.471    72 C    1.370   106 H    0.968
                            76 C    0.100
    72   6 C    3.984 --    75 C    1.378    71 C    1.370    73 C    1.049
    73   6 C    3.864 --    74 O    1.808    72 C    1.049   107 H    0.942
    74   8 O    2.003 --    73 C    1.808
    75   6 C    3.993 --    76 C    1.465    72 C    1.378   108 H    0.971
    76   6 C    3.988 --    75 C    1.465    69 C    1.384   109 H    0.972
                            71 C    0.100
    77   6 C    3.907 --    68 C    1.325    80 N    1.223    78 C    1.178
    78   6 C    3.954 --    79 C    1.643    77 C    1.178   110 H    0.973
    79   6 C    3.956 --    78 C    1.643    81 C    1.186   111 H    0.974
    80   7 N    3.248 --    81 C    1.256    77 C    1.223    61 Cu   0.502
    81   6 C    3.895 --    82 C    1.259    80 N    1.256    79 C    1.186
    82   6 C    3.940 --    83 C    1.260    81 C    1.259   136 C    1.189
    83   6 C    3.895 --    82 C    1.260    87 N    1.256    84 C    1.186
    84   6 C    3.956 --    85 C    1.643    83 C    1.186   112 H    0.974
    85   6 C    3.954 --    84 C    1.643    86 C    1.178   113 H    0.973
    86   6 C    3.907 --    88 C    1.324    87 N    1.223    85 C    1.178
    87   7 N    3.248 --    83 C    1.256    86 C    1.223    61 Cu   0.502
    88   6 C    3.933 --    86 C    1.324    97 C    1.317    89 C    1.031
    89   6 C    3.986 --    90 C    1.384    96 C    1.381    88 C    1.031
    90   6 C    3.987 --    91 C    1.465    89 C    1.384   114 H    0.972
                            95 C    0.100
    91   6 C    3.993 --    90 C    1.465    92 C    1.378   115 H    0.971
    92   6 C    3.983 --    91 C    1.378    95 C    1.370    93 C    1.049
    93   6 C    3.864 --    94 O    1.808    92 C    1.049   116 H    0.942
    94   8 O    2.004 --    93 C    1.808
    95   6 C    3.988 --    96 C    1.471    92 C    1.370   117 H    0.968
                            90 C    0.100
    96   6 C    3.987 --    95 C    1.471    89 C    1.381   118 H    0.972
    97   6 C    3.913 --    88 C    1.317   101 N    1.240    98 C    1.171
    98   6 C    3.958 --    99 C    1.657    97 C    1.171   119 H    0.973
    99   6 C    3.955 --    98 C    1.657   100 C    1.170   120 H    0.975
   100   6 C    3.916 --    62 C    1.362   101 N    1.228    99 C    1.170
   101   7 N    3.244 --    97 C    1.240   100 C    1.228    61 Cu   0.505
   102   1 H    1.001 --    62 C    0.971
   103   1 H    0.997 --    64 C    0.975
   104   1 H    1.004 --    65 C    0.973
   105   1 H    1.004 --    70 C    0.972
   106   1 H    1.005 --    71 C    0.968
   107   1 H    1.010 --    73 C    0.942
   108   1 H    1.000 --    75 C    0.971
   109   1 H    1.004 --    76 C    0.972
   110   1 H    1.004 --    78 C    0.973
   111   1 H    1.001 --    79 C    0.974
   112   1 H    1.001 --    84 C    0.974
   113   1 H    1.004 --    85 C    0.973
   114   1 H    1.004 --    90 C    0.972
   115   1 H    1.000 --    91 C    0.971
   116   1 H    1.010 --    93 C    0.942
   117   1 H    1.005 --    95 C    0.968
   118   1 H    1.004 --    96 C    0.972
   119   1 H    1.004 --    98 C    0.973
   120   1 H    0.997 --    99 C    0.975
   121   6 C    3.877 --   122 C    2.442    22 C    1.189   124 C    0.187
   122   6 C    3.936 --   121 C    2.442   123 C    1.343
   123   6 C    3.893 --   124 C    2.337   122 C    1.343   126 C    0.182
   124   6 C    3.926 --   123 C    2.337   125 C    1.369   121 C    0.187
   125   6 C    3.925 --   126 C    2.336   124 C    1.369   128 C    0.187
   126   6 C    3.894 --   125 C    2.336   127 C    1.345   123 C    0.182
   127   6 C    3.933 --   128 C    2.438   126 C    1.345
   128   6 C    3.878 --   127 C    2.438   138 C    1.193   125 C    0.187
   129   6 C    3.878 --   130 C    2.438   158 C    1.192   132 C    0.187
   130   6 C    3.933 --   129 C    2.438   131 C    1.344
   131   6 C    3.894 --   132 C    2.336   130 C    1.344   134 C    0.182
   132   6 C    3.925 --   131 C    2.336   133 C    1.369   129 C    0.187
   133   6 C    3.926 --   134 C    2.337   132 C    1.369   136 C    0.187
   134   6 C    3.893 --   133 C    2.337   135 C    1.343   131 C    0.182
   135   6 C    3.936 --   136 C    2.442   134 C    1.343
   136   6 C    3.877 --   135 C    2.442    82 C    1.189   133 C    0.187
   137  29 Cu   2.159 --   177 N    0.497   163 N    0.497   143 N    0.497
                           156 N    0.497
   138   6 C    3.929 --   176 C    1.256   139 C    1.256   128 C    1.193
   139   6 C    3.896 --   143 N    1.259   138 C    1.256   140 C    1.187
   140   6 C    3.954 --   141 C    1.641   139 C    1.187   178 H    0.974
   141   6 C    3.955 --   140 C    1.641   142 C    1.180   179 H    0.973
   142   6 C    3.905 --   144 C    1.321   143 N    1.224   141 C    1.180
   143   7 N    3.240 --   139 C    1.259   142 C    1.224   137 Cu   0.497
   144   6 C    3.929 --   153 C    1.322   142 C    1.321   145 C    1.031
   145   6 C    3.986 --   152 C    1.383   146 C    1.381   144 C    1.031
   146   6 C    3.987 --   147 C    1.471   145 C    1.381   180 H    0.972
   147   6 C    3.988 --   146 C    1.471   148 C    1.370   181 H    0.968
                           152 C    0.101
   148   6 C    3.983 --   151 C    1.378   147 C    1.370   149 C    1.049
   149   6 C    3.864 --   150 O    1.808   148 C    1.049   182 H    0.942
   150   8 O    2.004 --   149 C    1.808
   151   6 C    3.993 --   152 C    1.465   148 C    1.378   183 H    0.971
   152   6 C    3.987 --   151 C    1.465   145 C    1.383   184 H    0.972
                           147 C    0.101
   153   6 C    3.905 --   144 C    1.322   156 N    1.223   154 C    1.180
   154   6 C    3.955 --   155 C    1.642   153 C    1.180   185 H    0.973
   155   6 C    3.955 --   154 C    1.642   157 C    1.187   186 H    0.974
   156   7 N    3.240 --   157 C    1.259   153 C    1.223   137 Cu   0.497
   157   6 C    3.896 --   156 N    1.259   158 C    1.256   155 C    1.187
   158   6 C    3.929 --   159 C    1.256   157 C    1.256   129 C    1.192
   159   6 C    3.896 --   163 N    1.259   158 C    1.256   160 C    1.187
   160   6 C    3.954 --   161 C    1.641   159 C    1.187   187 H    0.974
   161   6 C    3.955 --   160 C    1.641   162 C    1.180   188 H    0.973
   162   6 C    3.905 --   164 C    1.320   163 N    1.224   161 C    1.180
   163   7 N    3.240 --   159 C    1.259   162 C    1.224   137 Cu   0.497
   164   6 C    3.929 --   173 C    1.321   162 C    1.320   165 C    1.033
   165   6 C    3.985 --   166 C    1.383   172 C    1.380   164 C    1.033
   166   6 C    3.987 --   167 C    1.466   165 C    1.383   189 H    0.972
                           171 C    0.100
   167   6 C    3.993 --   166 C    1.466   168 C    1.378   190 H    0.971
   168   6 C    3.983 --   167 C    1.378   171 C    1.370   169 C    1.049
   169   6 C    3.864 --   170 O    1.808   168 C    1.049   191 H    0.942
   170   8 O    2.003 --   169 C    1.808
   171   6 C    3.988 --   172 C    1.471   168 C    1.370   192 H    0.968
                           166 C    0.100
   172   6 C    3.987 --   171 C    1.471   165 C    1.380   193 H    0.972
   173   6 C    3.905 --   164 C    1.321   177 N    1.224   174 C    1.180
   174   6 C    3.955 --   175 C    1.641   173 C    1.180   194 H    0.973
   175   6 C    3.955 --   174 C    1.641   176 C    1.187   195 H    0.974
   176   6 C    3.896 --   177 N    1.259   138 C    1.256   175 C    1.187
   177   7 N    3.240 --   176 C    1.259   173 C    1.224   137 Cu   0.497
   178   1 H    1.001 --   140 C    0.974
   179   1 H    1.004 --   141 C    0.973
   180   1 H    1.004 --   146 C    0.972
   181   1 H    1.005 --   147 C    0.968
   182   1 H    1.010 --   149 C    0.942
   183   1 H    1.000 --   151 C    0.971
   184   1 H    1.004 --   152 C    0.972
   185   1 H    1.004 --   154 C    0.973
   186   1 H    1.001 --   155 C    0.974
   187   1 H    1.001 --   160 C    0.974
   188   1 H    1.004 --   161 C    0.973
   189   1 H    1.004 --   166 C    0.972
   190   1 H    1.000 --   167 C    0.971
   191   1 H    1.010 --   169 C    0.942
   192   1 H    1.005 --   171 C    0.968
   193   1 H    1.004 --   172 C    0.972
   194   1 H    1.004 --   174 C    0.973
   195   1 H    1.001 --   175 C    0.974
 ---------------------------------------------------------------------------

           -------------------------------------------------
          | TOTAL ENERGY             -359.124573875050 Eh   |
          | GRADIENT NORM               0.000377383706 Eh/α |
          | HOMO-LUMO GAP               0.000010994583 eV   |
           -------------------------------------------------

 * finished run on 2022/07/30 at 06:34:48.848
