   * xtb version 6.5.1 (b24c23e) compiled by 'conda@728c89f4b128' on 2022-07-12
          program call               : xtb Fe_Ph3Me_C8_2.xyz --gfn 1 --opt -T 48

   ID    Z sym.   atoms
    1   26 Fe     1, 75
    2    6 C      2-6, 8-20, 22-27, 29-42, 76-80, 82-94, 96-101, 103-116,
                  149-156
    3    7 N      7, 21, 28, 43, 81, 95, 102, 117
    4    1 H      44-74, 118-148
########################################################################
[WARNING] Please study the warnings concerning your input carefully
-1- prog_main_parseArguments: Unknown option '-T' provided
########################################################################

          :  Hamiltonian                  GFN1-xTB          :
 * total energy  :  -241.8936192 Eh     change       -0.2390459E-07 Eh
 * total energy  :  -242.3104386 Eh     change       -0.4168193E+00 Eh
 * total energy  :  -242.3978093 Eh     change       -0.8737073E-01 Eh
 * total energy  :  -242.4339702 Eh     change       -0.3616087E-01 Eh
 * total energy  :  -242.4468490 Eh     change       -0.1287878E-01 Eh
 * total energy  :  -242.4539521 Eh     change       -0.7103138E-02 Eh
 * total energy  :  -242.4582963 Eh     change       -0.4344169E-02 Eh
 * total energy  :  -242.4608914 Eh     change       -0.2595106E-02 Eh
 * total energy  :  -242.4621432 Eh     change       -0.1251838E-02 Eh
 * total energy  :  -242.4637058 Eh     change       -0.1562552E-02 Eh
 * total energy  :  -242.4682742 Eh     change       -0.1122997E-04 Eh
 * total energy  :  -242.4682852 Eh     change       -0.1094538E-04 Eh
 * total energy  :  -242.4682757 Eh     change        0.9470259E-05 Eh
 * total energy  :  -242.4682901 Eh     change       -0.1438804E-04 Eh
 * total energy  :  -242.4682767 Eh     change        0.1336239E-04 Eh
 * total energy  :  -242.4682948 Eh     change       -0.1810573E-04 Eh
 * total energy  :  -242.4682820 Eh     change        0.1281000E-04 Eh
 * total energy  :  -242.4682988 Eh     change       -0.1678000E-04 Eh
 * total energy  :  -242.4683000 Eh     change       -0.1166406E-05 Eh
   *** GEOMETRY OPTIMIZATION CONVERGED AFTER 50 ITERATIONS ***

 final structure:
================
156
 xtb: 6.5.1 (b24c23e)
Fe          13.22761388247399        0.02163823596994        0.05059022038722
C            9.82804600319662        0.10684187053030       -0.02102445539905
C           10.49002130893169        1.19211988250276        0.51528709792038
C            9.82448074297980        2.33598834335282        1.06322101396423
C           10.79256652127586        3.20504625128184        1.43850368694545
C           12.04728661082287        2.58922462503288        1.11755888060860
N           11.84987867258851        1.35404984036677        0.56281416479292
C           13.27662354270593        3.20406830450555        1.31478119574642
C           13.29635468631358        4.58383037211694        1.87635227138034
C           13.18489456422002        5.68438302984099        1.02178614280799
C           13.04510637796032        5.47239946544914       -0.46205486622961
C           13.20294137573424        6.96755790114460        1.55564957666323
C           13.32837701508761        7.16987782807052        2.92616724097232
C           13.36643470181845        8.56430536605990        3.49066192219813
C           13.43907409673686        6.06686734772034        3.76670175632102
C           13.42424859796144        4.77461630080762        3.25524151881554
C           13.54289464867196        3.58544344516231        4.17072429952329
C           14.48443674525468        2.59561617442252        1.01635481188828
C           15.75613227249075        3.22249981393173        1.22062715091785
C           16.69847958996169        2.31170398895857        0.87774423023295
N           14.65063156255516        1.31991833953311        0.53056527877737
C           15.99926119816635        1.13533682017640        0.46260559170031
C           16.64931274318408       -0.04169842623245        0.06934006961112
C           15.95990776521091       -1.18780511861831       -0.34659382066388
C           16.61723713352641       -2.39588765179677       -0.73796456234415
C           15.64618892172603       -3.25878110325538       -1.12282564414102
C           14.39900928797215       -2.57220023404900       -0.96439168671029
N           14.60811978024654       -1.30354779091170       -0.47737038612884
C           13.17389314439426       -3.12465783082062       -1.30010025887268
C           13.14570400598581       -4.50253475372114       -1.86610039674225
C           13.30547652853044       -4.69488793238332       -3.24200939899882
C           13.51011633380634       -3.50973798030157       -4.14742874524811
C           13.27301557925891       -5.98401030150002       -3.75855190702971
C           13.08496446141659       -7.08402050080230       -2.92621922896333
C           13.04369794141771       -8.47058716599394       -3.50968756845818
C           12.92777873070085       -6.88042990156078       -1.56020827308558
C           12.95606930066099       -5.59893230429623       -1.02082637046540
C           12.78306631831383       -5.38642711219564        0.45946938304811
C           11.96755456296763       -2.45909671213926       -1.12729568259247
C           10.69493443525085       -3.02450868573565       -1.47030413715309
C            9.75566118927357       -2.11915833459342       -1.10813945348499
C           10.45647173529550       -1.00283290453404       -0.54753795453617
N           11.81021462150825       -1.21320578950231       -0.58329188282557
H            8.74404507082040        0.12736486090518       -0.02938685528915
H            8.75390279065127        2.44146549307720        1.14005733110168
H           10.68642178062247        4.17759801542532        1.89164115572874
H           12.11881124827045        4.93782513507428       -0.68170090950500
H           13.87421025491706        4.87152925148895       -0.83992746410689
H           13.03175321648969        6.42441050382774       -0.99180713718952
H           13.11626242365167        7.82203642394940        0.89246492843374
H           12.94964871143078        8.58713292871140        4.49788206011556
H           14.39958921075662        8.91575063898735        3.54297215251962
H           12.80514439625110        9.25437987962940        2.86029713610471
H           13.53657798058031        6.21543102604677        4.83716332643134
H           14.44530275608443        3.01703309730797        3.93734889252609
H           13.58881081549097        3.89962829327042        5.21299563513530
H           12.68728527908449        2.92006461800756        4.04180980188607
H           15.89271428023041        4.22819954529458        1.58395022689946
H           17.77176123103212        2.41077606640876        0.90074185213080
H           17.68454063882314       -2.54698023165845       -0.71662443596567
H           15.74792828788323       -4.27016065010294       -1.48188690380154
H           12.69144639893830       -2.79724691940915       -4.03149162207781
H           13.55948711787267       -3.82072751170095       -5.19050758233638
H           14.43857355685467       -2.99510023068380       -3.89238348193054
H           13.39608400402552       -6.13492554629156       -4.82607521907732
H           13.90981868879602       -8.64122242403874       -4.15101233319208
H           13.03556599070463       -9.22566026049094       -2.72377442630383
H           12.14545284609976       -8.59525069708732       -4.11807716640637
H           12.78127417609079       -7.73123913698206       -0.90287712261866
H           11.87115636943335       -4.81884421644580        0.65542981337180
H           13.62271377149629       -4.81772862588355        0.86290113941524
H           12.71959774300954       -6.33894068598077        0.98466430668679
H           10.55793284223948       -3.99179775408767       -1.92639048058898
H            8.68300464922496       -2.18360270207105       -1.19992155003021
Fe          31.80212953329495       -0.05211281018075        0.01726801881243
C           35.20164437516716       -0.06130845551809       -0.09908171139608
C           34.54002574250934       -1.21670589596369       -0.46101452754536
C           35.20584283350539       -2.42153571737168       -0.85683459306607
C           34.23788243929569       -3.30999189922191       -1.18393369583387
C           32.98296334387020       -2.64411520954869       -0.98808730093379
N           33.18015598547372       -1.36780915913862       -0.53582473519833
C           31.75366442058086       -3.22526090081972       -1.26966315130493
C           31.73412469306467       -4.61025915366951       -1.81821297287221
C           31.84426617988641       -4.81391683943291       -3.19675071312332
C           31.98243949789805       -3.63437304185370       -4.12187176615515
C           31.82643477485211       -6.10988109568193       -3.69873263656450
C           31.70248263586534       -7.20404038749262       -2.84875000875568
C           31.66472094073458       -8.60152388880738       -3.40565979751152
C           31.59298155821156       -6.98889583384829       -1.47868562821594
C           31.60761451170750       -5.70184411274831       -0.95423501534704
C           31.49002907479899       -5.47628309403969        0.52954650732872
C           30.54574055653227       -2.57942482237950       -1.06499574127664
C           29.27421316078362       -3.17336108505318       -1.35200109611522
C           28.33165563727939       -2.27796607581016       -0.97124040546141
N           30.37926706797514       -1.32175232845576       -0.53435980157044
C           29.03059126078416       -1.14114346639530       -0.45724157279378
C           28.38028461965029       -0.01929264050334        0.07294836381432
C           29.06952096362297        1.09520860763594        0.56765454972591
C           28.41204432276714        2.23713802081008        1.12305256190304
C           29.38306586824346        3.12541856749074        1.44510944482235
C           30.63037031094847        2.52066585852298        1.08389358471991
N           30.42134381291503        1.26896522584191        0.55478235010560
C           31.85540718349062        3.15172968215990        1.22476971571467
C           31.88356676981166        4.53722882656689        1.77183693656356
C           31.72210159911193        5.62939151776508        0.91346517354562
C           31.51567960420301        5.40244552556931       -0.56035145386782
C           31.75471903263132        6.91671880657618        1.43444234984311
C           31.94459495136620        7.13296962924219        2.79655093585903
C           31.98611136760311        8.53693767823390        3.33678102509789
C           32.10350641874685        6.03957661703464        3.63998551389374
C           32.07511125374135        4.74190856256281        3.14074936122099
C           32.25012583720757        3.56292463622743        4.06038493712467
C           33.06168647483233        2.55301768097559        0.88632495704396
C           34.33399287793777        3.19948471237361        1.02849807193166
C           35.27332646389818        2.29703498729378        0.65931576606239
C           34.57288503243045        1.10317628640226        0.29097451363909
N           33.21923670190723        1.27822681193075        0.41408200153325
H           36.28560470474631       -0.06918292762848       -0.12178120974226
H           36.27649946845256       -2.54991830744591       -0.87634981316295
H           34.34425704623873       -4.32605660109693       -1.52853850960403
H           32.90905711611160       -3.09635456517039       -3.91220882779165
H           31.15354167667278       -2.93910797262531       -3.97771452351666
H           31.99409479962544       -3.95538071172636       -5.16300402002754
H           31.91207196811393       -6.26822875984963       -4.76880342394132
H           32.08053564897860       -9.31483205758632       -2.69361769359774
H           30.63173935190249       -8.89125592110988       -3.61221057927212
H           32.22706277048742       -8.66393823570392       -4.33759130964966
H           31.49658224036413       -7.83666044468379       -0.80826182931991
H           30.58684015591411       -4.90587394662937        0.75490845939698
H           31.44619769210890       -6.42412351838725        1.06510960532783
H           32.34498774868455       -4.90507437718810        0.89583925239114
H           29.13789107945812       -4.15120379519021       -1.78481279167719
H           27.25840867885553       -2.36514847439251       -1.02436322834234
H           27.34466348453130        2.33151515257505        1.24226662252140
H           29.28122161701587        4.10307053843818        1.88782186700897
H           32.33450244751464        4.80947801175922       -0.97173102330290
H           31.46448745052239        6.34954082390602       -1.09659220589138
H           30.58764274315846        4.85361392348722       -0.73198809538030
H           31.63034238475200        7.76528153086501        0.76961228790453
H           31.12024990953856        9.10464898093623        2.99246218156256
H           31.99402835611613        8.53668186662914        4.42664226063109
H           32.88460248162055        9.04813781293984        2.98475596018892
H           32.25151402114711        6.19744133507430        4.70328064055689
H           33.16187729241670        3.01834877751841        3.80685976358426
H           31.41062864697934        2.87297059807206        3.95848799662461
H           32.31513213139595        3.88570064384753        5.09900554371189
H           34.47076385519382        4.21281989723681        1.37037191216308
H           36.34581633662873        2.40820957822692        0.63538997261493
C           18.04897931309243       -0.06780562799266        0.08987054564216
C           19.27547320690570       -0.07297032903142        0.10676458311117
C           20.61464598361179       -0.07202265601639        0.12067817853719
C           21.84757726158104       -0.06218245115617        0.12981119241581
C           23.18196484030167       -0.04818762274213        0.13483762968967
C           24.41487489362945       -0.03249054702270        0.13384823312548
C           25.75406255501007       -0.02265571257621        0.12311904492186
C           26.98064718311691       -0.01560443203304        0.10744014203828

          :  Hamiltonian                  GFN1-xTB          :
         :: total energy            -242.468299963590 Eh    ::
         :: gradient norm              0.000317972382 Eh/a0 ::
         :: HOMO-LUMO gap              0.092727055320 eV    ::
         :: SCC energy              -246.473850037762 Eh    ::
         :: repulsion energy           4.144878589264 Eh    ::

    * Orbital Energies and Occupations

         #    Occupation            Energy/Eh            Energy/eV
      -------------------------------------------------------------
         1        2.0000           -0.7687286             -20.9182
       ...           ...                  ...                  ...
       215        2.0000           -0.4209161             -11.4537
       216        2.0000           -0.4190656             -11.4034
       217        2.0000           -0.4108189             -11.1790
       218        2.0000           -0.3965308             -10.7902
       219        2.0000           -0.3965253             -10.7900
       220        2.0000           -0.3944499             -10.7335
       221        1.9909           -0.3885423             -10.5728
       222        1.9909           -0.3885396             -10.5727
       223        1.9460           -0.3868299             -10.5262
       224        1.9459           -0.3868283             -10.5261
       225        1.9432           -0.3867811             -10.5249
       226        1.9422           -0.3867636             -10.5244
       227        1.7223           -0.3851587             -10.4807 (HOMO)
       228        0.2931           -0.3817510             -10.3880 (LUMO)
       229        0.2256           -0.3814656             -10.3802
       230                         -0.3400608              -9.2535
       231                         -0.3286209              -8.9422
       232                         -0.3254237              -8.8552
       233                         -0.3254171              -8.8551
       234                         -0.3056354              -8.3168
       235                         -0.3021095              -8.2208
       236                         -0.3014227              -8.2021
       237                         -0.3013923              -8.2013
       238                         -0.2912202              -7.9245
       ...                                ...                  ...
       510                          1.5984036              43.4948
      -------------------------------------------------------------
                  HL-Gap            0.0034077 Eh            0.0927 eV

Wiberg/Mayer (AO) data.
largest (>0.10) Wiberg bond orders for each atom

     #   Z sym  total        # sym  WBO       # sym  WBO       # sym  WBO
 ---------------------------------------------------------------------------
     1  26 Fe   3.155 --    43 N    0.671     7 N    0.668    21 N    0.664
                            28 N    0.661
     2   6 C    3.923 --    42 C    1.363     3 C    1.362    44 H    0.970
     3   6 C    3.926 --     2 C    1.362     7 N    1.211     4 C    1.174
     4   6 C    3.959 --     5 C    1.649     3 C    1.174    45 H    0.975
     5   6 C    3.962 --     4 C    1.649     6 C    1.175    46 H    0.974
     6   6 C    3.920 --     8 C    1.316     7 N    1.223     5 C    1.175
     7   7 N    3.381 --     6 C    1.223     3 C    1.211     1 Fe   0.668
     8   6 C    3.926 --    18 C    1.340     6 C    1.316     9 C    1.005
     9   6 C    3.987 --    10 C    1.380    16 C    1.379     8 C    1.005
                            13 C    0.104
    10   6 C    3.984 --    12 C    1.420     9 C    1.380    11 C    1.021
                            15 C    0.103
    11   6 C    3.995 --    10 C    1.021    49 H    0.986    48 H    0.975
                            47 H    0.973
    12   6 C    3.993 --    10 C    1.420    13 C    1.414    50 H    0.970
                            16 C    0.103
    13   6 C    3.988 --    12 C    1.414    15 C    1.414    14 C    1.020
                             9 C    0.104
    14   6 C    3.996 --    13 C    1.020    53 H    0.983    51 H    0.983
                            52 H    0.971
    15   6 C    3.993 --    16 C    1.421    13 C    1.414    54 H    0.970
                            10 C    0.103
    16   6 C    3.984 --    15 C    1.421     9 C    1.379    17 C    1.021
                            12 C    0.103
    17   6 C    3.995 --    16 C    1.021    56 H    0.986    57 H    0.974
                            55 H    0.973
    18   6 C    3.917 --     8 C    1.340    21 N    1.196    19 C    1.178
    19   6 C    3.957 --    20 C    1.639    18 C    1.178    58 H    0.974
    20   6 C    3.960 --    19 C    1.639    22 C    1.188    59 H    0.973
    21   7 N    3.381 --    22 C    1.249    18 C    1.196     1 Fe   0.664
    22   6 C    3.904 --    21 N    1.249    23 C    1.248    20 C    1.188
    23   6 C    3.924 --    24 C    1.249    22 C    1.248   149 C    1.207
    24   6 C    3.905 --    23 C    1.249    28 N    1.248    25 C    1.188
    25   6 C    3.960 --    26 C    1.638    24 C    1.188    60 H    0.973
    26   6 C    3.957 --    25 C    1.638    27 C    1.178    61 H    0.974
    27   6 C    3.917 --    29 C    1.339    28 N    1.197    26 C    1.178
    28   7 N    3.380 --    24 C    1.248    27 C    1.197     1 Fe   0.661
    29   6 C    3.926 --    27 C    1.339    39 C    1.317    30 C    1.005
    30   6 C    3.987 --    37 C    1.383    31 C    1.376    29 C    1.005
                            34 C    0.104
    31   6 C    3.984 --    33 C    1.425    30 C    1.376    32 C    1.021
                            36 C    0.102
    32   6 C    3.995 --    31 C    1.021    63 H    0.986    62 H    0.975
                            64 H    0.973
    33   6 C    3.993 --    31 C    1.425    34 C    1.409    65 H    0.971
                            37 C    0.103
    34   6 C    3.988 --    36 C    1.419    33 C    1.409    35 C    1.020
                            30 C    0.104
    35   6 C    3.996 --    34 C    1.020    67 H    0.986    66 H    0.978
                            68 H    0.974
    36   6 C    3.992 --    34 C    1.419    37 C    1.416    69 H    0.970
                            31 C    0.102
    37   6 C    3.984 --    36 C    1.416    30 C    1.383    38 C    1.021
                            33 C    0.103
    38   6 C    3.995 --    37 C    1.021    72 H    0.986    71 H    0.975
                            70 H    0.973
    39   6 C    3.920 --    29 C    1.317    43 N    1.222    40 C    1.174
    40   6 C    3.962 --    41 C    1.649    39 C    1.174    73 H    0.974
    41   6 C    3.959 --    40 C    1.649    42 C    1.173    74 H    0.975
    42   6 C    3.926 --     2 C    1.363    43 N    1.210    41 C    1.173
    43   7 N    3.382 --    39 C    1.222    42 C    1.210     1 Fe   0.671
    44   1 H    1.001 --     2 C    0.970
    45   1 H    0.998 --     4 C    0.975
    46   1 H    1.002 --     5 C    0.974
    47   1 H    1.008 --    11 C    0.973
    48   1 H    1.007 --    11 C    0.975
    49   1 H    1.004 --    11 C    0.986
    50   1 H    1.000 --    12 C    0.970
    51   1 H    1.004 --    14 C    0.983
    52   1 H    1.006 --    14 C    0.971
    53   1 H    1.004 --    14 C    0.983
    54   1 H    1.000 --    15 C    0.970
    55   1 H    1.008 --    17 C    0.973
    56   1 H    1.004 --    17 C    0.986
    57   1 H    1.007 --    17 C    0.974
    58   1 H    1.002 --    19 C    0.974
    59   1 H    1.002 --    20 C    0.973
    60   1 H    1.002 --    25 C    0.973
    61   1 H    1.002 --    26 C    0.974
    62   1 H    1.007 --    32 C    0.975
    63   1 H    1.004 --    32 C    0.986
    64   1 H    1.008 --    32 C    0.973
    65   1 H    0.999 --    33 C    0.971
    66   1 H    1.005 --    35 C    0.978
    67   1 H    1.004 --    35 C    0.986
    68   1 H    1.006 --    35 C    0.974
    69   1 H    1.000 --    36 C    0.970
    70   1 H    1.008 --    38 C    0.973
    71   1 H    1.007 --    38 C    0.975
    72   1 H    1.004 --    38 C    0.986
    73   1 H    1.002 --    40 C    0.974
    74   1 H    0.998 --    41 C    0.975
    75  26 Fe   3.154 --   117 N    0.671    81 N    0.668    95 N    0.664
                           102 N    0.661
    76   6 C    3.923 --   116 C    1.363    77 C    1.362   118 H    0.970
    77   6 C    3.926 --    76 C    1.362    81 N    1.211    78 C    1.174
    78   6 C    3.959 --    79 C    1.649    77 C    1.174   119 H    0.975
    79   6 C    3.962 --    78 C    1.649    80 C    1.175   120 H    0.974
    80   6 C    3.920 --    82 C    1.316    81 N    1.223    79 C    1.175
    81   7 N    3.381 --    80 C    1.223    77 C    1.211    75 Fe   0.668
    82   6 C    3.926 --    92 C    1.340    80 C    1.316    83 C    1.005
    83   6 C    3.987 --    84 C    1.380    90 C    1.379    82 C    1.005
                            87 C    0.104
    84   6 C    3.984 --    86 C    1.420    83 C    1.380    85 C    1.021
                            89 C    0.103
    85   6 C    3.995 --    84 C    1.021   123 H    0.986   122 H    0.975
                           121 H    0.973
    86   6 C    3.993 --    84 C    1.420    87 C    1.414   124 H    0.970
                            90 C    0.103
    87   6 C    3.988 --    86 C    1.414    89 C    1.414    88 C    1.020
                            83 C    0.104
    88   6 C    3.996 --    87 C    1.020   127 H    0.983   125 H    0.983
                           126 H    0.971
    89   6 C    3.993 --    90 C    1.421    87 C    1.414   128 H    0.970
                            84 C    0.103
    90   6 C    3.984 --    89 C    1.421    83 C    1.379    91 C    1.021
                            86 C    0.103
    91   6 C    3.995 --    90 C    1.021   130 H    0.986   131 H    0.974
                           129 H    0.973
    92   6 C    3.917 --    82 C    1.340    95 N    1.196    93 C    1.178
    93   6 C    3.957 --    94 C    1.639    92 C    1.178   132 H    0.974
    94   6 C    3.960 --    93 C    1.639    96 C    1.188   133 H    0.973
    95   7 N    3.381 --    96 C    1.249    92 C    1.196    75 Fe   0.664
    96   6 C    3.904 --    95 N    1.249    97 C    1.248    94 C    1.188
    97   6 C    3.924 --    98 C    1.248    96 C    1.248   156 C    1.207
    98   6 C    3.905 --    97 C    1.248   102 N    1.248    99 C    1.188
    99   6 C    3.960 --   100 C    1.638    98 C    1.188   134 H    0.973
   100   6 C    3.957 --    99 C    1.638   101 C    1.178   135 H    0.974
   101   6 C    3.917 --   103 C    1.339   102 N    1.197   100 C    1.178
   102   7 N    3.380 --    98 C    1.248   101 C    1.197    75 Fe   0.661
   103   6 C    3.926 --   101 C    1.339   113 C    1.317   104 C    1.005
   104   6 C    3.987 --   111 C    1.383   105 C    1.376   103 C    1.005
                           108 C    0.104
   105   6 C    3.984 --   107 C    1.425   104 C    1.376   106 C    1.021
                           110 C    0.102
   106   6 C    3.995 --   105 C    1.021   137 H    0.986   136 H    0.975
                           138 H    0.973
   107   6 C    3.993 --   105 C    1.425   108 C    1.409   139 H    0.971
                           111 C    0.103
   108   6 C    3.988 --   110 C    1.419   107 C    1.409   109 C    1.020
                           104 C    0.104
   109   6 C    3.996 --   108 C    1.020   141 H    0.986   140 H    0.978
                           142 H    0.974
   110   6 C    3.992 --   108 C    1.419   111 C    1.416   143 H    0.970
                           105 C    0.102
   111   6 C    3.984 --   110 C    1.416   104 C    1.383   112 C    1.021
                           107 C    0.103
   112   6 C    3.995 --   111 C    1.021   146 H    0.986   145 H    0.975
                           144 H    0.973
   113   6 C    3.920 --   103 C    1.317   117 N    1.222   114 C    1.174
   114   6 C    3.962 --   115 C    1.649   113 C    1.174   147 H    0.974
   115   6 C    3.959 --   114 C    1.649   116 C    1.173   148 H    0.975
   116   6 C    3.926 --    76 C    1.363   117 N    1.210   115 C    1.173
   117   7 N    3.382 --   113 C    1.222   116 C    1.210    75 Fe   0.671
   118   1 H    1.001 --    76 C    0.970
   119   1 H    0.998 --    78 C    0.975
   120   1 H    1.002 --    79 C    0.974
   121   1 H    1.008 --    85 C    0.973
   122   1 H    1.007 --    85 C    0.975
   123   1 H    1.004 --    85 C    0.986
   124   1 H    1.000 --    86 C    0.970
   125   1 H    1.004 --    88 C    0.983
   126   1 H    1.006 --    88 C    0.971
   127   1 H    1.004 --    88 C    0.983
   128   1 H    1.000 --    89 C    0.970
   129   1 H    1.008 --    91 C    0.973
   130   1 H    1.004 --    91 C    0.986
   131   1 H    1.007 --    91 C    0.974
   132   1 H    1.002 --    93 C    0.974
   133   1 H    1.002 --    94 C    0.973
   134   1 H    1.002 --    99 C    0.973
   135   1 H    1.002 --   100 C    0.974
   136   1 H    1.007 --   106 C    0.975
   137   1 H    1.004 --   106 C    0.986
   138   1 H    1.008 --   106 C    0.973
   139   1 H    0.999 --   107 C    0.971
   140   1 H    1.005 --   109 C    0.978
   141   1 H    1.004 --   109 C    0.986
   142   1 H    1.006 --   109 C    0.974
   143   1 H    1.000 --   110 C    0.970
   144   1 H    1.008 --   112 C    0.973
   145   1 H    1.007 --   112 C    0.975
   146   1 H    1.004 --   112 C    0.986
   147   1 H    1.002 --   114 C    0.974
   148   1 H    0.998 --   115 C    0.975
   149   6 C    3.865 --   150 C    2.410    23 C    1.207   152 C    0.182
   150   6 C    3.923 --   149 C    2.410   151 C    1.364
   151   6 C    3.880 --   152 C    2.305   150 C    1.364   154 C    0.178
   152   6 C    3.914 --   151 C    2.305   153 C    1.390   149 C    0.182
   153   6 C    3.914 --   154 C    2.305   152 C    1.390   156 C    0.182
   154   6 C    3.880 --   153 C    2.305   155 C    1.364   151 C    0.178
   155   6 C    3.923 --   156 C    2.410   154 C    1.364
   156   6 C    3.865 --   155 C    2.410    97 C    1.207   153 C    0.182
 ---------------------------------------------------------------------------

           -------------------------------------------------
          | TOTAL ENERGY             -242.468299963590 Eh   |
          | GRADIENT NORM               0.000317972382 Eh/α |
          | HOMO-LUMO GAP               0.092727055320 eV   |
           -------------------------------------------------

 * finished run on 2022/07/29 at 21:34:15.995
