   * xtb version 6.5.1 (b24c23e) compiled by 'conda@728c89f4b128' on 2022-07-12
          program call               : xtb Zn_PhCN_C4_3.xyz --gfn 1 --opt -T 48

   ID    Z sym.   atoms
    1   30 Zn     1, 59, 125
    2    6 C      2-6, 8-13, 15-19, 21-26, 28-33, 35-40, 60-64, 66-71, 73-77,
                  79-84, 86-91, 93-98, 117-124, 126-130, 132-137, 139-143,
                  145-150, 152-157, 159-164
    3    7 N      7, 14, 20, 27, 34, 41, 65, 72, 78, 85, 92, 99, 131, 138,
                  144, 151, 158, 165
    4    1 H      42-58, 100-116, 166-181

          :  Hamiltonian                  GFN1-xTB          :
 * total energy  :  -318.1610671 Eh     change       -0.1994067E-08 Eh
 * total energy  :  -318.4684315 Eh     change       -0.3073645E+00 Eh
 * total energy  :  -318.5916568 Eh     change       -0.1232253E+00 Eh
 * total energy  :  -318.6677947 Eh     change       -0.7613787E-01 Eh
 * total energy  :  -318.7291860 Eh     change       -0.6139126E-01 Eh
 * total energy  :  -318.7620136 Eh     change       -0.3282766E-01 Eh
 * total energy  :  -318.7820082 Eh     change       -0.1999463E-01 Eh
 * total energy  :  -318.7942238 Eh     change       -0.1221560E-01 Eh
 * total energy  :  -318.8064215 Eh     change       -0.1219762E-01 Eh
 * total energy  :  -318.8153744 Eh     change       -0.8952965E-02 Eh
 * total energy  :  -318.8890492 Eh     change       -0.1118312E-04 Eh
 * total energy  :  -318.8890614 Eh     change       -0.1221733E-04 Eh
 * total energy  :  -318.8890774 Eh     change       -0.1594611E-04 Eh
 * total energy  :  -318.8890832 Eh     change       -0.5890382E-05 Eh
 * total energy  :  -318.8890934 Eh     change       -0.1012440E-04 Eh
 * total energy  :  -318.8890984 Eh     change       -0.5027233E-05 Eh
 * total energy  :  -318.8891056 Eh     change       -0.7184925E-05 Eh
 * total energy  :  -318.8891119 Eh     change       -0.6328113E-05 Eh
 * total energy  :  -318.8891163 Eh     change       -0.4398359E-05 Eh
   *** GEOMETRY OPTIMIZATION CONVERGED AFTER 56 ITERATIONS ***

 final structure:
================
181
 xtb: 6.5.1 (b24c23e)
Zn          33.74267779313413        0.03825620451916        0.02021958988892
C           30.33329814579074        0.05868720923504        0.10481225731070
C           30.96485419579182        1.27755584044876        0.32010674168688
C           30.29255970558939        2.52723124571593        0.54174178512048
C           31.25278780569071        3.47095778174666        0.70550043692383
C           32.52490860970093        2.80620946152659        0.59754073261735
N           32.31471948787684        1.48067981420735        0.35474163986558
C           33.77764374718221        3.42411896828453        0.69849234635257
C           33.79148260928323        4.87984615028212        0.98338691915258
C           33.24591228053204        5.37537632986926        2.17008946864026
C           33.25321078861529        6.73258909717003        2.43723647203563
C           33.80474255535150        7.62565146978733        1.51367835902239
C           33.80854691170696        9.02343356546884        1.78255628725868
N           33.80805649509482       10.15405795063062        1.99746126343263
C           34.35168750755982        7.13532572961785        0.32407373687808
C           34.34602829423044        5.77617356422816        0.06665160308681
C           35.01609501212518        2.78862182861903        0.55436232614167
C           36.29686669278393        3.41929143620050        0.71762076657886
C           37.24121002955013        2.46566481578530        0.51375839359769
N           35.20681542598833        1.46341935198261        0.26774340552624
C           36.54839068480108        1.24300459282388        0.23114223689043
C           37.17686328694307        0.01251530447683       -0.04766655956966
C           36.52051262526435       -1.20715241218480       -0.30883137490874
C           37.18394691654224       -2.43685623255101       -0.62874317816359
C           36.21846223337921       -3.37483822081667       -0.80456347719094
C           34.95446907331743       -2.72839213911460       -0.58218198511709
N           35.17561167499961       -1.40837887094967       -0.29343987669482
C           33.70206797757194       -3.34651908834642       -0.67238672717721
C           33.68211169220950       -4.79980392631415       -0.96833960940528
C           33.06449248208312       -5.27892496244400       -2.12626974734055
C           33.04025722943042       -6.63378941486166       -2.40409312994895
C           33.63247117880962       -7.54113606895581       -1.52039996065751
C           33.60405220472575       -8.93653786056260       -1.79998955323992
N           33.57936192913421      -10.06471179902813       -2.02602003998545
C           34.25115794476893       -7.06742601909830       -0.35952588951526
C           34.27605414511189       -5.71062015056111       -0.09125662640150
C           32.46390942068710       -2.71343357172284       -0.50508812782510
C           31.17997455944113       -3.36281883010958       -0.54742889650950
C           30.24098282155475       -2.40837896615206       -0.33113798612296
C           30.93877961961830       -1.16722357041083       -0.14321027980515
N           32.28249425555312       -1.38625626109970       -0.24853576724820
H           29.24807847289048        0.06485752237872        0.13291828818400
H           29.22166099301995        2.65568884704143        0.55929030865292
H           31.11618873237490        4.52721608955118        0.87363237438819
H           32.82758244550253        4.68504797105569        2.89395285654065
H           32.83271991900614        7.10854516148882        3.36264062701495
H           34.77736141344953        7.82491620143471       -0.39552043067439
H           34.75972388123495        5.40113437056868       -0.86271780690056
H           36.45232763352514        4.45599654717573        0.96947941480248
H           38.31351926044541        2.57229231321275        0.55513774796374
H           38.25210499561534       -2.55765585031246       -0.71469295505578
H           36.34890844805732       -4.41056782742915       -1.07396714510237
H           32.61434587028902       -4.57770088704668       -2.82001029030433
H           32.56344831964254       -6.99693807840408       -3.30707927828935
H           34.70830764284490       -7.76805020072126        0.32948768456365
H           34.74510746426984       -5.34857740358924        0.81675041410963
H           31.02216012003436       -4.41708094118559       -0.70930680953403
H           29.16921854240017       -2.52422241810548       -0.29203928274678
Zn          60.70630796987358       -0.00101105899294        0.04253663698690
C           64.11632027593481       -0.02472817299981        0.10164111475451
C           63.48377489775017       -1.22966867354547        0.38242942119467
C           64.15551376804710       -2.46784180917609        0.66270983215279
C           63.19490402560814       -3.40117585140376        0.87595259250264
C           61.92306114438312       -2.74110851438410        0.73924409967766
N           62.13380490287376       -1.42901040228135        0.43237502154343
C           60.67044301001109       -3.35366097915995        0.86916274218023
C           60.65724513205941       -4.79344076471831        1.22627598437819
C           61.19999844444654       -5.22683530568536        2.43835984245423
C           61.19226592882049       -6.56838639594781        2.77532318779567
C           60.64319501405763       -7.50815848965836        1.89772621544004
C           60.63871222686605       -8.89004495325280        2.23894154777954
N           60.63683114703004      -10.00712127168859        2.51547463852636
C           60.09989267105772       -7.08020471604015        0.68266893686844
C           60.10594920693027       -5.73613006737863        0.35532999116843
C           59.43189271502575       -2.72614944622237        0.69397086226733
C           58.15084479229512       -3.35020077764134        0.88027416532820
C           57.20669915453740       -2.40590367762966        0.63678623580544
N           59.24149114545525       -1.41392730835247        0.35356124680148
C           57.89974902287087       -1.19465085604058        0.30840173894741
C           57.27205817278756        0.02834765954110       -0.00012600388890
C           57.92776810810864        1.23897311225027       -0.29885937206353
C           57.26340914863924        2.45878393639125       -0.65354928818646
C           58.22902288811544        3.38476701662187       -0.88288907810096
C           59.49454340576970        2.74177984573973       -0.65833403982908
N           59.27376412055013        1.43568496590895       -0.31239566393751
C           60.74752242954256        3.34862437905876       -0.80195901049621
C           60.76849147479346        4.78384763360533       -1.17603531452904
C           61.36357244955586        5.19317640102106       -2.37199686204868
C           61.38721100071072        6.52978193682259       -2.72728379170052
C           60.81706749599179        7.48889716998083       -1.88467122165559
C           60.84391719652902        8.86583882883315       -2.24437648676602
N           60.86713788400990        9.97788546852357       -2.53975837183180
C           60.22222792779032        7.08528358753323       -0.68552751467680
C           60.19785992965089        5.74610649029113       -0.33955454139678
C           61.98605550337432        2.71904459258615       -0.62520933220938
C           63.27118374954841        3.36087411696248       -0.71854982418701
C           64.21025723725113        2.41590347331077       -0.46453901726216
C           63.51155653993077        1.18840334320701       -0.20390996791713
N           62.16722302952446        1.40610337724741       -0.30394266624121
H           65.20170459117293       -0.03241227124545        0.12180597471781
H           65.22633766065279       -2.59654534503507        0.68262617270046
H           63.33080638450907       -4.44816324959591        1.09494506632460
H           61.61644243930225       -4.49985473758257        3.12656397865737
H           61.61036715886664       -6.89591774325147        3.72001899651846
H           59.67662228994663       -7.80622516877812       -0.00163285206243
H           59.69498901751775       -5.40982621837375       -0.59343240331212
H           57.99513133623202       -4.37593486340604        1.17344531721244
H           56.13435905777607       -2.51073440242919        0.68145042768556
H           56.19437999787839        2.58090657771210       -0.72572241206197
H           58.09745103105559        4.40985585397412       -1.18987598830015
H           61.79623780996111        4.45110148658634       -3.03363270491285
H           61.84618106377084        6.83840175040290       -3.65934334972337
H           59.78288140491625        7.82644340686413       -0.02809775017949
H           59.74733176545959        5.43901632456812        0.59759646187285
H           63.42967458712639        4.40472627078513       -0.93732863860768
H           65.28273998738092        2.53010249148596       -0.44502404327947
C           39.80487872729454       -0.00281000560141       -0.07301701551713
C           38.58265236436763        0.00198421895140       -0.06346340227906
C           41.15442383914869       -0.00144706727886       -0.08128074735988
C           42.37680184800247        0.00077644584586       -0.08003138181383
C           53.29219875895812        0.04774010018990       -0.02373003271603
C           52.07026954678111        0.04225798936245       -0.03314475255265
C           54.64288691102164        0.04535757588795       -0.01776534211254
C           55.86472645719053        0.03953633282793       -0.01286023979778
Zn          47.22257134025458        0.02230546197234       -0.05821079664636
C           43.78220203780707        0.00616212874660       -0.07506176570846
C           44.43348459034544       -1.16423243494698       -0.51386938717481
C           43.76374407910181       -2.35896907117827       -0.93496655791057
C           44.72580270835994       -3.25050986373573       -1.28591763908426
C           45.99320922378405       -2.60379448221607       -1.08964153035867
N           45.77866707881503       -1.33937046833004       -0.61090986817920
C           47.24374547840568       -3.18658312173326       -1.32363877483593
C           47.25231811632871       -4.56340906262419       -1.87673760177183
C           46.69624898639964       -4.82455123164511       -3.13127069553448
C           46.70659486805521       -6.10499538194228       -3.65461173169172
C           47.27124281655342       -7.15556315286155       -2.92509256135143
C           47.28199257194282       -8.47486022507244       -3.45950021637756
N           47.29292152906083       -9.54094032919520       -3.89256647899329
C           47.82537430009100       -6.90051346304024       -1.66709062125945
C           47.81694505381011       -5.61620096730803       -1.15301384193849
C           48.48664299775594       -2.58874073970252       -1.08643902364659
C           49.76243696118055       -3.18221192312619       -1.37536475533070
C           50.71268750170405       -2.28250667702738       -1.01384658834843
N           48.68451083798660       -1.33672526301478       -0.56978709747196
C           50.02749261823444       -1.12851072855407       -0.51137256587875
C           50.66340659701613        0.03738234061897       -0.04077630219441
C           50.01270280766549        1.19743954061829        0.42401653863742
C           50.68250897750514        2.35587496172794        0.93684305926491
C           49.72069055855377        3.24661600687632        1.29000774187799
C           48.45323352737858        2.64328130080411        0.98533192769346
N           48.66743623997182        1.39406201125172        0.46832302422607
C           47.20251516599844        3.22994308736127        1.20938673986681
C           47.19271777944638        4.60539805204185        1.76545431215849
C           46.61427004376215        4.85996248691360        3.01123087889623
C           46.60725179753143        6.13917981624918        3.53751949628285
C           47.17708431115538        7.19515578821249        2.81997588900936
C           47.17028336419871        8.51320987859225        3.35746376900519
N           47.16524202561886        9.57809071857799        3.79383393613667
C           47.75393042722412        6.94670791757970        1.57091187953719
C           47.76235401472744        5.66370873080415        1.05372784669609
C           45.95983086000697        2.63644815221108        0.96056880966310
C           44.68477379598632        3.27196335755591        1.14289799396276
C           43.73442767447353        2.37175732627472        0.78234801443171
C           44.41904297133085        1.18286584074394        0.36876710479368
N           45.76154735854038        1.37014058809013        0.47954192906096
H           42.69395738559952       -2.49399609335613       -0.95103328045915
H           44.59036107067689       -4.26161282724549       -1.63464549490829
H           46.26784031410457       -4.01022663214494       -3.70476609932563
H           46.27911637531072       -6.29832939450028       -4.63155265995814
H           48.25998106596316       -7.71325570467155       -1.09693352964695
H           48.23756421067267       -5.42440656539051       -0.17229687000150
H           49.91125198579912       -4.15698296108346       -1.81118197984430
H           51.78406005202254       -2.38135545499424       -1.08645071753408
H           51.75212906557346        2.46359799493645        1.02183839200047
H           49.85667168030120        4.22122329130745        1.73036387028908
H           46.18204908090446        4.04147746284466        3.57582590551275
H           46.16216695290309        6.32736876441282        4.50755162905300
H           48.19291476198021        7.76363747236355        1.01019480001208
H           48.20032490872121        5.47709922297064        0.07962332424850
H           44.53650290421968        4.28209516107447        1.48921552979419
H           42.66344066267434        2.49771899623487        0.78707997376915

          :  Hamiltonian                  GFN1-xTB          :
         :: total energy            -318.889116310127 Eh    ::
         :: gradient norm              0.000908950287 Eh/a0 ::
         :: HOMO-LUMO gap              0.960755401701 eV    ::
         :: SCC energy              -324.373433409894 Eh    ::
         :: repulsion energy           5.651330263891 Eh    ::

    * Orbital Energies and Occupations

         #    Occupation            Energy/Eh            Energy/eV
      -------------------------------------------------------------
         1        2.0000           -0.7723894             -21.0178
       ...           ...                  ...                  ...
       281        2.0000           -0.4322432             -11.7619
       282        2.0000           -0.4319922             -11.7551
       283        2.0000           -0.4319680             -11.7544
       284        2.0000           -0.4317243             -11.7478
       285        2.0000           -0.4307752             -11.7220
       286        2.0000           -0.4299806             -11.7004
       287        2.0000           -0.4263900             -11.6027
       288        2.0000           -0.4058223             -11.0430
       289        2.0000           -0.4046363             -11.0107
       290        2.0000           -0.4046053             -11.0099
       291        2.0000           -0.4008856             -10.9087
       292        2.0000           -0.3938004             -10.7159
       293        2.0000           -0.3859644             -10.5026 (HOMO)
       294                         -0.3506573              -9.5419 (LUMO)
       295                         -0.3409591              -9.2780
       296                         -0.3397979              -9.2464
       297                         -0.3389769              -9.2240
       298                         -0.3389366              -9.2229
       299                         -0.3334293              -9.0731
       300                         -0.3145993              -8.5607
       301                         -0.3100828              -8.4378
       302                         -0.3089424              -8.4067
       303                         -0.3024900              -8.2312
       304                         -0.3018700              -8.2143
       ...                                ...                  ...
       624                          1.5084237              41.0463
      -------------------------------------------------------------
                  HL-Gap            0.0353071 Eh            0.9608 eV

Wiberg/Mayer (AO) data.
largest (>0.10) Wiberg bond orders for each atom

     #   Z sym  total        # sym  WBO       # sym  WBO       # sym  WBO
 ---------------------------------------------------------------------------
     1  30 Zn   1.994 --     7 N    0.459    41 N    0.459    20 N    0.456
                            27 N    0.455
     2   6 C    3.928 --     3 C    1.358    40 C    1.358    42 H    0.971
     3   6 C    3.921 --     2 C    1.358     7 N    1.232     4 C    1.170
     4   6 C    3.960 --     5 C    1.660     3 C    1.170    43 H    0.975
     5   6 C    3.963 --     4 C    1.660     6 C    1.171    44 H    0.973
     6   6 C    3.918 --     8 C    1.313     7 N    1.246     5 C    1.171
     7   7 N    3.293 --     6 C    1.246     3 C    1.232     1 Zn   0.459
     8   6 C    3.932 --    17 C    1.322     6 C    1.313     9 C    1.030
     9   6 C    3.963 --    16 C    1.385    10 C    1.385     8 C    1.030
    10   6 C    3.987 --    11 C    1.464     9 C    1.385    45 H    0.971
                            15 C    0.102
    11   6 C    3.993 --    10 C    1.464    12 C    1.364    46 H    0.972
                            16 C    0.102
    12   6 C    3.984 --    15 C    1.364    11 C    1.364    13 C    1.098
    13   6 C    3.957 --    14 N    2.819    12 C    1.098
    14   7 N    2.972 --    13 C    2.819
    15   6 C    3.993 --    16 C    1.464    12 C    1.364    47 H    0.972
                            10 C    0.102
    16   6 C    3.987 --    15 C    1.464     9 C    1.385    48 H    0.971
                            11 C    0.102
    17   6 C    3.912 --     8 C    1.322    20 N    1.226    18 C    1.179
    18   6 C    3.959 --    19 C    1.646    17 C    1.179    49 H    0.973
    19   6 C    3.962 --    18 C    1.646    21 C    1.186    50 H    0.974
    20   7 N    3.297 --    21 C    1.262    17 C    1.226     1 Zn   0.456
    21   6 C    3.902 --    20 N    1.262    22 C    1.254    19 C    1.186
    22   6 C    3.938 --    23 C    1.254    21 C    1.254   118 C    1.190
    23   6 C    3.902 --    27 N    1.263    22 C    1.254    24 C    1.186
    24   6 C    3.962 --    25 C    1.646    23 C    1.186    51 H    0.974
    25   6 C    3.959 --    24 C    1.646    26 C    1.178    52 H    0.973
    26   6 C    3.912 --    28 C    1.322    27 N    1.227    25 C    1.178
    27   7 N    3.296 --    23 C    1.263    26 C    1.227     1 Zn   0.455
    28   6 C    3.932 --    26 C    1.322    37 C    1.312    29 C    1.031
    29   6 C    3.963 --    36 C    1.385    30 C    1.385    28 C    1.031
    30   6 C    3.987 --    31 C    1.464    29 C    1.385    53 H    0.971
                            35 C    0.102
    31   6 C    3.993 --    30 C    1.464    32 C    1.364    54 H    0.972
                            36 C    0.102
    32   6 C    3.984 --    35 C    1.364    31 C    1.364    33 C    1.098
    33   6 C    3.957 --    34 N    2.819    32 C    1.098
    34   7 N    2.972 --    33 C    2.819
    35   6 C    3.993 --    36 C    1.464    32 C    1.364    55 H    0.972
                            30 C    0.102
    36   6 C    3.987 --    35 C    1.464    29 C    1.385    56 H    0.971
                            31 C    0.102
    37   6 C    3.918 --    28 C    1.312    41 N    1.246    38 C    1.171
    38   6 C    3.963 --    39 C    1.660    37 C    1.171    57 H    0.973
    39   6 C    3.960 --    38 C    1.660    40 C    1.170    58 H    0.975
    40   6 C    3.921 --     2 C    1.358    41 N    1.232    39 C    1.170
    41   7 N    3.293 --    37 C    1.246    40 C    1.232     1 Zn   0.459
    42   1 H    1.001 --     2 C    0.971
    43   1 H    0.998 --     4 C    0.975
    44   1 H    1.004 --     5 C    0.973
    45   1 H    1.004 --    10 C    0.971
    46   1 H    1.000 --    11 C    0.972
    47   1 H    1.000 --    15 C    0.972
    48   1 H    1.004 --    16 C    0.971
    49   1 H    1.004 --    18 C    0.973
    50   1 H    1.002 --    19 C    0.974
    51   1 H    1.002 --    24 C    0.974
    52   1 H    1.004 --    25 C    0.973
    53   1 H    1.004 --    30 C    0.971
    54   1 H    1.000 --    31 C    0.972
    55   1 H    1.000 --    35 C    0.972
    56   1 H    1.004 --    36 C    0.971
    57   1 H    1.004 --    38 C    0.973
    58   1 H    0.998 --    39 C    0.975
    59  30 Zn   1.995 --    65 N    0.460    99 N    0.459    78 N    0.456
                            85 N    0.455
    60   6 C    3.929 --    98 C    1.358    61 C    1.358   100 H    0.971
    61   6 C    3.921 --    60 C    1.358    65 N    1.232    62 C    1.170
    62   6 C    3.960 --    63 C    1.660    61 C    1.170   101 H    0.975
    63   6 C    3.963 --    62 C    1.660    64 C    1.171   102 H    0.973
    64   6 C    3.918 --    66 C    1.313    65 N    1.245    63 C    1.171
    65   7 N    3.294 --    64 C    1.245    61 C    1.232    59 Zn   0.460
    66   6 C    3.933 --    75 C    1.322    64 C    1.313    67 C    1.030
    67   6 C    3.963 --    74 C    1.385    68 C    1.385    66 C    1.030
    68   6 C    3.987 --    69 C    1.464    67 C    1.385   103 H    0.971
                            73 C    0.102
    69   6 C    3.993 --    68 C    1.464    70 C    1.364   104 H    0.972
                            74 C    0.102
    70   6 C    3.984 --    73 C    1.364    69 C    1.364    71 C    1.098
    71   6 C    3.957 --    72 N    2.819    70 C    1.098
    72   7 N    2.972 --    71 C    2.819
    73   6 C    3.993 --    74 C    1.464    70 C    1.364   105 H    0.972
                            68 C    0.102
    74   6 C    3.987 --    73 C    1.464    67 C    1.385   106 H    0.971
                            69 C    0.102
    75   6 C    3.913 --    66 C    1.322    78 N    1.227    76 C    1.178
    76   6 C    3.960 --    77 C    1.647    75 C    1.178   107 H    0.973
    77   6 C    3.962 --    76 C    1.647    79 C    1.185   108 H    0.974
    78   7 N    3.297 --    79 C    1.261    75 C    1.227    59 Zn   0.456
    79   6 C    3.903 --    78 N    1.261    80 C    1.257    77 C    1.185
    80   6 C    3.939 --    81 C    1.258    79 C    1.257   124 C    1.184
    81   6 C    3.903 --    85 N    1.261    80 C    1.258    82 C    1.185
    82   6 C    3.962 --    83 C    1.647    81 C    1.185   109 H    0.974
    83   6 C    3.960 --    82 C    1.647    84 C    1.178   110 H    0.973
    84   6 C    3.913 --    86 C    1.321    85 N    1.228    83 C    1.178
    85   7 N    3.297 --    81 C    1.261    84 C    1.228    59 Zn   0.455
    86   6 C    3.933 --    84 C    1.321    95 C    1.313    87 C    1.031
    87   6 C    3.963 --    94 C    1.385    88 C    1.385    86 C    1.031
    88   6 C    3.987 --    89 C    1.464    87 C    1.385   111 H    0.971
                            93 C    0.102
    89   6 C    3.993 --    88 C    1.464    90 C    1.363   112 H    0.972
                            94 C    0.102
    90   6 C    3.984 --    93 C    1.364    89 C    1.363    91 C    1.098
    91   6 C    3.957 --    92 N    2.819    90 C    1.098
    92   7 N    2.972 --    91 C    2.819
    93   6 C    3.993 --    94 C    1.464    90 C    1.364   113 H    0.972
                            88 C    0.102
    94   6 C    3.987 --    93 C    1.464    87 C    1.385   114 H    0.971
                            89 C    0.102
    95   6 C    3.918 --    86 C    1.313    99 N    1.246    96 C    1.171
    96   6 C    3.963 --    97 C    1.660    95 C    1.171   115 H    0.973
    97   6 C    3.960 --    96 C    1.660    98 C    1.170   116 H    0.975
    98   6 C    3.921 --    60 C    1.358    99 N    1.232    97 C    1.170
    99   7 N    3.294 --    95 C    1.246    98 C    1.232    59 Zn   0.459
   100   1 H    1.001 --    60 C    0.971
   101   1 H    0.998 --    62 C    0.975
   102   1 H    1.004 --    63 C    0.973
   103   1 H    1.004 --    68 C    0.971
   104   1 H    1.000 --    69 C    0.972
   105   1 H    1.000 --    73 C    0.972
   106   1 H    1.004 --    74 C    0.971
   107   1 H    1.004 --    76 C    0.973
   108   1 H    1.002 --    77 C    0.974
   109   1 H    1.002 --    82 C    0.974
   110   1 H    1.004 --    83 C    0.973
   111   1 H    1.004 --    88 C    0.971
   112   1 H    1.000 --    89 C    0.972
   113   1 H    1.000 --    93 C    0.972
   114   1 H    1.004 --    94 C    0.971
   115   1 H    1.004 --    96 C    0.973
   116   1 H    0.998 --    97 C    0.975
   117   6 C    3.934 --   118 C    2.474   119 C    1.309
   118   6 C    3.924 --   117 C    2.474    22 C    1.190   120 C    0.199
   119   6 C    3.932 --   120 C    2.473   117 C    1.309
   120   6 C    3.925 --   119 C    2.473   126 C    1.192   118 C    0.199
   121   6 C    3.931 --   122 C    2.479   123 C    1.303
   122   6 C    3.923 --   121 C    2.479   146 C    1.186   124 C    0.198
   123   6 C    3.934 --   124 C    2.480   121 C    1.303
   124   6 C    3.922 --   123 C    2.480    80 C    1.184   122 C    0.198
   125  30 Zn   1.992 --   165 N    0.456   131 N    0.456   144 N    0.456
                           151 N    0.456
   126   6 C    3.928 --   127 C    1.253   164 C    1.252   120 C    1.192
   127   6 C    3.902 --   131 N    1.262   126 C    1.253   128 C    1.188
   128   6 C    3.960 --   129 C    1.644   127 C    1.188   166 H    0.974
   129   6 C    3.960 --   128 C    1.644   130 C    1.181   167 H    0.973
   130   6 C    3.911 --   132 C    1.318   131 N    1.226   129 C    1.181
   131   7 N    3.292 --   127 C    1.262   130 C    1.226   125 Zn   0.456
   132   6 C    3.928 --   130 C    1.318   141 C    1.318   133 C    1.029
   133   6 C    3.963 --   140 C    1.386   134 C    1.385   132 C    1.029
   134   6 C    3.987 --   135 C    1.464   133 C    1.385   168 H    0.971
                           139 C    0.102
   135   6 C    3.993 --   134 C    1.464   136 C    1.364   169 H    0.972
                           140 C    0.102
   136   6 C    3.984 --   139 C    1.364   135 C    1.364   137 C    1.098
   137   6 C    3.958 --   138 N    2.819   136 C    1.098
   138   7 N    2.973 --   137 C    2.819
   139   6 C    3.993 --   140 C    1.463   136 C    1.364   170 H    0.972
                           134 C    0.102
   140   6 C    3.987 --   139 C    1.463   133 C    1.386   171 H    0.971
                           135 C    0.102
   141   6 C    3.911 --   132 C    1.318   144 N    1.227   142 C    1.180
   142   6 C    3.961 --   143 C    1.644   141 C    1.180   172 H    0.973
   143   6 C    3.960 --   142 C    1.644   145 C    1.187   173 H    0.974
   144   7 N    3.291 --   145 C    1.261   141 C    1.227   125 Zn   0.456
   145   6 C    3.903 --   144 N    1.261   146 C    1.255   143 C    1.187
   146   6 C    3.927 --   145 C    1.255   147 C    1.255   122 C    1.186
   147   6 C    3.903 --   151 N    1.261   146 C    1.255   148 C    1.187
   148   6 C    3.960 --   149 C    1.644   147 C    1.187   174 H    0.974
   149   6 C    3.961 --   148 C    1.644   150 C    1.181   175 H    0.973
   150   6 C    3.911 --   152 C    1.318   151 N    1.227   149 C    1.181
   151   7 N    3.291 --   147 C    1.261   150 C    1.227   125 Zn   0.456
   152   6 C    3.928 --   161 C    1.318   150 C    1.318   153 C    1.030
   153   6 C    3.963 --   160 C    1.385   154 C    1.385   152 C    1.030
   154   6 C    3.987 --   155 C    1.464   153 C    1.385   176 H    0.971
                           159 C    0.102
   155   6 C    3.993 --   154 C    1.464   156 C    1.364   177 H    0.972
                           160 C    0.102
   156   6 C    3.984 --   159 C    1.364   155 C    1.364   157 C    1.098
   157   6 C    3.957 --   158 N    2.819   156 C    1.098
   158   7 N    2.973 --   157 C    2.819
   159   6 C    3.993 --   160 C    1.464   156 C    1.364   178 H    0.972
                           154 C    0.102
   160   6 C    3.987 --   159 C    1.464   153 C    1.385   179 H    0.971
                           155 C    0.102
   161   6 C    3.911 --   152 C    1.318   165 N    1.226   162 C    1.181
   162   6 C    3.960 --   163 C    1.643   161 C    1.181   180 H    0.973
   163   6 C    3.960 --   162 C    1.643   164 C    1.188   181 H    0.974
   164   6 C    3.902 --   165 N    1.262   126 C    1.252   163 C    1.188
   165   7 N    3.292 --   164 C    1.262   161 C    1.226   125 Zn   0.456
   166   1 H    1.002 --   128 C    0.974
   167   1 H    1.004 --   129 C    0.973
   168   1 H    1.004 --   134 C    0.971
   169   1 H    1.000 --   135 C    0.972
   170   1 H    1.000 --   139 C    0.972
   171   1 H    1.004 --   140 C    0.971
   172   1 H    1.004 --   142 C    0.973
   173   1 H    1.002 --   143 C    0.974
   174   1 H    1.002 --   148 C    0.974
   175   1 H    1.004 --   149 C    0.973
   176   1 H    1.004 --   154 C    0.971
   177   1 H    1.000 --   155 C    0.972
   178   1 H    1.000 --   159 C    0.972
   179   1 H    1.004 --   160 C    0.971
   180   1 H    1.004 --   162 C    0.973
   181   1 H    1.002 --   163 C    0.974
 ---------------------------------------------------------------------------

           -------------------------------------------------
          | TOTAL ENERGY             -318.889116310127 Eh   |
          | GRADIENT NORM               0.000908950287 Eh/α |
          | HOMO-LUMO GAP               0.960755401701 eV   |
           -------------------------------------------------

 * finished run on 2022/07/30 at 16:27:18.209
