   * xtb version 6.5.1 (b24c23e) compiled by 'conda@728c89f4b128' on 2022-07-12
          program call               : xtb Cu_DHP_C4_3.xyz --gfn 1 --opt -T 48

   ID    Z sym.   atoms
    1   29 Cu     1, 59, 125
    2    6 C      2-6, 8-11, 13-17, 19-24, 26-29, 31-36, 60-64, 66-69, 71-75,
                  77-82, 84-87, 89-94, 117-124, 126-130, 132-135, 137-141,
                  143-148, 150-153, 155-160
    3    7 N      7, 12, 18, 25, 30, 37, 65, 70, 76, 83, 88, 95, 131, 136,
                  142, 149, 154, 161
    4    1 H      38-58, 96-116, 162-181
########################################################################
[WARNING] Please study the warnings concerning your input carefully
-1- prog_main_parseArguments: Unknown option '-T' provided
########################################################################

          :  Hamiltonian                  GFN1-xTB          :
 * total energy  :  -310.4257393 Eh     change       -0.1535818E-07 Eh
 * total energy  :  -310.6890755 Eh     change       -0.2633362E+00 Eh
 * total energy  :  -310.8453646 Eh     change       -0.1562891E+00 Eh
 * total energy  :  -310.9178941 Eh     change       -0.7252948E-01 Eh
 * total energy  :  -310.9716875 Eh     change       -0.5379338E-01 Eh
 * total energy  :  -311.0089813 Eh     change       -0.3729376E-01 Eh
 * total energy  :  -311.0345472 Eh     change       -0.2556590E-01 Eh
 * total energy  :  -311.0548825 Eh     change       -0.2033536E-01 Eh
 * total energy  :  -311.0745598 Eh     change       -0.1967732E-01 Eh
 * total energy  :  -311.0979249 Eh     change       -0.2336503E-01 Eh
 * total energy  :  -311.2622728 Eh     change       -0.2427799E-04 Eh
 * total energy  :  -311.2622973 Eh     change       -0.2449108E-04 Eh
 * total energy  :  -311.2623211 Eh     change       -0.2387582E-04 Eh
 * total energy  :  -311.2623261 Eh     change       -0.4938741E-05 Eh
 * total energy  :  -311.2623144 Eh     change        0.1168117E-04 Eh
 * total energy  :  -311.2623373 Eh     change       -0.2293540E-04 Eh
 * total energy  :  -311.2623404 Eh     change       -0.3060149E-05 Eh
 * total energy  :  -311.2623466 Eh     change       -0.6190371E-05 Eh
 * total energy  :  -311.2623500 Eh     change       -0.3405951E-05 Eh
   *** GEOMETRY OPTIMIZATION CONVERGED AFTER 99 ITERATIONS ***

 final structure:
================
181
 xtb: 6.5.1 (b24c23e)
Cu          27.82119359729473        0.41354469654455        0.26092452332472
C           24.42056983548962        0.28899667718497        0.12857412598910
C           25.08978053797107       -0.92581631498492        0.12399904906015
C           24.45031737733786       -2.21003679131253        0.10555937256601
C           25.43581178382657       -3.14192539273830        0.10798398919383
C           26.68756682806789       -2.43495452613140        0.11861573048250
N           26.44545336048360       -1.09099683942674        0.13443807921589
C           27.94891636463155       -3.03455009543290        0.13551659031189
C           28.01061902946389       -4.51536852051453        0.05589068779797
C           27.55014462637516       -5.17972950365602       -1.01438818484106
C           27.59288750003625       -6.68243766581289       -1.11421271386952
N           28.51736673068949       -7.25204786146949       -0.13020236334253
C           28.80235398937718       -6.57801812026539        1.02927608122050
C           28.60902444283046       -5.25365218763883        1.15908447533811
C           29.16048749099415       -2.34481069653473        0.21685669614784
C           30.45695304827868       -2.96023492161194        0.19224723203768
C           31.37375336393197       -1.96273902148427        0.27026453080885
N           29.30847893641489       -0.98569249419514        0.30215915195571
C           30.64549357762018       -0.73112484693474        0.33407935984636
C           31.24347678213451        0.53839888229134        0.40480861426206
C           30.55169893314035        1.76079004752966        0.41992158214486
C           31.18084200371213        3.04234146675134        0.53270000573383
C           30.19108300194893        3.97084787429734        0.51794320161673
C           28.94936884592730        3.26231885085139        0.38898589152857
N           29.20184958971393        1.91722935016166        0.33547523876765
C           27.68867459417768        3.86261374103746        0.35355084539042
C           27.63790782836346        5.34533776907747        0.39328108057511
C           27.03519208043731        6.00453470917304        1.39383392376657
C           26.95781907415992        7.50853543333527        1.44109979016562
N           27.92265280716517        8.11797148331899        0.52180816480708
C           28.36205967554582        7.43261924114878       -0.58141081651465
C           28.27957566228824        6.09406975273382       -0.67831312954809
C           26.47658565411341        3.17222295598616        0.28052133862447
C           25.17959414081411        3.78485946832980        0.18291647427000
C           24.26711030250925        2.78299012931340        0.12697350830189
C           24.99777317037993        1.54928765540979        0.17614489690529
N           26.33456748438677        1.81379286583909        0.26772901017521
H           23.33681350519969        0.24967375032283        0.08683652670495
H           23.38266014154231       -2.36476784090837        0.10144941599378
H           25.33189324659195       -4.21505639022090        0.11562241692412
H           27.10821727432734       -4.66443301025943       -1.85927634058001
H           27.93282904275524       -6.98555149878527       -2.11373556957133
H           26.57995917820745       -7.10409055317420       -0.97221877405922
H           28.46888884080928       -8.25822496269144       -0.06045466655103
H           29.27367926886113       -7.17919540596174        1.80031388609486
H           28.88672547456617       -4.72918650939787        2.06232382536371
H           30.63824191217399       -4.02014039226003        0.11568856683058
H           32.44906272954651       -2.04316826196323        0.27596957268123
H           32.24409729981243        3.20019812340638        0.61940156665125
H           30.28775195300848        5.04161593016374        0.59731350020124
H           26.55675415678425        5.48313418095448        2.21473635593920
H           27.18212320458421        7.86741440767609        2.45468973905361
H           25.93340978948168        7.84609358203931        1.19473610404978
H           27.80485853674961        9.11454611833579        0.40952847505570
H           28.85644974332887        8.04428349947244       -1.32940005981064
H           28.67723552384635        5.56520235765697       -1.53284050372869
H           24.99814628438848        4.84707943022033        0.14885217870212
H           23.19389937476917        2.85861623293137        0.04728294637777
Cu          54.75018701445006        0.31871602426443        0.24621317406764
C           58.15213410626626        0.33435370046363        0.10351986792651
C           57.53118910710324        1.55644544653497        0.31509207970049
C           58.22050207493410        2.79825305490103        0.51851497670256
C           57.27226852329885        3.75334119400177        0.68666816256233
C           55.99368431281000        3.10558648996687        0.57443819819670
N           56.18309167251306        1.77032822711070        0.35889331844284
C           54.75601373199852        3.74385484182282        0.68221011746633
C           54.75063915596351        5.21625203081437        0.86838093012625
C           55.25873090767536        6.04580262727287       -0.05488476175954
C           55.27623562786907        7.54179603129135        0.12337853778194
N           54.35563587267765        7.95997675674209        1.18403246898532
C           54.01851494726233        7.09663505343765        2.19441643936326
C           54.15649764170733        5.76409341719252        2.07970821650865
C           53.51785119164180        3.09999110563297        0.62827470887593
C           52.24629504734718        3.76389484755967        0.68051848315403
C           51.29107559363497        2.80415295658951        0.59061576229680
N           53.31699927232425        1.75161399192831        0.49754581228317
C           51.97093904824739        1.54850967033627        0.47750549904343
C           51.32546521233621        0.30421677768010        0.38240470147465
C           51.97081084789571       -0.93502413274749        0.23883417063298
C           51.29468224116073       -2.19619650969245        0.17974476405055
C           52.24791551817380       -3.14802720447904        0.01419832569619
C           53.51409367497497       -2.47349473535491       -0.03553495533829
N           53.31288098783082       -1.12696491358091        0.11227796150196
C           54.74962360164810       -3.10597044518199       -0.19247411334817
C           54.74404797710174       -4.57772544687107       -0.38330292553569
C           55.34245680308037       -5.40469549071689        0.48676435499597
C           55.36550418538015       -6.89937734556721        0.29802320971811
N           54.36080104204011       -7.32594402345588       -0.67981872468876
C           53.92427085430792       -6.46230798430585       -1.65131937960859
C           54.05310117951377       -5.12849735572684       -1.54086277832788
C           55.98627457503740       -2.45627402011131       -0.18714042482550
C           57.25691259609344       -3.09189632646679       -0.40786486412223
C           58.20717727826915       -2.12830559524871       -0.31841402185995
C           57.52620317516348       -0.89312910643570       -0.05567540097238
N           56.18116051645761       -1.11950630113654        0.01394985679919
H           59.23642473321796        0.33906761717365        0.05755506509020
H           59.29340425901776        2.90933443367494        0.53854650361604
H           57.41836512603430        4.80369670943511        0.88124966532342
H           55.69885671438018        5.67649163692472       -0.97384205173587
H           54.96849410132994        8.03743387004516       -0.80728562224893
H           56.30185719445914        7.88704368000679        0.35313398941224
H           54.44407430687528        8.93271858149050        1.44007576216464
H           53.55453106704717        7.56504682773311        3.05656956182307
H           53.83766284819135        5.09454441182758        2.86589561164181
H           52.10712895386943        4.82949919160364        0.76584242497894
H           50.21966694482272        2.92610341006495        0.59481403688222
H           50.22724593517433       -2.32624799216625        0.26108175506730
H           52.11143553321812       -4.21485231207914       -0.05983464109270
H           55.85712832659358       -5.03387657431222        1.36555177958716
H           55.14876822032711       -7.40445816347847        1.24901874969948
H           56.37176263816116       -7.22785887773065       -0.02387845453721
H           54.44170526152886       -8.29557684907389       -0.94992422543667
H           53.39298228805612       -6.93307023111167       -2.47240801746372
H           53.65751245241711       -4.45997293790810       -2.29229903267912
H           57.39630140057174       -4.14044575294698       -0.61643636552263
H           59.27552673739329       -2.22940083926263       -0.42911308952679
C           33.87104084185987        0.60741816312647        0.49219572601680
C           32.65069172930115        0.58556775631817        0.45550782735668
C           35.22248786602155        0.62436867204823        0.52443779104268
C           36.44359614459469        0.62329018988830        0.54585611705920
C           47.34516740693692        0.35867752380399        0.49980204344346
C           46.12505534756504        0.39983015892367        0.52507188307694
C           48.69666118308424        0.32702897776632        0.46690990858068
C           49.91698266186726        0.30554111607959        0.43067211676950
Cu          41.28525189946532        0.54970999832895        0.56678900940251
C           37.85182330223900        0.61204415662195        0.55968816717575
C           38.51463023713347        1.40187748970310       -0.39538894039476
C           37.85410972691997        2.25271225833176       -1.33906696580447
C           38.82240611017590        2.83328493583933       -2.09275152911297
C           40.08133102623859        2.33249229743309       -1.61943756079444
N           39.86123876126521        1.46885095471690       -0.57949482914653
C           41.32839631681835        2.68521428416912       -2.13765196763934
C           41.35341817697376        3.59520738304516       -3.31036516471746
C           40.82129163715436        3.23637532742493       -4.48820076126226
C           40.88465993209202        4.12087059956605       -5.70561490963373
N           41.19987008807812        5.50376874604968       -5.33786233813182
C           41.88538177106288        5.78092219195085       -4.18360453525507
C           41.96975339681070        4.90593477605548       -3.16589352557545
C           42.55870253010492        2.24409126284136       -1.64649976791216
C           43.83297310001010        2.56113840509544       -2.22524526847832
C           44.77706249902077        1.93521142645066       -1.47718465196143
N           42.74517160772023        1.42681415193400       -0.56387159127674
C           44.08601888265563        1.22735232697083       -0.44146408865392
C           44.71729636418947        0.44946783297244        0.54384807314371
C           44.05603058390160       -0.28047493501121        1.54608674345296
C           44.72038911999143       -1.01140909810682        2.58262549167034
C           43.75315103024651       -1.56664898527983        3.35648323922944
C           42.49022769918580       -1.18946407566154        2.78843327146416
N           42.70797845103478       -0.39865210498931        1.69162950705065
C           41.24183572414654       -1.56526582081774        3.28874636183812
C           41.21400783707814       -2.46718563940625        4.46731020198603
C           41.72490808145820       -3.70631255019661        4.42191517627508
C           41.71828886686162       -4.62851495234722        5.61332515089194
N           40.77806567159042       -4.16568891934149        6.63786633403197
C           40.43672748766981       -2.84039122893916        6.72280714401883
C           40.59321594878838       -1.98836068208236        5.69450433518155
C           40.01110869524757       -1.15978287475267        2.76791807593650
C           38.73311461063686       -1.60815286825786        3.24279771270852
C           37.78914808820564       -1.00750584147586        2.47454671983002
C           38.48321789937550       -0.19115253995250        1.52422251326602
N           39.82610753464006       -0.30101756531722        1.71755493243124
H           36.78623889485119        2.38825702149416       -1.40352405840263
H           38.70101662252204        3.54641744503032       -2.89202779438314
H           40.38103577831388        2.25772375125062       -4.64045932104770
H           41.63763511381435        3.73605764875858       -6.41924690304417
H           39.91642752191671        4.11957963716177       -6.22450909043441
H           41.39432162478318        6.10206179777021       -6.12769256345920
H           42.28045688194697        6.79000077734355       -4.12183497632633
H           42.44869404001773        5.17052507677832       -2.23387386229339
H           43.98083486812741        3.17484485900955       -3.09937059054187
H           45.84706655597149        1.94040004589173       -1.61112845003018
H           45.79019917218368       -1.07543210867542        2.70226577558132
H           43.88015631034719       -2.16832244387740        4.24179955545734
H           42.18520137971323       -4.10160717847419        3.52387798928278
H           42.73575018823323       -4.70768522479287        6.04021679609246
H           41.41582675505247       -5.63925119295343        5.30754782348082
H           40.85334239780050       -4.66280019460616        7.51366652053274
H           39.95395473725598       -2.55420055400023        7.65182550147234
H           40.27050867707920       -0.95902583869599        5.76095806975407
H           38.58252525279728       -2.30203935200908        4.05401237320076
H           36.71693865708470       -1.10532884055340        2.53514367650687

          :  Hamiltonian                  GFN1-xTB          :
         :: total energy            -311.262349981023 Eh    ::
         :: gradient norm              0.000496166003 Eh/a0 ::
         :: HOMO-LUMO gap              0.001110151853 eV    ::
         :: SCC energy              -316.011645537644 Eh    ::
         :: repulsion energy           4.909774856542 Eh    ::

    * Orbital Energies and Occupations

         #    Occupation            Energy/Eh            Energy/eV
      -------------------------------------------------------------
         1        2.0000           -0.7784102             -21.1816
       ...           ...                  ...                  ...
       277        2.0000           -0.3864469             -10.5158
       278        2.0000           -0.3861255             -10.5070
       279        2.0000           -0.3810391             -10.3686
       280        2.0000           -0.3779276             -10.2839
       281        2.0000           -0.3726678             -10.1408
       282        2.0000           -0.3685477             -10.0287
       283        2.0000           -0.3684202             -10.0252
       284        2.0000           -0.3678895             -10.0108
       285        2.0000           -0.3674287              -9.9982
       286        2.0000           -0.3673110              -9.9950
       287        2.0000           -0.3659975              -9.9593
       288        1.0244           -0.3468399              -9.4380
       289        0.9973           -0.3467819              -9.4364 (HOMO)
       290        0.9782           -0.3467411              -9.4353 (LUMO)
       291                         -0.3290241              -8.9532
       292                         -0.3226134              -8.7788
       293                         -0.3182809              -8.6609
       294                         -0.3181444              -8.6571
       295                         -0.3180055              -8.6534
       296                         -0.3173240              -8.6348
       297                         -0.2911866              -7.9236
       298                         -0.2856635              -7.7733
       299                         -0.2843093              -7.7364
       300                         -0.2629598              -7.1555
       ...                                ...                  ...
       615                          1.5267823              41.5459
      -------------------------------------------------------------
                  HL-Gap            0.0000408 Eh            0.0011 eV

Wiberg/Mayer (AO) data.
largest (>0.10) Wiberg bond orders for each atom

     #   Z sym  total        # sym  WBO       # sym  WBO       # sym  WBO
 ---------------------------------------------------------------------------
     1  29 Cu   2.192 --    37 N    0.506     7 N    0.506    18 N    0.504
                            25 N    0.504
     2   6 C    3.929 --     3 C    1.361    36 C    1.361    38 H    0.971
     3   6 C    3.920 --     2 C    1.361     7 N    1.230     4 C    1.172
     4   6 C    3.955 --     5 C    1.654     3 C    1.172    39 H    0.976
     5   6 C    3.958 --     4 C    1.654     6 C    1.173    40 H    0.974
     6   6 C    3.914 --     8 C    1.320     7 N    1.237     5 C    1.173
     7   7 N    3.244 --     6 C    1.237     3 C    1.230     1 Cu   0.506
     8   6 C    3.936 --    15 C    1.325     6 C    1.320     9 C    1.024
     9   6 C    3.988 --    10 C    1.769    14 C    1.098     8 C    1.024
    10   6 C    3.972 --     9 C    1.769    11 C    1.013    41 H    0.972
    11   6 C    3.961 --    10 C    1.013    42 H    0.976    43 H    0.966
                            12 N    0.949
    12   7 N    3.247 --    13 C    1.160    11 C    0.949    44 H    0.928
                            14 C    0.127
    13   6 C    3.958 --    14 C    1.692    12 N    1.160    45 H    0.971
    14   6 C    3.968 --    13 C    1.692     9 C    1.098    46 H    0.974
                            12 N    0.127
    15   6 C    3.907 --     8 C    1.325    18 N    1.223    16 C    1.180
    16   6 C    3.956 --    17 C    1.643    15 C    1.180    47 H    0.972
    17   6 C    3.957 --    16 C    1.643    19 C    1.186    48 H    0.974
    18   7 N    3.249 --    19 C    1.254    15 C    1.223     1 Cu   0.504
    19   6 C    3.900 --    20 C    1.264    18 N    1.254    17 C    1.186
    20   6 C    3.939 --    21 C    1.265    19 C    1.264   118 C    1.175
    21   6 C    3.901 --    20 C    1.265    25 N    1.253    22 C    1.186
    22   6 C    3.957 --    23 C    1.643    21 C    1.186    49 H    0.974
    23   6 C    3.956 --    22 C    1.643    24 C    1.180    50 H    0.972
    24   6 C    3.907 --    26 C    1.324    25 N    1.224    23 C    1.180
    25   7 N    3.249 --    21 C    1.253    24 C    1.224     1 Cu   0.504
    26   6 C    3.936 --    24 C    1.324    33 C    1.321    27 C    1.025
    27   6 C    3.988 --    28 C    1.769    32 C    1.097    26 C    1.025
    28   6 C    3.971 --    27 C    1.769    29 C    1.013    51 H    0.972
    29   6 C    3.961 --    28 C    1.013    52 H    0.976    53 H    0.966
                            30 N    0.949
    30   7 N    3.247 --    31 C    1.160    29 C    0.949    54 H    0.928
                            32 C    0.127
    31   6 C    3.958 --    32 C    1.693    30 N    1.160    55 H    0.971
    32   6 C    3.968 --    31 C    1.693    27 C    1.097    56 H    0.974
                            30 N    0.127
    33   6 C    3.914 --    26 C    1.321    37 N    1.237    34 C    1.173
    34   6 C    3.958 --    35 C    1.654    33 C    1.173    57 H    0.974
    35   6 C    3.955 --    34 C    1.654    36 C    1.172    58 H    0.976
    36   6 C    3.920 --     2 C    1.361    37 N    1.230    35 C    1.172
    37   7 N    3.244 --    33 C    1.237    36 C    1.230     1 Cu   0.506
    38   1 H    1.002 --     2 C    0.971
    39   1 H    0.998 --     4 C    0.976
    40   1 H    1.007 --     5 C    0.974
    41   1 H    1.003 --    10 C    0.972
    42   1 H    1.019 --    11 C    0.976
    43   1 H    1.008 --    11 C    0.966
    44   1 H    0.964 --    12 N    0.928
    45   1 H    1.001 --    13 C    0.971
    46   1 H    1.003 --    14 C    0.974
    47   1 H    1.006 --    16 C    0.972
    48   1 H    1.002 --    17 C    0.974
    49   1 H    1.002 --    22 C    0.974
    50   1 H    1.006 --    23 C    0.972
    51   1 H    1.003 --    28 C    0.972
    52   1 H    1.019 --    29 C    0.976
    53   1 H    1.008 --    29 C    0.966
    54   1 H    0.964 --    30 N    0.928
    55   1 H    1.001 --    31 C    0.971
    56   1 H    1.003 --    32 C    0.974
    57   1 H    1.007 --    34 C    0.974
    58   1 H    0.998 --    35 C    0.976
    59  29 Cu   2.190 --    95 N    0.506    65 N    0.505    76 N    0.504
                            83 N    0.503
    60   6 C    3.929 --    94 C    1.361    61 C    1.361    96 H    0.971
    61   6 C    3.920 --    60 C    1.361    65 N    1.230    62 C    1.172
    62   6 C    3.956 --    63 C    1.654    61 C    1.172    97 H    0.976
    63   6 C    3.958 --    62 C    1.654    64 C    1.173    98 H    0.974
    64   6 C    3.914 --    66 C    1.321    65 N    1.237    63 C    1.173
    65   7 N    3.244 --    64 C    1.237    61 C    1.230    59 Cu   0.505
    66   6 C    3.936 --    73 C    1.324    64 C    1.321    67 C    1.025
    67   6 C    3.988 --    68 C    1.769    72 C    1.097    66 C    1.025
    68   6 C    3.972 --    67 C    1.769    69 C    1.013    99 H    0.972
    69   6 C    3.961 --    68 C    1.013   100 H    0.976   101 H    0.967
                            70 N    0.949
    70   7 N    3.247 --    71 C    1.160    69 C    0.949   102 H    0.928
                            72 C    0.127
    71   6 C    3.958 --    72 C    1.693    70 N    1.160   103 H    0.971
    72   6 C    3.968 --    71 C    1.693    67 C    1.097   104 H    0.974
                            70 N    0.127
    73   6 C    3.907 --    66 C    1.324    76 N    1.224    74 C    1.180
    74   6 C    3.956 --    75 C    1.643    73 C    1.180   105 H    0.973
    75   6 C    3.957 --    74 C    1.643    77 C    1.186   106 H    0.974
    76   7 N    3.248 --    77 C    1.253    73 C    1.224    59 Cu   0.504
    77   6 C    3.901 --    78 C    1.265    76 N    1.253    75 C    1.186
    78   6 C    3.939 --    79 C    1.266    77 C    1.265   124 C    1.174
    79   6 C    3.901 --    78 C    1.266    83 N    1.253    80 C    1.186
    80   6 C    3.957 --    81 C    1.643    79 C    1.186   107 H    0.974
    81   6 C    3.956 --    80 C    1.643    82 C    1.180   108 H    0.973
    82   6 C    3.908 --    84 C    1.324    83 N    1.224    81 C    1.180
    83   7 N    3.248 --    79 C    1.253    82 C    1.224    59 Cu   0.503
    84   6 C    3.936 --    82 C    1.324    91 C    1.320    85 C    1.025
    85   6 C    3.988 --    86 C    1.768    90 C    1.097    84 C    1.025
    86   6 C    3.971 --    85 C    1.768    87 C    1.013   109 H    0.972
    87   6 C    3.961 --    86 C    1.013   110 H    0.976   111 H    0.966
                            88 N    0.949
    88   7 N    3.247 --    89 C    1.160    87 C    0.949   112 H    0.928
                            90 C    0.127
    89   6 C    3.958 --    90 C    1.693    88 N    1.160   113 H    0.971
    90   6 C    3.968 --    89 C    1.693    85 C    1.097   114 H    0.974
                            88 N    0.127
    91   6 C    3.914 --    84 C    1.320    95 N    1.237    92 C    1.173
    92   6 C    3.958 --    93 C    1.654    91 C    1.173   115 H    0.974
    93   6 C    3.956 --    92 C    1.654    94 C    1.172   116 H    0.976
    94   6 C    3.920 --    60 C    1.361    95 N    1.230    93 C    1.172
    95   7 N    3.244 --    91 C    1.237    94 C    1.230    59 Cu   0.506
    96   1 H    1.002 --    60 C    0.971
    97   1 H    0.998 --    62 C    0.976
    98   1 H    1.007 --    63 C    0.974
    99   1 H    1.003 --    68 C    0.972
   100   1 H    1.019 --    69 C    0.976
   101   1 H    1.008 --    69 C    0.967
   102   1 H    0.964 --    70 N    0.928
   103   1 H    1.001 --    71 C    0.971
   104   1 H    1.003 --    72 C    0.974
   105   1 H    1.006 --    74 C    0.973
   106   1 H    1.002 --    75 C    0.974
   107   1 H    1.002 --    80 C    0.974
   108   1 H    1.006 --    81 C    0.973
   109   1 H    1.003 --    86 C    0.972
   110   1 H    1.019 --    87 C    0.976
   111   1 H    1.008 --    87 C    0.966
   112   1 H    0.964 --    88 N    0.928
   113   1 H    1.001 --    89 C    0.971
   114   1 H    1.003 --    90 C    0.974
   115   1 H    1.007 --    92 C    0.974
   116   1 H    0.998 --    93 C    0.976
   117   6 C    3.935 --   118 C    2.489   119 C    1.297
   118   6 C    3.921 --   117 C    2.489    20 C    1.175   120 C    0.198
   119   6 C    3.932 --   120 C    2.487   117 C    1.297
   120   6 C    3.922 --   119 C    2.487   126 C    1.177   118 C    0.198
   121   6 C    3.932 --   122 C    2.489   123 C    1.295
   122   6 C    3.921 --   121 C    2.489   144 C    1.176   124 C    0.197
   123   6 C    3.934 --   124 C    2.490   121 C    1.295
   124   6 C    3.920 --   123 C    2.490    78 C    1.174   122 C    0.197
   125  29 Cu   2.171 --   161 N    0.501   142 N    0.501   131 N    0.500
                           149 N    0.500
   126   6 C    3.929 --   160 C    1.264   127 C    1.261   120 C    1.177
   127   6 C    3.903 --   126 C    1.261   131 N    1.257   128 C    1.187
   128   6 C    3.956 --   129 C    1.641   127 C    1.187   162 H    0.974
   129   6 C    3.956 --   128 C    1.641   130 C    1.181   163 H    0.974
   130   6 C    3.907 --   132 C    1.325   131 N    1.222   129 C    1.181
   131   7 N    3.242 --   127 C    1.257   130 C    1.222   125 Cu   0.500
   132   6 C    3.932 --   130 C    1.325   139 C    1.322   133 C    1.023
   133   6 C    3.988 --   134 C    1.768   138 C    1.099   132 C    1.023
   134   6 C    3.972 --   133 C    1.768   135 C    1.013   164 H    0.972
   135   6 C    3.961 --   134 C    1.013   166 H    0.975   165 H    0.967
                           136 N    0.949
   136   7 N    3.249 --   137 C    1.161   135 C    0.949   167 H    0.928
                           138 C    0.127
   137   6 C    3.958 --   138 C    1.691   136 N    1.161   168 H    0.971
   138   6 C    3.967 --   137 C    1.691   133 C    1.099   169 H    0.973
                           136 N    0.127
   139   6 C    3.906 --   132 C    1.322   142 N    1.224   140 C    1.182
   140   6 C    3.957 --   141 C    1.641   139 C    1.182   170 H    0.973
   141   6 C    3.955 --   140 C    1.641   143 C    1.187   171 H    0.974
   142   7 N    3.242 --   143 C    1.255   139 C    1.224   125 Cu   0.501
   143   6 C    3.902 --   144 C    1.263   142 N    1.255   141 C    1.187
   144   6 C    3.929 --   143 C    1.263   145 C    1.263   122 C    1.176
   145   6 C    3.904 --   144 C    1.263   149 N    1.256   146 C    1.188
   146   6 C    3.956 --   147 C    1.640   145 C    1.188   172 H    0.974
   147   6 C    3.957 --   146 C    1.640   148 C    1.181   173 H    0.974
   148   6 C    3.907 --   150 C    1.323   149 N    1.223   147 C    1.181
   149   7 N    3.242 --   145 C    1.256   148 C    1.223   125 Cu   0.500
   150   6 C    3.932 --   148 C    1.323   157 C    1.323   151 C    1.024
   151   6 C    3.988 --   152 C    1.769   156 C    1.097   150 C    1.024
   152   6 C    3.972 --   151 C    1.769   153 C    1.013   174 H    0.972
   153   6 C    3.961 --   152 C    1.013   176 H    0.976   175 H    0.966
                           154 N    0.949
   154   7 N    3.247 --   155 C    1.160   153 C    0.949   177 H    0.928
                           156 C    0.127
   155   6 C    3.958 --   156 C    1.693   154 N    1.160   178 H    0.971
   156   6 C    3.968 --   155 C    1.693   151 C    1.097   179 H    0.974
                           154 N    0.127
   157   6 C    3.905 --   150 C    1.323   161 N    1.223   158 C    1.181
   158   6 C    3.957 --   159 C    1.642   157 C    1.181   180 H    0.973
   159   6 C    3.956 --   158 C    1.642   160 C    1.186   181 H    0.974
   160   6 C    3.901 --   126 C    1.264   161 N    1.255   159 C    1.186
   161   7 N    3.242 --   160 C    1.255   157 C    1.223   125 Cu   0.501
   162   1 H    1.002 --   128 C    0.974
   163   1 H    1.007 --   129 C    0.974
   164   1 H    1.003 --   134 C    0.972
   165   1 H    1.009 --   135 C    0.967
   166   1 H    1.018 --   135 C    0.975
   167   1 H    0.964 --   136 N    0.928
   168   1 H    1.002 --   137 C    0.971
   169   1 H    1.003 --   138 C    0.973
   170   1 H    1.005 --   140 C    0.973
   171   1 H    1.002 --   141 C    0.974
   172   1 H    1.002 --   146 C    0.974
   173   1 H    1.007 --   147 C    0.974
   174   1 H    1.003 --   152 C    0.972
   175   1 H    1.008 --   153 C    0.966
   176   1 H    1.019 --   153 C    0.976
   177   1 H    0.964 --   154 N    0.928
   178   1 H    1.001 --   155 C    0.971
   179   1 H    1.003 --   156 C    0.974
   180   1 H    1.006 --   158 C    0.973
   181   1 H    1.002 --   159 C    0.974
 ---------------------------------------------------------------------------

           -------------------------------------------------
          | TOTAL ENERGY             -311.262349981023 Eh   |
          | GRADIENT NORM               0.000496166003 Eh/α |
          | HOMO-LUMO GAP               0.001110151853 eV   |
           -------------------------------------------------

 * finished run on 2022/07/30 at 05:41:54.812
