   * xtb version 6.5.1 (b24c23e) compiled by 'conda@728c89f4b128' on 2022-07-12
          program call               : xtb Cu_PhNH2_C6_2.xyz --gfn 1 --opt -T 48

   ID    Z sym.   atoms
    1   29 Cu     1, 61
    2    6 C      2-6, 8-12, 14-18, 20-25, 27-31, 33-38, 62-66, 68-72, 74-78,
                  80-85, 87-91, 93-98, 121-126
    3    7 N      7, 13, 19, 26, 32, 39, 67, 73, 79, 86, 92, 99
    4    1 H      40-60, 100-120
########################################################################
[WARNING] Please study the warnings concerning your input carefully
-1- prog_main_parseArguments: Unknown option '-T' provided
########################################################################

          :  Hamiltonian                  GFN1-xTB          :
 * total energy  :  -217.6710821 Eh     change       -0.7685458E-08 Eh
 * total energy  :  -217.7965497 Eh     change       -0.1254675E+00 Eh
 * total energy  :  -217.8489883 Eh     change       -0.5243866E-01 Eh
 * total energy  :  -217.8601230 Eh     change       -0.1113465E-01 Eh
 * total energy  :  -217.8651300 Eh     change       -0.5006994E-02 Eh
 * total energy  :  -217.8679324 Eh     change       -0.2802411E-02 Eh
 * total energy  :  -217.8695376 Eh     change       -0.1605246E-02 Eh
 * total energy  :  -217.8707554 Eh     change       -0.1217782E-02 Eh
 * total energy  :  -217.8718307 Eh     change       -0.1075229E-02 Eh
 * total energy  :  -217.8732542 Eh     change       -0.1423513E-02 Eh
 * total energy  :  -217.8794891 Eh     change       -0.4386200E-04 Eh
 * total energy  :  -217.8795095 Eh     change       -0.2042245E-04 Eh
 * total energy  :  -217.8795268 Eh     change       -0.1724817E-04 Eh
 * total energy  :  -217.8795361 Eh     change       -0.9277568E-05 Eh
 * total energy  :  -217.8795426 Eh     change       -0.6575513E-05 Eh
 * total energy  :  -217.8795498 Eh     change       -0.7142953E-05 Eh
 * total energy  :  -217.8795575 Eh     change       -0.7722510E-05 Eh
 * total energy  :  -217.8795645 Eh     change       -0.6978785E-05 Eh
 * total energy  :  -217.8795691 Eh     change       -0.4660928E-05 Eh
   *** GEOMETRY OPTIMIZATION CONVERGED AFTER 38 ITERATIONS ***

 final structure:
================
126
 xtb: 6.5.1 (b24c23e)
Cu          14.09062260383422        0.02920112960023       -0.00900984835464
C           10.68751959993195        0.11688081861706        0.09115819936546
C           11.32450994095620        1.22293156393538       -0.45171849078967
C           10.65143702371045        2.35625475623528       -1.01759966573734
C           11.61229283728520        3.21620438363520       -1.43875304748704
C           12.88181656887479        2.62156800073837       -1.12070497779006
N           12.67568340939066        1.40846282631341       -0.52965289097587
C           14.12802771934586        3.19450629940746       -1.39232794686610
C           14.14520993591501        4.55446648607588       -1.98173869421839
C           14.74692182492630        4.78760488766053       -3.22095208877150
C           14.76588937380412        6.05580880532874       -3.77370347028980
C           14.19255712486751        7.12883491236086       -3.08651395658076
N           14.17642703282941        8.39171464743388       -3.65287738495891
C           13.58362382347045        6.90345968458716       -1.84928913301144
C           13.56110570736814        5.63021813628148       -1.30824154457912
C           15.35878244154601        2.58076845184062       -1.14643190069956
C           16.63875112235579        3.19667529166393       -1.35255028939247
C           17.58149042557344        2.28791899113891       -0.99442086869031
N           15.54287754250478        1.31519195690858       -0.65448274699632
C           16.88539920940326        1.11557689745082       -0.55797266469220
C           17.51689819562081       -0.05645365428790       -0.10378417070663
C           16.85382849022722       -1.19755386187560        0.38244893342627
C           17.51352775981913       -2.40378418993982        0.78112017405009
C           16.54770401939070       -3.26491003758805        1.19192652972456
C           15.29066810406131       -2.58530878689620        1.05689270186291
N           15.51025494182995       -1.33012475792576        0.55294540709791
C           14.04642904203766       -3.13565646406570        1.37471946780776
C           14.02650785165442       -4.49579657335199        1.96378962096224
C           14.68356954771710       -4.76333903448627        3.16736633056663
C           14.66503097542672       -6.03188585616076        3.71954484791243
C           13.99685242853030       -7.07106822197849        3.06695384619032
N           13.94434061727174       -8.33250614141853        3.63483408391853
C           13.33234177504053       -6.81090587772176        1.86569601616659
C           13.34822676490683       -5.53727410569774        1.32545677588217
C           12.81737395355359       -2.49910835670862        1.17590248102557
C           11.53985677625151       -3.02798235036845        1.56945479725675
C           10.60130662365676       -2.11927522854983        1.20408040522392
C           11.29721754184135       -1.02140617407498        0.59746518737169
N           12.63930185553516       -1.27631892506954        0.59599271325539
H            9.60304867834462        0.14506265534197        0.12295747268017
H            9.58025673616352        2.46184638373664       -1.08963736316402
H           11.47920755930262        4.16383454796436       -1.93548256921529
H           15.18616640299275        3.95843914895277       -3.76489795819208
H           15.22697920476108        6.22184928770153       -4.74125536696186
H           14.88985195784078        8.55768442828465       -4.34454179795359
H           14.05719757363002        9.14993011863507       -3.00025785720594
H           13.13322941295322        7.73161286562875       -1.31291663669432
H           13.10370839731037        5.46742921746201       -0.33834417857713
H           16.79392287210736        4.20260553832617       -1.70773936410975
H           18.65412986345654        2.39707914972712       -1.01182337128780
H           18.57874836138341       -2.56615859720114        0.73838165632316
H           16.67153307017680       -4.27777008948500        1.53962501809422
H           15.19651607251167       -3.96016205742195        3.68516483909717
H           15.16998450667611       -6.22443876549995        4.65991515867142
H           14.68792762005120       -8.53875384744690        4.28269702980292
H           13.74695958923883       -9.08131135869168        2.99013727039374
H           12.80825680292246       -7.61246301082540        1.35650662413354
H           12.84615699066651       -5.34789006078599        0.38286505211107
H           11.38755254175789       -3.96795979554942        2.07511504651003
H            9.53225421083932       -2.16989368813401        1.33950354023841
Cu          30.11864045990708       -0.02422306245251        0.01958035736114
C           33.52172670795859        0.01217281112094        0.15046047800484
C           32.88466516170049       -1.05061911935069        0.77370713284598
C           33.55771169450163       -2.14675938454775        1.40868299736445
C           32.59682520532539       -2.97345466688040        1.89177158483995
C           31.32727494755063       -2.38182627788002        1.56824686164666
N           31.53347323605793       -1.21941040129658        0.88288604197377
C           30.08107443789858       -2.92646844997624        1.89279442903892
C           30.06389085772099       -4.16925456770552        2.70064531246298
C           29.46749335193713       -5.33266514231048        2.20795032650197
C           29.44859333350069       -6.49398859480752        2.95979346749960
C           30.01644837193124       -6.51214821792744        4.23630931356093
N           30.03256651043143       -7.68174471711984        4.97650984184288
C           30.62009039930554       -5.35463622667663        4.73436226519145
C           30.64271821762811       -4.20031808716523        3.97183878834954
C           28.85038343693054       -2.38389363739427        1.51490045269057
C           27.57034505301576       -2.89824176803020        1.91125938616933
C           26.62763330360308       -2.09721171850487        1.35227139966262
N           28.66632034160107       -1.27332917964858        0.73365400017190
C           27.32377917300127       -1.08340215553346        0.61944884893264
C           26.69227121717555       -0.05567914376232       -0.10420722597700
C           27.35530493627777        0.98126662751285       -0.78490506917404
C           26.69543649581768        1.98188706730345       -1.56754134476259
C           27.66137212384582        2.79965008515768       -2.05879723475291
C           28.91864664357411        2.30954460817019       -1.56963878498565
N           28.69903059358445        1.19540684889231       -0.80271722533420
C           30.16307248911447        2.87701118181696       -1.85476244089781
C           30.18302924516401        4.11954800247642       -2.66304326427320
C           29.53034414571848        5.27194344392007       -2.21826452176526
C           29.54894032923726        6.43328317190202       -2.97020206585553
C           30.21260263852624        6.46223222543759       -4.19940705790715
N           30.26515454085407        7.63266171191281       -4.93690904772746
C           30.87268092953812        5.31578226162369       -4.64908451676117
C           30.85693679887730        4.16159977219998       -3.88623134380794
C           31.39219756607778        2.35875644687732       -1.43542628521808
C           32.66990614545259        2.97778014506634       -1.66103370872961
C           33.60833392637434        2.17205229013282       -1.10402403228987
C           32.91219171432611        1.06142059576410       -0.52134276154535
N           31.57010627109180        1.20098760970180       -0.73460480380919
H           34.60614985518858        0.02373419315611        0.19257105493891
H           34.62893067654175       -2.26372941900428        1.45941821182313
H           32.72989220478904       -3.91013998152278        2.40884897039583
H           29.03236165559995       -5.32929701170117        1.21448400794055
H           28.99175038717069       -7.39357981915684        2.56184403573026
H           29.32165605767307       -8.35167185076482        4.72984503039946
H           30.14639189020700       -7.55563467126137        5.96958002351347
H           31.06626883239236       -5.36363507474304        5.72290944763121
H           31.09604438621178       -3.30062372131446        4.37365542373890
H           27.41514311916426       -3.75188524789735        2.55105053992500
H           25.55495020174060       -2.17321702698488        1.43196852822674
H           25.63002133925856        2.03742366756894       -1.72464891655779
H           27.53748050075727        3.65017148686129       -2.70948207473264
H           29.02082789751352        5.26059471833643       -1.26087585889009
H           29.04752654896568        7.32459823048202       -2.60896140642070
H           29.52380410441041        8.28829122272031       -4.74767486641782
H           30.45809320028563        7.50871830339146       -5.91810412833162
H           31.39323025879737        5.33325818569051       -5.60049238861827
H           31.35566066927989        3.27024953478804       -4.25119423126105
H           32.82235039863404        3.91725022098580       -2.16759434616025
H           34.67746751030579        2.31246628411145       -1.07219146991339
C           22.71874746008315       -0.08598312760794       -0.17163251237907
C           21.49044654972143       -0.09524411686587       -0.16700626086942
C           20.14576409727470       -0.09235985551973       -0.15426684238329
C           18.92198096928970       -0.08398320241095       -0.13329511708841
C           24.06340802504160       -0.07706269285874       -0.16175833365136
C           25.28716329422391       -0.06456101633625       -0.14299405332190

          :  Hamiltonian                  GFN1-xTB          :
         :: total energy            -217.879569132320 Eh    ::
         :: gradient norm              0.000400353904 Eh/a0 ::
         :: HOMO-LUMO gap              0.004584382992 eV    ::
         :: SCC energy              -221.338368760646 Eh    ::
         :: repulsion energy           3.568634120034 Eh    ::

    * Orbital Energies and Occupations

         #    Occupation            Energy/Eh            Energy/eV
      -------------------------------------------------------------
         1        2.0000           -0.7777910             -21.1648
       ...           ...                  ...                  ...
       190        2.0000           -0.4005020             -10.8982
       191        2.0000           -0.4004968             -10.8981
       192        2.0000           -0.4004709             -10.8974
       193        2.0000           -0.4004646             -10.8972
       194        2.0000           -0.3995457             -10.8722
       195        2.0000           -0.3965675             -10.7912
       196        2.0000           -0.3953693             -10.7585
       197        2.0000           -0.3953603             -10.7583
       198        2.0000           -0.3876628             -10.5488
       199        2.0000           -0.3876568             -10.5487
       200        2.0000           -0.3800765             -10.3424
       201        2.0000           -0.3714959             -10.1089
       202        1.0443           -0.3480223              -9.4702 (HOMO)
       203        0.9557           -0.3478539              -9.4656 (LUMO)
       204                         -0.3302232              -8.9858
       205                         -0.3190535              -8.6819
       206                         -0.3190372              -8.6814
       207                         -0.3187570              -8.6738
       208                         -0.2908137              -7.9134
       209                         -0.2835843              -7.7167
       210                         -0.2756057              -7.4996
       211                         -0.2558342              -6.9616
       212                         -0.2558186              -6.9612
       213                         -0.2558059              -6.9608
       ...                                ...                  ...
       430                          1.5871603              43.1888
      -------------------------------------------------------------
                  HL-Gap            0.0001685 Eh            0.0046 eV

Wiberg/Mayer (AO) data.
largest (>0.10) Wiberg bond orders for each atom

     #   Z sym  total        # sym  WBO       # sym  WBO       # sym  WBO
 ---------------------------------------------------------------------------
     1  29 Cu   2.183 --     7 N    0.504    39 N    0.504    26 N    0.501
                            19 N    0.501
     2   6 C    3.926 --    38 C    1.361     3 C    1.361    40 H    0.971
     3   6 C    3.918 --     2 C    1.361     7 N    1.229     4 C    1.173
     4   6 C    3.954 --     5 C    1.652     3 C    1.173    41 H    0.976
     5   6 C    3.958 --     4 C    1.652     6 C    1.175    42 H    0.973
     6   6 C    3.912 --     8 C    1.315     7 N    1.241     5 C    1.175
     7   7 N    3.242 --     6 C    1.241     3 C    1.229     1 Cu   0.504
     8   6 C    3.934 --    16 C    1.324     6 C    1.315     9 C    1.034
     9   6 C    3.988 --    15 C    1.381    10 C    1.380     8 C    1.034
    10   6 C    3.988 --    11 C    1.469     9 C    1.380    43 H    0.973
    11   6 C    3.990 --    10 C    1.469    12 C    1.354    44 H    0.972
    12   6 C    3.951 --    14 C    1.354    11 C    1.354    13 N    1.115
    13   7 N    3.134 --    12 C    1.115    46 H    0.934    45 H    0.933
    14   6 C    3.989 --    15 C    1.468    12 C    1.354    47 H    0.972
    15   6 C    3.987 --    14 C    1.468     9 C    1.381    48 H    0.973
    16   6 C    3.907 --     8 C    1.324    19 N    1.222    17 C    1.181
    17   6 C    3.955 --    18 C    1.639    16 C    1.181    49 H    0.973
    18   6 C    3.956 --    17 C    1.639    20 C    1.189    50 H    0.974
    19   7 N    3.246 --    20 C    1.258    16 C    1.222     1 Cu   0.501
    20   6 C    3.898 --    19 N    1.258    21 C    1.257    18 C    1.189
    21   6 C    3.936 --    22 C    1.257    20 C    1.257   124 C    1.190
    22   6 C    3.898 --    26 N    1.258    21 C    1.257    23 C    1.189
    23   6 C    3.956 --    24 C    1.639    22 C    1.189    51 H    0.974
    24   6 C    3.955 --    23 C    1.639    25 C    1.181    52 H    0.973
    25   6 C    3.907 --    27 C    1.325    26 N    1.222    24 C    1.181
    26   7 N    3.246 --    22 C    1.258    25 C    1.222     1 Cu   0.501
    27   6 C    3.934 --    25 C    1.325    35 C    1.315    28 C    1.034
    28   6 C    3.988 --    29 C    1.381    34 C    1.380    27 C    1.034
    29   6 C    3.988 --    30 C    1.468    28 C    1.381    53 H    0.973
    30   6 C    3.990 --    29 C    1.468    31 C    1.354    54 H    0.972
    31   6 C    3.952 --    30 C    1.354    33 C    1.354    32 N    1.115
    32   7 N    3.133 --    31 C    1.115    56 H    0.934    55 H    0.934
    33   6 C    3.989 --    34 C    1.469    31 C    1.354    57 H    0.972
    34   6 C    3.987 --    33 C    1.469    28 C    1.380    58 H    0.973
    35   6 C    3.912 --    27 C    1.315    39 N    1.241    36 C    1.175
    36   6 C    3.958 --    37 C    1.652    35 C    1.175    59 H    0.973
    37   6 C    3.954 --    36 C    1.652    38 C    1.173    60 H    0.976
    38   6 C    3.918 --     2 C    1.361    39 N    1.229    37 C    1.173
    39   7 N    3.242 --    35 C    1.241    38 C    1.229     1 Cu   0.504
    40   1 H    1.002 --     2 C    0.971
    41   1 H    0.998 --     4 C    0.976
    42   1 H    1.005 --     5 C    0.973
    43   1 H    1.005 --    10 C    0.973
    44   1 H    0.999 --    11 C    0.972
    45   1 H    0.961 --    13 N    0.933
    46   1 H    0.961 --    13 N    0.934
    47   1 H    0.999 --    14 C    0.972
    48   1 H    1.005 --    15 C    0.973
    49   1 H    1.006 --    17 C    0.973
    50   1 H    1.002 --    18 C    0.974
    51   1 H    1.002 --    23 C    0.974
    52   1 H    1.006 --    24 C    0.973
    53   1 H    1.005 --    29 C    0.973
    54   1 H    0.999 --    30 C    0.972
    55   1 H    0.961 --    32 N    0.934
    56   1 H    0.961 --    32 N    0.934
    57   1 H    0.999 --    33 C    0.972
    58   1 H    1.005 --    34 C    0.973
    59   1 H    1.005 --    36 C    0.973
    60   1 H    0.998 --    37 C    0.976
    61  29 Cu   2.183 --    67 N    0.504    99 N    0.504    86 N    0.501
                            79 N    0.501
    62   6 C    3.926 --    98 C    1.361    63 C    1.361   100 H    0.971
    63   6 C    3.918 --    62 C    1.361    67 N    1.229    64 C    1.173
    64   6 C    3.954 --    65 C    1.652    63 C    1.173   101 H    0.976
    65   6 C    3.958 --    64 C    1.652    66 C    1.175   102 H    0.973
    66   6 C    3.912 --    68 C    1.315    67 N    1.241    65 C    1.175
    67   7 N    3.242 --    66 C    1.241    63 C    1.229    61 Cu   0.504
    68   6 C    3.934 --    76 C    1.325    66 C    1.315    69 C    1.034
    69   6 C    3.988 --    75 C    1.381    70 C    1.381    68 C    1.034
    70   6 C    3.988 --    71 C    1.469    69 C    1.381   103 H    0.973
    71   6 C    3.990 --    70 C    1.469    72 C    1.354   104 H    0.972
    72   6 C    3.952 --    74 C    1.354    71 C    1.354    73 N    1.115
    73   7 N    3.133 --    72 C    1.115   106 H    0.934   105 H    0.933
    74   6 C    3.989 --    75 C    1.468    72 C    1.354   107 H    0.972
    75   6 C    3.987 --    74 C    1.468    69 C    1.381   108 H    0.973
    76   6 C    3.907 --    68 C    1.325    79 N    1.222    77 C    1.181
    77   6 C    3.955 --    78 C    1.640    76 C    1.181   109 H    0.973
    78   6 C    3.956 --    77 C    1.640    80 C    1.189   110 H    0.974
    79   7 N    3.246 --    80 C    1.258    76 C    1.222    61 Cu   0.501
    80   6 C    3.898 --    79 N    1.258    81 C    1.257    78 C    1.189
    81   6 C    3.936 --    82 C    1.257    80 C    1.257   126 C    1.190
    82   6 C    3.898 --    86 N    1.258    81 C    1.257    83 C    1.189
    83   6 C    3.956 --    84 C    1.639    82 C    1.189   111 H    0.974
    84   6 C    3.955 --    83 C    1.639    85 C    1.181   112 H    0.973
    85   6 C    3.907 --    87 C    1.325    86 N    1.222    84 C    1.181
    86   7 N    3.246 --    82 C    1.258    85 C    1.222    61 Cu   0.501
    87   6 C    3.934 --    85 C    1.325    95 C    1.315    88 C    1.034
    88   6 C    3.988 --    89 C    1.381    94 C    1.381    87 C    1.034
    89   6 C    3.988 --    90 C    1.468    88 C    1.381   113 H    0.973
    90   6 C    3.990 --    89 C    1.468    91 C    1.354   114 H    0.972
    91   6 C    3.952 --    90 C    1.354    93 C    1.354    92 N    1.115
    92   7 N    3.133 --    91 C    1.115   116 H    0.934   115 H    0.934
    93   6 C    3.989 --    94 C    1.468    91 C    1.354   117 H    0.972
    94   6 C    3.987 --    93 C    1.468    88 C    1.381   118 H    0.973
    95   6 C    3.912 --    87 C    1.315    99 N    1.241    96 C    1.175
    96   6 C    3.958 --    97 C    1.652    95 C    1.175   119 H    0.973
    97   6 C    3.954 --    96 C    1.652    98 C    1.173   120 H    0.976
    98   6 C    3.918 --    62 C    1.361    99 N    1.229    97 C    1.173
    99   7 N    3.242 --    95 C    1.241    98 C    1.229    61 Cu   0.504
   100   1 H    1.002 --    62 C    0.971
   101   1 H    0.998 --    64 C    0.976
   102   1 H    1.005 --    65 C    0.973
   103   1 H    1.005 --    70 C    0.973
   104   1 H    0.999 --    71 C    0.972
   105   1 H    0.961 --    73 N    0.933
   106   1 H    0.961 --    73 N    0.934
   107   1 H    0.999 --    74 C    0.972
   108   1 H    1.005 --    75 C    0.973
   109   1 H    1.006 --    77 C    0.973
   110   1 H    1.002 --    78 C    0.974
   111   1 H    1.002 --    83 C    0.974
   112   1 H    1.006 --    84 C    0.973
   113   1 H    1.005 --    89 C    0.973
   114   1 H    0.999 --    90 C    0.972
   115   1 H    0.961 --    92 N    0.934
   116   1 H    0.961 --    92 N    0.934
   117   1 H    0.999 --    93 C    0.972
   118   1 H    1.005 --    94 C    0.973
   119   1 H    1.005 --    96 C    0.973
   120   1 H    0.998 --    97 C    0.976
   121   6 C    3.926 --   122 C    2.370   125 C    1.334   124 C    0.190
   122   6 C    3.926 --   121 C    2.370   123 C    1.334   126 C    0.190
   123   6 C    3.934 --   124 C    2.450   122 C    1.334
   124   6 C    3.891 --   123 C    2.450    21 C    1.190   121 C    0.190
   125   6 C    3.934 --   126 C    2.450   121 C    1.334
   126   6 C    3.891 --   125 C    2.450    81 C    1.190   122 C    0.190
 ---------------------------------------------------------------------------

           -------------------------------------------------
          | TOTAL ENERGY             -217.879569132320 Eh   |
          | GRADIENT NORM               0.000400353904 Eh/α |
          | HOMO-LUMO GAP               0.004584382992 eV   |
           -------------------------------------------------

 * finished run on 2022/07/30 at 07:35:24.269
