   * xtb version 6.5.1 (b24c23e) compiled by 'conda@728c89f4b128' on 2022-07-12
          program call               : xtb Ni_C2Py_C4_2.xyz --gfn 1 --opt -T 48

   ID    Z sym.   atoms
    1   28 Ni     1, 59
    2    6 C      2-6, 8-13, 15-19, 21-26, 28-33, 35-40, 60-64, 66-71, 73-77,
                  79-84, 86-91, 93-98, 117-120
    3    7 N      7, 14, 20, 27, 34, 41, 65, 72, 78, 85, 92, 99
    4    1 H      42-58, 100-116
########################################################################
[WARNING] Please study the warnings concerning your input carefully
-1- prog_main_parseArguments: Unknown option '-T' provided
########################################################################

          :  Hamiltonian                  GFN1-xTB          :
 * total energy  :  -216.3055108 Eh     change       -0.3265939E-09 Eh
 * total energy  :  -216.6243036 Eh     change       -0.3187928E+00 Eh
 * total energy  :  -216.6955932 Eh     change       -0.7128966E-01 Eh
 * total energy  :  -216.7264765 Eh     change       -0.3088331E-01 Eh
 * total energy  :  -216.7351715 Eh     change       -0.8695018E-02 Eh
 * total energy  :  -216.7399932 Eh     change       -0.4821706E-02 Eh
 * total energy  :  -216.7415888 Eh     change       -0.1595504E-02 Eh
 * total energy  :  -216.7424955 Eh     change       -0.9067799E-03 Eh
 * total energy  :  -216.7430954 Eh     change       -0.5998936E-03 Eh
 * total energy  :  -216.7434612 Eh     change       -0.3657717E-03 Eh
 * total energy  :  -216.7444397 Eh     change       -0.1126254E-04 Eh
 * total energy  :  -216.7444526 Eh     change       -0.1286336E-04 Eh
 * total energy  :  -216.7444631 Eh     change       -0.1056334E-04 Eh
 * total energy  :  -216.7444710 Eh     change       -0.7856053E-05 Eh
 * total energy  :  -216.7444810 Eh     change       -0.9980009E-05 Eh
 * total energy  :  -216.7444863 Eh     change       -0.5386629E-05 Eh
 * total energy  :  -216.7444922 Eh     change       -0.5871956E-05 Eh
 * total energy  :  -216.7445000 Eh     change       -0.7786594E-05 Eh
 * total energy  :  -216.7445049 Eh     change       -0.4849149E-05 Eh
   *** GEOMETRY OPTIMIZATION CONVERGED AFTER 39 ITERATIONS ***

 final structure:
================
120
 xtb: 6.5.1 (b24c23e)
Ni          16.16395692941490        0.08065568900598        0.01233193777547
C           12.76098676707142        0.14647743485739        0.01458833362097
C           13.42327166833670        0.94463487082624        0.92327242444416
C           12.75744743207186        1.78750581360297        1.86851767207836
C           13.72560181221376        2.44472635085110        2.55042389023509
C           14.97688380527801        2.00319380368551        2.01523269648313
N           14.78780254312857        1.07324957362063        1.03104133951001
C           16.20914664225923        2.51274786509709        2.42636406221466
C           16.22836641829876        3.51104017041112        3.42483567208391
C           16.24456433610216        4.36779687008608        4.28370868844742
C           16.26438121397027        5.36890649814019        5.28184272393158
C           17.46449088831685        5.96415198327786        5.68767584265259
C           17.43012298556576        6.94051635944594        6.66720587349464
N           16.30489922083225        7.34673544600315        7.24999532205068
C           15.15998538979391        6.78522939741166        6.86999887455182
C           15.08542867930903        5.80193844387056        5.89955813129291
C           17.42203605347408        2.08478329330831        1.88610219340288
C           18.68612696273416        2.61962758106078        2.28140762051866
C           19.63019653174836        1.93598751308201        1.58959938706418
N           17.58097309891514        1.09272238051951        0.95245995045719
C           18.93618296131722        0.98646603623486        0.77959531089573
C           19.58756670210073        0.04796108538117       -0.02458441176600
C           18.90170038094755       -0.88548102249598       -0.80529751989538
C           19.56018599366992       -1.86009778419696       -1.61519898211560
C           18.58795769068803       -2.54337186477589       -2.26736263056139
C           17.34282656435656       -1.97962149480449       -1.85245259473161
N           17.54117249876438       -0.97281623661302       -0.94229079168789
C           16.11097461700459       -2.38889315591250       -2.36380032420003
C           16.09077856881729       -3.40941600336923       -3.33964605013768
C           16.07642311761848       -4.28683362727284       -4.17740526900870
C           16.06582433024108       -5.30667725875039       -5.15670672732634
C           17.24887321196580       -5.93811697922567       -5.55778425928988
C           17.18589335314747       -6.92945708434427       -6.52079138569195
N           16.04838165897704       -7.31742880554400       -7.09188646853229
C           14.91938702844844       -6.72199922035698       -6.71591310919396
C           14.87361055104611       -5.72129542402678       -5.76155588632946
C           14.89955720923358       -1.82963046377719       -1.95521503517704
C           13.63110161031555       -2.23026206768477       -2.48228461236642
C           12.69105018413956       -1.51659366673946       -1.81812294685018
C           13.39068351534733       -0.68534613326750       -0.88706592075518
N           14.74876749611523       -0.87340907162331       -0.98987131071747
H           11.67738401522247        0.16971647883039        0.01292758110074
H           11.68688731123810        1.85492451573772        1.97870005055914
H           13.62180059442247        3.17005649577927        3.34140271612189
H           18.40329005047586        5.66267477903267        5.23883807458271
H           18.34572737588072        7.41996367019185        7.00129341398164
H           14.26139941904937        7.14023122313117        7.36643154747576
H           14.13153707902319        5.37133480238273        5.61984789756474
H           18.81767099608204        3.41346653760698        2.99884113507921
H           20.70191847446668        2.04829707600189        1.61898027104812
H           20.62903643982996       -1.98944656259664       -1.66974113489720
H           18.68921828080491       -3.35317225597184       -2.97181841167367
H           18.19694335376347       -5.65236503019975       -5.11831368112225
H           18.08800577512030       -7.43644853454504       -6.85096677428372
H           14.01005088997148       -7.06298175996038       -7.20244322318359
H           13.93190368486145       -5.26284345531312       -5.48483413131374
H           13.49723954920541       -2.96698434198246       -3.25806667350192
H           11.61871914709326       -1.54034278270389       -1.92933896376309
Ni          29.61770521063276       -0.05200454155973       -0.06226436496987
C           33.02070887853125       -0.08685902533372       -0.11504661748980
C           32.35876182554937       -1.27634751003803       -0.33487735680718
C           33.02502335776757       -2.51979847035369       -0.57393705219429
C           32.05725166113923       -3.44220529395171       -0.79031836455003
C           30.80572965572283       -2.75668822327476       -0.68616781807695
N           30.99429631921882       -1.43500849004386       -0.39148117115730
C           29.57370944498576       -3.37141757650970       -0.91275423997326
C           29.55506602462910       -4.74080598939279       -1.25693768860837
C           29.53843574293104       -5.91753322644513       -1.55188955118705
C           29.51874464556732       -7.28835109809700       -1.89747889894347
C           28.31858129190249       -7.94281224047088       -2.19847082205202
C           28.35287692377865       -9.28530130977849       -2.53092474982483
N           29.47808689622811       -9.99408406272550       -2.57914415124452
C           30.62305905596367       -9.37912014369883       -2.29388049729523
C           30.69767334737999       -8.04086367878116       -1.95084795483349
C           28.36050045470819       -2.68881703431887       -0.82155755097187
C           27.09646153242438       -3.30299577699031       -1.07675999359132
C           26.15221772196524       -2.35864062043358       -0.84464768135838
N           28.20131904756419       -1.37836500328411       -0.44893809663958
C           26.84613169520197       -1.17586615986981       -0.44591773365895
C           26.19409011834635       -0.00448152858408       -0.05316060842760
C           26.87951300113815        1.14491984978166        0.34747398151425
C           26.22073120384362        2.33980962982229        0.76911349099598
C           27.19269373793951        3.25051803781675        1.02066484984436
C           28.43794536749476        2.60566759363932        0.74862117678742
N           28.23992090211910        1.30783237490994        0.35171654125503
C           29.66946062207361        3.25540788135749        0.83618935135460
C           29.68924316843260        4.61684290408762        1.21061438011409
C           29.70313953945284        5.78632612048605        1.53314378056667
C           29.71410074255106        7.15011643379386        1.90616825195774
C           28.53128956463270        7.81885287966041        2.24220717148419
C           28.59488732713162        9.15382935553345        2.59984265656714
N           29.73277484490968        9.84239445757862        2.64078017599583
C           30.86153122699355        9.21374917573608        2.32258301634584
C           30.90669041908105        7.88136004892426        1.95249264313457
C           30.88107675712487        2.61812196197069        0.56583854629279
C           32.14930185627534        3.27661324463564        0.63878282249951
C           33.08979848709230        2.34020281763855        0.36915675976136
C           32.39061689660829        1.11398511658624        0.13472980946731
N           31.03245485285464        1.29851201558270        0.24219934431439
H           34.10433688643325       -0.09730051198208       -0.13451226308828
H           34.09561647706852       -2.64872686773661       -0.57438061071776
H           32.16141037181239       -4.49298622810432       -1.00833735112571
H           27.37975665381698       -7.40281891777121       -2.17092844529201
H           27.43726231154860       -9.81859946279837       -2.76975132083395
H           31.52167937586037       -9.98743815562223       -2.34284867910607
H           31.65161489421243       -7.57939313745032       -1.72595882887889
H           26.96496349623772       -4.32627118689361       -1.38953576502745
H           25.08046564557278       -2.44182323693798       -0.92524854856445
H           25.15192476712361        2.45276799428435        0.85302258403893
H           27.09126685085037        4.27050400569824        1.35473827765727
H           27.58292615972947        7.29558243388416        2.22171266991672
H           27.69295902583197        9.69768862168254        2.86555472673650
H           31.77118800186899        9.80575856331713        2.36635186207541
H           31.84822351934801        7.40823999638321        1.70101689485332
H           32.28273437649510        4.32094115498806        0.87138495931446
H           34.16211804600791        2.44811493012649        0.33288640481089
C           22.21521908333785        0.04027409076411       -0.04625019511814
C           20.99401548951215        0.03735530411079       -0.04083497669249
C           23.56629398062679        0.02745400728033       -0.05104146920887
C           24.78752315729931        0.01518775670458       -0.05359011674662

          :  Hamiltonian                  GFN1-xTB          :
         :: total energy            -216.744504859031 Eh    ::
         :: gradient norm              0.000887525313 Eh/a0 ::
         :: HOMO-LUMO gap              1.189236264872 eV    ::
         :: SCC energy              -220.389425682184 Eh    ::
         :: repulsion energy           3.745428838310 Eh    ::

    * Orbital Energies and Occupations

         #    Occupation            Energy/Eh            Energy/eV
      -------------------------------------------------------------
         1        2.0000           -0.7891267             -21.4732
       ...           ...                  ...                  ...
       189        2.0000           -0.4212506             -11.4628
       190        2.0000           -0.4070085             -11.0753
       191        2.0000           -0.4069963             -11.0749
       192        2.0000           -0.4061581             -11.0521
       193        2.0000           -0.4061550             -11.0520
       194        2.0000           -0.4057765             -11.0417
       195        2.0000           -0.4057760             -11.0417
       196        2.0000           -0.4047057             -11.0126
       197        2.0000           -0.4047042             -11.0126
       198        2.0000           -0.4045550             -11.0085
       199        2.0000           -0.4045543             -11.0085
       200        2.0000           -0.4003858             -10.8951
       201        2.0000           -0.3912219             -10.6457 (HOMO)
       202                         -0.3475183              -9.4565 (LUMO)
       203                         -0.3458594              -9.4113
       204                         -0.3458546              -9.4112
       205                         -0.3381292              -9.2010
       206                         -0.3381261              -9.2009
       207                         -0.3342945              -9.0966
       208                         -0.3175958              -8.6422
       209                         -0.3133146              -8.5257
       210                         -0.2905982              -7.9076
       211                         -0.2905975              -7.9076
       212                         -0.2865318              -7.7969
       ...                                ...                  ...
       422                          1.5096293              41.0791
      -------------------------------------------------------------
                  HL-Gap            0.0437036 Eh            1.1892 eV

Wiberg/Mayer (AO) data.
largest (>0.10) Wiberg bond orders for each atom

     #   Z sym  total        # sym  WBO       # sym  WBO       # sym  WBO
 ---------------------------------------------------------------------------
     1  28 Ni   2.993 --     7 N    0.660    41 N    0.660    20 N    0.658
                            27 N    0.658
     2   6 C    3.934 --    40 C    1.366     3 C    1.366    42 H    0.970
     3   6 C    3.915 --     2 C    1.366     7 N    1.205     4 C    1.177
     4   6 C    3.959 --     5 C    1.643     3 C    1.177    43 H    0.975
     5   6 C    3.962 --     4 C    1.643     6 C    1.184    44 H    0.973
     6   6 C    3.911 --     8 C    1.274     7 N    1.240     5 C    1.184
     7   7 N    3.401 --     6 C    1.240     3 C    1.205     1 Ni   0.660
     8   6 C    3.937 --    17 C    1.278     6 C    1.274     9 C    1.156
     9   6 C    3.958 --    10 C    2.627     8 C    1.156
    10   6 C    3.935 --     9 C    2.627    11 C    1.140
    11   6 C    3.987 --    16 C    1.351    12 C    1.351    10 C    1.140
    12   6 C    3.974 --    13 C    1.457    11 C    1.351    45 H    0.974
                            15 C    0.104
    13   6 C    3.973 --    12 C    1.457    14 N    1.407    46 H    0.972
                            16 C    0.104
    14   7 N    2.995 --    15 C    1.407    13 C    1.407
    15   6 C    3.973 --    16 C    1.456    14 N    1.407    47 H    0.972
                            12 C    0.104
    16   6 C    3.974 --    15 C    1.456    11 C    1.351    48 H    0.974
                            13 C    0.104
    17   6 C    3.905 --     8 C    1.278    20 N    1.224    18 C    1.192
    18   6 C    3.958 --    19 C    1.630    17 C    1.192    49 H    0.973
    19   6 C    3.960 --    18 C    1.630    21 C    1.194    50 H    0.973
    20   7 N    3.404 --    21 C    1.229    17 C    1.224     1 Ni   0.658
    21   6 C    3.896 --    22 C    1.267    20 N    1.229    19 C    1.194
    22   6 C    3.940 --    23 C    1.267    21 C    1.267   118 C    1.178
    23   6 C    3.896 --    22 C    1.267    27 N    1.229    24 C    1.194
    24   6 C    3.960 --    25 C    1.630    23 C    1.194    51 H    0.973
    25   6 C    3.958 --    24 C    1.630    26 C    1.192    52 H    0.973
    26   6 C    3.904 --    28 C    1.279    27 N    1.224    25 C    1.192
    27   7 N    3.404 --    23 C    1.229    26 C    1.224     1 Ni   0.658
    28   6 C    3.937 --    26 C    1.279    37 C    1.274    29 C    1.156
    29   6 C    3.958 --    30 C    2.627    28 C    1.156
    30   6 C    3.935 --    29 C    2.627    31 C    1.140
    31   6 C    3.987 --    36 C    1.351    32 C    1.351    30 C    1.140
    32   6 C    3.974 --    33 C    1.457    31 C    1.351    53 H    0.974
                            35 C    0.104
    33   6 C    3.973 --    32 C    1.457    34 N    1.407    54 H    0.972
                            36 C    0.104
    34   7 N    2.995 --    35 C    1.407    33 C    1.407
    35   6 C    3.973 --    36 C    1.456    34 N    1.407    55 H    0.972
                            32 C    0.104
    36   6 C    3.974 --    35 C    1.456    31 C    1.351    56 H    0.974
                            33 C    0.104
    37   6 C    3.911 --    28 C    1.274    41 N    1.241    38 C    1.184
    38   6 C    3.962 --    39 C    1.644    37 C    1.184    57 H    0.973
    39   6 C    3.959 --    38 C    1.644    40 C    1.177    58 H    0.975
    40   6 C    3.915 --     2 C    1.366    41 N    1.205    39 C    1.177
    41   7 N    3.401 --    37 C    1.241    40 C    1.205     1 Ni   0.660
    42   1 H    1.000 --     2 C    0.970
    43   1 H    0.997 --     4 C    0.975
    44   1 H    1.002 --     5 C    0.973
    45   1 H    1.002 --    12 C    0.974
    46   1 H    1.013 --    13 C    0.972
    47   1 H    1.013 --    15 C    0.972
    48   1 H    1.002 --    16 C    0.974
    49   1 H    1.002 --    18 C    0.973
    50   1 H    1.002 --    19 C    0.973
    51   1 H    1.002 --    24 C    0.973
    52   1 H    1.003 --    25 C    0.973
    53   1 H    1.002 --    32 C    0.974
    54   1 H    1.013 --    33 C    0.972
    55   1 H    1.013 --    35 C    0.972
    56   1 H    1.002 --    36 C    0.974
    57   1 H    1.002 --    38 C    0.973
    58   1 H    0.997 --    39 C    0.975
    59  28 Ni   2.993 --    65 N    0.660    99 N    0.660    78 N    0.658
                            85 N    0.658
    60   6 C    3.934 --    98 C    1.366    61 C    1.366   100 H    0.970
    61   6 C    3.915 --    60 C    1.366    65 N    1.205    62 C    1.177
    62   6 C    3.959 --    63 C    1.643    61 C    1.177   101 H    0.975
    63   6 C    3.962 --    62 C    1.643    64 C    1.184   102 H    0.973
    64   6 C    3.911 --    66 C    1.274    65 N    1.240    63 C    1.184
    65   7 N    3.401 --    64 C    1.240    61 C    1.205    59 Ni   0.660
    66   6 C    3.937 --    75 C    1.279    64 C    1.274    67 C    1.156
    67   6 C    3.958 --    68 C    2.627    66 C    1.156
    68   6 C    3.935 --    67 C    2.627    69 C    1.140
    69   6 C    3.987 --    74 C    1.351    70 C    1.351    68 C    1.140
    70   6 C    3.974 --    71 C    1.457    69 C    1.351   103 H    0.974
                            73 C    0.104
    71   6 C    3.973 --    70 C    1.457    72 N    1.407   104 H    0.972
                            74 C    0.104
    72   7 N    2.995 --    73 C    1.407    71 C    1.407
    73   6 C    3.973 --    74 C    1.456    72 N    1.407   105 H    0.972
                            70 C    0.104
    74   6 C    3.974 --    73 C    1.456    69 C    1.351   106 H    0.974
                            71 C    0.104
    75   6 C    3.904 --    66 C    1.279    78 N    1.224    76 C    1.192
    76   6 C    3.958 --    77 C    1.630    75 C    1.192   107 H    0.973
    77   6 C    3.960 --    76 C    1.630    79 C    1.194   108 H    0.973
    78   7 N    3.404 --    79 C    1.229    75 C    1.224    59 Ni   0.658
    79   6 C    3.896 --    80 C    1.267    78 N    1.229    77 C    1.194
    80   6 C    3.940 --    81 C    1.267    79 C    1.267   120 C    1.178
    81   6 C    3.896 --    80 C    1.267    85 N    1.230    82 C    1.194
    82   6 C    3.960 --    83 C    1.630    81 C    1.194   109 H    0.973
    83   6 C    3.958 --    82 C    1.630    84 C    1.192   110 H    0.973
    84   6 C    3.904 --    86 C    1.279    85 N    1.224    83 C    1.192
    85   7 N    3.404 --    81 C    1.230    84 C    1.224    59 Ni   0.658
    86   6 C    3.937 --    84 C    1.279    95 C    1.274    87 C    1.156
    87   6 C    3.958 --    88 C    2.627    86 C    1.156
    88   6 C    3.935 --    87 C    2.627    89 C    1.140
    89   6 C    3.987 --    94 C    1.351    90 C    1.351    88 C    1.140
    90   6 C    3.974 --    91 C    1.457    89 C    1.351   111 H    0.974
                            93 C    0.104
    91   6 C    3.973 --    90 C    1.457    92 N    1.407   112 H    0.972
                            94 C    0.104
    92   7 N    2.995 --    93 C    1.407    91 C    1.407
    93   6 C    3.973 --    94 C    1.457    92 N    1.407   113 H    0.972
                            90 C    0.104
    94   6 C    3.974 --    93 C    1.457    89 C    1.351   114 H    0.974
                            91 C    0.104
    95   6 C    3.911 --    86 C    1.274    99 N    1.241    96 C    1.184
    96   6 C    3.962 --    97 C    1.644    95 C    1.184   115 H    0.973
    97   6 C    3.959 --    96 C    1.644    98 C    1.177   116 H    0.975
    98   6 C    3.915 --    60 C    1.366    99 N    1.205    97 C    1.177
    99   7 N    3.401 --    95 C    1.241    98 C    1.205    59 Ni   0.660
   100   1 H    1.000 --    60 C    0.970
   101   1 H    0.997 --    62 C    0.975
   102   1 H    1.002 --    63 C    0.973
   103   1 H    1.002 --    70 C    0.974
   104   1 H    1.013 --    71 C    0.972
   105   1 H    1.013 --    73 C    0.972
   106   1 H    1.002 --    74 C    0.974
   107   1 H    1.002 --    76 C    0.973
   108   1 H    1.002 --    77 C    0.973
   109   1 H    1.002 --    82 C    0.973
   110   1 H    1.003 --    83 C    0.973
   111   1 H    1.002 --    90 C    0.974
   112   1 H    1.013 --    91 C    0.972
   113   1 H    1.013 --    93 C    0.972
   114   1 H    1.002 --    94 C    0.974
   115   1 H    1.002 --    96 C    0.973
   116   1 H    0.997 --    97 C    0.975
   117   6 C    3.938 --   118 C    2.488   119 C    1.300
   118   6 C    3.927 --   117 C    2.488    22 C    1.178   120 C    0.200
   119   6 C    3.938 --   120 C    2.488   117 C    1.300
   120   6 C    3.927 --   119 C    2.488    80 C    1.178   118 C    0.200
 ---------------------------------------------------------------------------

           -------------------------------------------------
          | TOTAL ENERGY             -216.744504859031 Eh   |
          | GRADIENT NORM               0.000887525313 Eh/α |
          | HOMO-LUMO GAP               1.189236264872 eV   |
           -------------------------------------------------

 * finished run on 2022/07/30 at 04:41:09.846
