   * xtb version 6.5.1 (b24c23e) compiled by 'conda@728c89f4b128' on 2022-07-12
          program call               : xtb Ni_NMA_C2_3.xyz --gfn 1 --opt -T 48

   ID    Z sym.   atoms
    1   28 Ni     1, 67, 137
    2    6 C      2-6, 8-12, 14-19, 21-26, 28-32, 34-40, 68-72, 74-78, 80-85,
                  87-92, 94-98, 100-106, 133-136, 138-142, 144-148, 150-155,
                  157-162, 164-168, 170-176
    3    7 N      7, 13, 20, 27, 33, 41, 73, 79, 86, 93, 99, 107, 143, 149,
                  156, 163, 169, 177
    4    1 H      42-66, 108-132, 178-201

          :  Hamiltonian                  GFN1-xTB          :
 * total energy  :  -317.7760701 Eh     change       -0.2181946E-07 Eh
 * total energy  :  -329.1969532 Eh     change       -0.1142088E+02 Eh
 * total energy  :  -330.7520464 Eh     change       -0.1555093E+01 Eh
 * total energy  :  -331.6249384 Eh     change       -0.8728921E+00 Eh
 * total energy  :  -332.1627497 Eh     change       -0.5378113E+00 Eh
 * total energy  :  -332.4569631 Eh     change       -0.2942133E+00 Eh
 * total energy  :  -332.6383271 Eh     change       -0.1813640E+00 Eh
 * total energy  :  -332.7685477 Eh     change       -0.1302206E+00 Eh
 * total energy  :  -332.8677192 Eh     change       -0.9917149E-01 Eh
 * total energy  :  -332.9471688 Eh     change       -0.7944966E-01 Eh
 * total energy  :  -333.8491998 Eh     change       -0.2022183E-04 Eh
 * total energy  :  -333.8492373 Eh     change       -0.3754710E-04 Eh
 * total energy  :  -333.8492600 Eh     change       -0.2266211E-04 Eh
 * total energy  :  -333.8492727 Eh     change       -0.1275304E-04 Eh
 * total energy  :  -333.8492900 Eh     change       -0.1730942E-04 Eh
 * total energy  :  -333.8492989 Eh     change       -0.8848846E-05 Eh
 * total energy  :  -333.8493063 Eh     change       -0.7430077E-05 Eh
 * total energy  :  -333.8493124 Eh     change       -0.6110008E-05 Eh
 * total energy  :  -333.8493171 Eh     change       -0.4698885E-05 Eh
   *** GEOMETRY OPTIMIZATION CONVERGED AFTER 73 ITERATIONS ***

 final structure:
================
201
 xtb: 6.5.1 (b24c23e)
Ni          38.63239467771574        0.06678673162142        0.01797634097678
C           35.23931255093090        0.10342088870481        0.00494156939438
C           35.89421236837774        0.89950155002529        0.92193022841835
C           35.22444128702949        1.70964890641448        1.89214874298495
C           36.18143136598395        2.43222356546783        2.52152858511136
C           37.43412712573791        2.07094031555434        1.92608291346844
N           37.25164021303314        1.09712826047240        0.97677159892193
C           38.64584934700628        2.67781211863226        2.23496658536005
C           38.65248726065909        3.81598085307012        3.18140081490229
C           37.91298283780278        4.97072338951239        2.91064142353797
C           37.92410038026910        6.03904952139715        3.78717875133624
C           38.66775818981744        5.97955822727767        4.97208946610125
N           38.68934292718768        7.09597814616245        5.79535971022214
C           39.00809362306421        6.94279522279015        7.20851712965661
C           39.41119512787194        4.82804957305055        5.24660224764864
C           39.40048368861598        3.76553115216222        4.35904529765061
C           39.85030672662603        2.25900248968689        1.68259041228336
C           41.10476718129340        2.89830434767938        1.93606333766973
C           42.05520351460740        2.14815935125269        1.32836325820686
N           40.02898606104575        1.15436379757183        0.87947968728193
C           41.38224635058443        1.06299601304152        0.69149541720022
C           42.04875386894721        0.01771966337108        0.04378744695509
C           41.36279580998200       -1.00775943719711       -0.61517960990645
C           42.01326421977098       -2.10991015614891       -1.24612825991430
C           41.05164037850849       -2.82385857870582       -1.87974159557028
C           39.81329483774320       -2.14726400198196       -1.64466739020566
N           40.01101008990253       -1.05620487933555       -0.82798487242293
C           38.60665730060513       -2.52443019795474       -2.22202568590694
C           38.59711311342895       -3.64741694158258       -3.18627223708456
C           39.36191182600641       -3.59549325895627       -4.35305432487892
C           39.35449678607788       -4.64061532141552       -5.26104110464642
C           38.58711111672384       -5.78197292499796       -5.01133461762607
N           38.50692877940111       -6.83832555143404       -5.90703960050975
C           39.60211907126807       -7.07788684217188       -6.83719490798885
C           37.81509129196259       -5.83719223933784       -3.84437637370922
C           37.81876531496302       -4.78411074682105       -2.94959111881418
C           37.40685944859528       -1.89029631562228       -1.92131031589644
C           36.15161770182124       -2.21628733641614       -2.53153799020235
C           35.20480091450882       -1.48485133701106       -1.89707469574871
C           35.88401633159162       -0.70084127544962       -0.91213903277029
N           37.23759688087174       -0.92510784355395       -0.96036341240017
H           34.15555670960229        0.11371197729069        0.00210217757760
H           34.15842422306511        1.71178904006368        2.05582284634109
H           36.06261317142540        3.14461315618559        3.32180222183049
H           37.34083801901097        5.03564799329112        1.99156969321673
H           37.35520183047603        6.93423018662881        3.55882683308507
H           37.89634886739304        7.70776176093699        5.64391699758931
H           40.05888530243099        6.67586042321873        7.32813894998755
H           38.38485483917530        6.17519780969214        7.68148681834909
H           38.83400442157932        7.90073679025142        7.69872842618522
H           40.00189900554829        4.75482180491526        6.15150597178132
H           39.96787066334083        2.87095231444031        4.59197901749778
H           41.23296275879612        3.80668552312078        2.50152388801917
H           43.12026836062204        2.30637977938362        1.30737128643060
H           43.07198543043152       -2.30313803964253       -1.20338343138860
H           41.16204146776755       -3.73093466565542       -2.45115983563112
H           39.95454847419621       -2.71152019236978       -4.56243086861370
H           39.94586176051294       -4.56023160140648       -6.16488831935925
H           38.17644816621832       -7.69225666200651       -5.47388142672787
H           39.63976814988793       -6.28323513016303       -7.58328434597860
H           39.41195871881776       -8.02367637866549       -7.34465545181953
H           40.56651346968838       -7.13204420714641       -6.31921188725740
H           37.21282750462298       -6.71722999466172       -3.64432839271431
H           37.23007310987504       -4.84896562347996       -2.04101619047823
H           36.02366993385369       -2.91310317323578       -3.34392814774332
H           34.14011948573701       -1.46287244303005       -2.06794137333961
Ni          60.36019623929052       -0.01271400070337       -0.06367960700060
C           63.75355152076013       -0.03200135551146       -0.06267292369526
C           63.09766342543943       -1.09761167774981       -0.64395964182216
C           63.76557711736671       -2.22818718665744       -1.21142186661098
C           62.80963244820597       -2.99382243287625       -1.78939044406621
C           61.55963844459723       -2.32297594198593       -1.58470821329777
N           61.74185943091418       -1.18384375171272       -0.84174228514990
C           60.35162023687851       -2.74605843188187       -2.12655659063679
C           60.34746571093383       -3.92095654958893       -3.02709637827348
C           61.10342374457122       -3.92024359466238       -4.20272734174953
C           61.09859281159853       -5.01437843933859       -5.04694182334445
C           60.34557459973288       -6.15224766969572       -4.73264879997735
N           60.33382744800159       -7.20687206619143       -5.63438579429746
C           60.00862038534414       -8.54829017607286       -5.16820312389102
C           59.58403711811430       -6.15644971239388       -3.56049343787253
C           59.58795373105015       -5.05258568516671       -2.72484074386728
C           59.14904579987324       -2.10427465323055       -1.85604940656304
C           57.89978784203221       -2.47806692630150       -2.44427947446817
C           56.94738384222799       -1.71496187618427       -1.85596772651985
N           58.96616287510570       -1.08041126003836       -0.95304132060105
C           57.61387489325536       -0.86697656362143       -0.92181850341769
C           56.94259994566251       -0.00763544953429       -0.04559948584241
C           57.62563718354654        0.85374230707581        0.81958417787185
C           56.97146811837074        1.71149219965802        1.75339595230698
C           57.93185417666069        2.48031238435598        2.32140921398743
C           59.17358725924525        2.09789552870245        1.72307256706740
N           58.97852718639449        1.06540764584537        0.83293741640810
C           60.38150075980520        2.73672233418276        1.97737333375138
C           60.38896054950796        3.92216495316366        2.86368718447567
C           59.63328690763915        5.05373620130898        2.55162812596140
C           59.63968372916626        6.16793956401396        3.37346894805812
C           60.39663762242638        6.16906035016294        4.54858909990603
N           60.47646459557944        7.27352289839266        5.38420583303750
C           59.38932458475554        8.24276555737764        5.40272188931163
C           61.15870271766642        5.03750271427497        4.86449060166510
C           61.15634931151796        3.93457320574405        4.03199224906827
C           61.58425247205009        2.29843626323132        1.43595253166421
C           62.84140747054709        2.95811021709256        1.63296032960861
C           63.78948039548110        2.17322852317755        1.06803749700212
C           63.10942796228384        1.04408227846214        0.51242579591332
N           61.75431267347836        1.14844042330810        0.70648827710570
H           64.83734097941137       -0.03896943927997       -0.06116375515319
H           64.82973887977042       -2.39698410714239       -1.16376224584814
H           62.92739904754402       -3.93255486083138       -2.30606177082546
H           61.68431435366789       -3.04246209194053       -4.46415390662665
H           61.68066645697057       -4.99599309655753       -5.96238905194829
H           61.13647173607178       -7.19940473241711       -6.25262604122987
H           58.95456946329506       -8.60350317570557       -4.89327513377623
H           60.62174766731875       -8.83521175240259       -4.30614895998752
H           60.19178921572815       -9.24315584549328       -5.98784945314030
H           58.98497410331556       -7.01871973982066       -3.29444306174055
H           59.00648635454340       -5.07500817719767       -1.80950823596522
H           57.77644184268643       -3.22412183445207       -3.21214269032066
H           55.88503359452460       -1.71697763383214       -2.03239491492224
H           55.91119627712094        1.71705813901022        1.94232259789935
H           57.81818376690583        3.23533483967175        3.08203659965256
H           59.04891052073574        5.06856538186553        1.63799091178723
H           59.05581674306514        7.03583079059249        3.09232972611783
H           60.79580503219184        7.03581264794085        6.31565895034020
H           59.36536444295832        8.79612638075406        4.46315294949324
H           59.57760918673522        8.94418316364004        6.21557421673345
H           58.41904164482298        7.75773916065103        5.56010558439053
H           61.75238360555033        5.03092058855952        5.77263119365006
H           61.73748014574995        3.05856867325282        4.29877901336405
H           62.96959871514382        3.90282181463125        2.13594579165957
H           64.85562498401863        2.32902273855670        1.02002714212916
C           43.45842826338464        0.00341618592441        0.04838651912692
C           44.67599364818075       -0.00340543086277        0.04654259604158
C           54.31499350964427       -0.00372089224908       -0.03419460004405
C           55.53269383939551       -0.00619631470404       -0.03756357405521
Ni          49.49511027133133        0.00881182060048       -0.00244740645246
C           46.08477746855699       -0.00610146125679        0.04122594209451
C           46.76344412863261       -1.11903973270595       -0.46897734014275
C           46.11369407898122       -2.28885728178704       -0.96470667826182
C           47.06431545601444       -3.03928602207530       -1.57387153321986
C           48.29961983514723       -2.33180607304868       -1.43656323115112
N           48.10900391703822       -1.17598807106068       -0.71336169104313
C           49.47481986073100       -2.67250625932907       -2.09536221032806
C           49.46116606941260       -3.82813202750998       -3.02513062360243
C           49.27803466742269       -5.12805274265920       -2.54949153231676
C           49.26537549896332       -6.20186975542483       -3.42049932716919
C           49.42817166243041       -6.00352354994254       -4.79665690262417
N           49.34639655707916       -7.10491815529545       -5.63793824097505
C           49.97932277656246       -7.05273491407110       -6.94950951549787
C           49.59903352347017       -4.70247017077795       -5.27733838940638
C           49.62319787896597       -3.63379892827436       -4.39676103603491
C           50.65990173330098       -1.96821613004797       -1.92267967574965
C           51.89010301442230       -2.29155589745910       -2.57665721718728
C           52.85374188956438       -1.53809253078890       -1.99236445823020
N           50.86726170291929       -0.99247641020310       -0.97344999441092
C           52.21643542901293       -0.76233352778606       -0.97811408720581
C           52.90600637220167        0.00390155273417       -0.03061904258757
C           52.23133609541987        0.78038027626107        0.91949517313552
C           52.87886439547056        1.53025975738909        1.94581459509836
C           51.92680599301335        2.29629962270606        2.53476910421957
C           50.69748183070155        2.01653003435359        1.86046847035430
N           50.88614857401671        1.03449248826242        0.91484592597266
C           49.51310649714294        2.71906860232190        2.05765710828745
C           49.52267835287419        3.89963746691113        2.94646769590390
C           48.64633642436510        3.98782535567335        4.03026819807483
C           48.65249703677046        5.08864177796174        4.86940795274083
C           49.54328383152591        6.14129570752475        4.63996245630037
N           49.55478136916126        7.29221752009601        5.41322973301817
C           49.05148111357324        7.24966890234068        6.77957264779127
C           50.41537138841762        6.06414874757527        3.54674470816169
C           50.40819596531683        4.95783554414137        2.71927553106490
C           48.32043774422362        2.34666917084084        1.44630408037987
C           47.09564298985963        3.07762387403834        1.54694734713427
C           46.13270471362094        2.30580732791382        0.98404314666977
C           46.76953985617576        1.11190070947309        0.53255127815340
N           48.11799157646263        1.17052951395665        0.76077052893670
H           45.06076190425301       -2.49358176194171       -0.86623635838187
H           46.94459672739538       -3.97965404058160       -2.08655040467379
H           49.16405206238878       -5.29728722040785       -1.48441063744658
H           49.12916712566471       -7.20826806921356       -3.03865089877129
H           49.53202412411629       -7.97687078763549       -5.15650866880839
H           49.43955664119762       -6.36091370575708       -7.59755460027924
H           51.02704930433312       -6.73828573031776       -6.87971220394018
H           49.93076324499545       -8.04979968281410       -7.38698301756344
H           49.70946687408721       -4.51564288500414       -6.33845038928294
H           49.74982394690296       -2.62772595584003       -4.78159438774167
H           51.99738354634695       -3.01724287247329       -3.36631806546098
H           53.90730166360398       -1.51057442257589       -2.21434596097821
H           53.92832499551051        1.46955722721964        2.18082988712703
H           52.03933474814662        2.98459669481226        3.35660105274356
H           47.96429673188761        3.16886918937591        4.23163812590438
H           47.96106907386790        5.12233353388098        5.70236663551442
H           50.42408387203614        7.80640999235580        5.33829086014638
H           49.52192098472992        6.44611215709637        7.35767712766890
H           49.27185146590744        8.20816382724353        7.24937034048321
H           47.97060146022989        7.10347309775377        6.77543915025982
H           51.09903896683669        6.88365350807304        3.35130533431077
H           51.08124543290135        4.91844555695091        1.86978896470191
H           46.99322625736379        4.05689416882710        1.98521225290329
H           45.08283528233090        2.51994018513640        0.87374860284034

          :  Hamiltonian                  GFN1-xTB          :
         :: total energy            -333.849317125036 Eh    ::
         :: gradient norm              0.000839427546 Eh/a0 ::
         :: HOMO-LUMO gap              0.946695535475 eV    ::
         :: SCC energy              -338.940621537568 Eh    ::
         :: repulsion energy           5.270812337794 Eh    ::

    * Orbital Energies and Occupations

         #    Occupation            Energy/Eh            Energy/eV
      -------------------------------------------------------------
         1        2.0000           -0.7783628             -21.1803
       ...           ...                  ...                  ...
       297        2.0000           -0.3872934             -10.5388
       298        2.0000           -0.3866633             -10.5216
       299        2.0000           -0.3863742             -10.5138
       300        2.0000           -0.3862062             -10.5092
       301        2.0000           -0.3855717             -10.4919
       302        2.0000           -0.3855358             -10.4910
       303        2.0000           -0.3851266             -10.4798
       304        2.0000           -0.3851181             -10.4796
       305        2.0000           -0.3850793             -10.4785
       306        2.0000           -0.3849377             -10.4747
       307        2.0000           -0.3834880             -10.4352
       308        2.0000           -0.3774082             -10.2698
       309        2.0000           -0.3682387             -10.0203 (HOMO)
       310                         -0.3334483              -9.0736 (LUMO)
       311                         -0.3220103              -8.7623
       312                         -0.3185040              -8.6669
       313                         -0.3181932              -8.6585
       314                         -0.3179883              -8.6529
       315                         -0.3169925              -8.6258
       316                         -0.3166157              -8.6156
       317                         -0.3139076              -8.5419
       318                         -0.3102652              -8.4427
       319                         -0.2900730              -7.8933
       320                         -0.2817933              -7.6680
       ...                                ...                  ...
       671                          1.3461811              36.6315
      -------------------------------------------------------------
                  HL-Gap            0.0347904 Eh            0.9467 eV

Wiberg/Mayer (AO) data.
largest (>0.10) Wiberg bond orders for each atom

     #   Z sym  total        # sym  WBO       # sym  WBO       # sym  WBO
 ---------------------------------------------------------------------------
     1  28 Ni   3.020 --    20 N    0.664    41 N    0.664    27 N    0.664
                             7 N    0.663
     2   6 C    3.931 --     3 C    1.363    40 C    1.363    42 H    0.970
     3   6 C    3.925 --     2 C    1.363     7 N    1.212     4 C    1.178
     4   6 C    3.959 --     5 C    1.644     3 C    1.178    43 H    0.975
     5   6 C    3.963 --     4 C    1.644     6 C    1.180    44 H    0.973
     6   6 C    3.918 --     8 C    1.318     7 N    1.222     5 C    1.180
     7   7 N    3.399 --     6 C    1.222     3 C    1.212     1 Ni   0.663
     8   6 C    3.938 --    17 C    1.325     6 C    1.318     9 C    1.034
     9   6 C    3.988 --    16 C    1.384    10 C    1.374     8 C    1.034
    10   6 C    3.988 --    11 C    1.476     9 C    1.374    45 H    0.973
    11   6 C    3.989 --    10 C    1.476    12 C    1.345    46 H    0.971
    12   6 C    3.952 --    15 C    1.354    11 C    1.345    13 N    1.109
    13   7 N    3.179 --    12 C    1.109    14 C    0.971    47 H    0.931
    14   6 C    3.968 --    50 H    0.990    48 H    0.986    49 H    0.984
                            13 N    0.971
    15   6 C    3.990 --    16 C    1.464    12 C    1.354    51 H    0.970
    16   6 C    3.988 --    15 C    1.464     9 C    1.384    52 H    0.972
    17   6 C    3.914 --     8 C    1.325    20 N    1.206    18 C    1.187
    18   6 C    3.959 --    19 C    1.631    17 C    1.187    53 H    0.972
    19   6 C    3.961 --    18 C    1.631    21 C    1.195    54 H    0.966
    20   7 N    3.404 --    21 C    1.236    17 C    1.206     1 Ni   0.664
    21   6 C    3.909 --    22 C    1.265    20 N    1.236    19 C    1.195
    22   6 C    3.942 --    21 C    1.265    23 C    1.265   133 C    1.176
    23   6 C    3.909 --    22 C    1.265    27 N    1.236    24 C    1.195
    24   6 C    3.961 --    25 C    1.630    23 C    1.195    55 H    0.966
    25   6 C    3.959 --    24 C    1.630    26 C    1.187    56 H    0.973
    26   6 C    3.914 --    28 C    1.324    27 N    1.206    25 C    1.187
    27   7 N    3.404 --    23 C    1.236    26 C    1.206     1 Ni   0.664
    28   6 C    3.938 --    26 C    1.324    37 C    1.319    29 C    1.034
    29   6 C    3.988 --    30 C    1.384    36 C    1.374    28 C    1.034
    30   6 C    3.988 --    31 C    1.464    29 C    1.384    57 H    0.972
    31   6 C    3.990 --    30 C    1.464    32 C    1.354    58 H    0.970
    32   6 C    3.952 --    31 C    1.354    35 C    1.345    33 N    1.109
    33   7 N    3.179 --    32 C    1.109    34 C    0.971    59 H    0.931
    34   6 C    3.968 --    61 H    0.990    60 H    0.986    62 H    0.984
                            33 N    0.971
    35   6 C    3.989 --    36 C    1.476    32 C    1.345    63 H    0.971
    36   6 C    3.988 --    35 C    1.476    29 C    1.374    64 H    0.972
    37   6 C    3.918 --    28 C    1.319    41 N    1.221    38 C    1.180
    38   6 C    3.963 --    39 C    1.645    37 C    1.180    65 H    0.973
    39   6 C    3.959 --    38 C    1.645    40 C    1.178    66 H    0.975
    40   6 C    3.925 --     2 C    1.363    41 N    1.212    39 C    1.178
    41   7 N    3.399 --    37 C    1.221    40 C    1.212     1 Ni   0.664
    42   1 H    1.001 --     2 C    0.970
    43   1 H    0.998 --     4 C    0.975
    44   1 H    1.005 --     5 C    0.973
    45   1 H    1.005 --    10 C    0.973
    46   1 H    0.999 --    11 C    0.971
    47   1 H    0.966 --    13 N    0.931
    48   1 H    1.012 --    14 C    0.986
    49   1 H    1.003 --    14 C    0.984
    50   1 H    1.007 --    14 C    0.990
    51   1 H    1.001 --    15 C    0.970
    52   1 H    1.005 --    16 C    0.972
    53   1 H    1.005 --    18 C    0.972
    54   1 H    1.007 --    19 C    0.966
    55   1 H    1.007 --    24 C    0.966
    56   1 H    1.005 --    25 C    0.973
    57   1 H    1.005 --    30 C    0.972
    58   1 H    1.001 --    31 C    0.970
    59   1 H    0.966 --    33 N    0.931
    60   1 H    1.012 --    34 C    0.986
    61   1 H    1.007 --    34 C    0.990
    62   1 H    1.003 --    34 C    0.984
    63   1 H    0.999 --    35 C    0.971
    64   1 H    1.005 --    36 C    0.972
    65   1 H    1.005 --    38 C    0.973
    66   1 H    0.998 --    39 C    0.975
    67  28 Ni   3.021 --    86 N    0.664   107 N    0.664    93 N    0.664
                            73 N    0.663
    68   6 C    3.932 --    69 C    1.363   106 C    1.363   108 H    0.970
    69   6 C    3.925 --    68 C    1.363    73 N    1.212    70 C    1.178
    70   6 C    3.959 --    71 C    1.644    69 C    1.178   109 H    0.975
    71   6 C    3.963 --    70 C    1.644    72 C    1.180   110 H    0.973
    72   6 C    3.918 --    74 C    1.319    73 N    1.222    71 C    1.180
    73   7 N    3.399 --    72 C    1.222    69 C    1.212    67 Ni   0.663
    74   6 C    3.938 --    83 C    1.325    72 C    1.319    75 C    1.034
    75   6 C    3.988 --    82 C    1.384    76 C    1.374    74 C    1.034
    76   6 C    3.988 --    77 C    1.476    75 C    1.374   111 H    0.973
    77   6 C    3.989 --    76 C    1.476    78 C    1.346   112 H    0.971
    78   6 C    3.952 --    81 C    1.354    77 C    1.346    79 N    1.108
    79   7 N    3.178 --    78 C    1.108    80 C    0.971   113 H    0.931
    80   6 C    3.968 --   116 H    0.990   114 H    0.986   115 H    0.984
                            79 N    0.971
    81   6 C    3.990 --    82 C    1.464    78 C    1.354   117 H    0.970
    82   6 C    3.988 --    81 C    1.464    75 C    1.384   118 H    0.972
    83   6 C    3.914 --    74 C    1.325    86 N    1.206    84 C    1.187
    84   6 C    3.959 --    85 C    1.630    83 C    1.187   119 H    0.973
    85   6 C    3.961 --    84 C    1.630    87 C    1.195   120 H    0.965
    86   7 N    3.404 --    87 C    1.236    83 C    1.206    67 Ni   0.664
    87   6 C    3.909 --    88 C    1.265    86 N    1.236    85 C    1.195
    88   6 C    3.942 --    87 C    1.265    89 C    1.265   136 C    1.176
    89   6 C    3.909 --    88 C    1.265    93 N    1.236    90 C    1.196
    90   6 C    3.961 --    91 C    1.630    89 C    1.196   121 H    0.966
    91   6 C    3.959 --    90 C    1.630    92 C    1.188   122 H    0.973
    92   6 C    3.914 --    94 C    1.324    93 N    1.206    91 C    1.188
    93   7 N    3.404 --    89 C    1.236    92 C    1.206    67 Ni   0.664
    94   6 C    3.938 --    92 C    1.324   103 C    1.319    95 C    1.034
    95   6 C    3.988 --    96 C    1.384   102 C    1.374    94 C    1.034
    96   6 C    3.988 --    97 C    1.464    95 C    1.384   123 H    0.972
    97   6 C    3.990 --    96 C    1.464    98 C    1.354   124 H    0.970
    98   6 C    3.952 --    97 C    1.354   101 C    1.345    99 N    1.109
    99   7 N    3.179 --    98 C    1.109   100 C    0.972   125 H    0.931
   100   6 C    3.968 --   127 H    0.990   126 H    0.986   128 H    0.984
                            99 N    0.972
   101   6 C    3.989 --   102 C    1.476    98 C    1.345   129 H    0.971
   102   6 C    3.988 --   101 C    1.476    95 C    1.374   130 H    0.972
   103   6 C    3.918 --    94 C    1.319   107 N    1.221   104 C    1.180
   104   6 C    3.963 --   105 C    1.645   103 C    1.180   131 H    0.973
   105   6 C    3.959 --   104 C    1.645   106 C    1.178   132 H    0.975
   106   6 C    3.925 --    68 C    1.363   107 N    1.212   105 C    1.178
   107   7 N    3.399 --   103 C    1.221   106 C    1.212    67 Ni   0.664
   108   1 H    1.001 --    68 C    0.970
   109   1 H    0.998 --    70 C    0.975
   110   1 H    1.005 --    71 C    0.973
   111   1 H    1.005 --    76 C    0.973
   112   1 H    0.999 --    77 C    0.971
   113   1 H    0.966 --    79 N    0.931
   114   1 H    1.012 --    80 C    0.986
   115   1 H    1.003 --    80 C    0.984
   116   1 H    1.007 --    80 C    0.990
   117   1 H    1.001 --    81 C    0.970
   118   1 H    1.005 --    82 C    0.972
   119   1 H    1.005 --    84 C    0.973
   120   1 H    1.007 --    85 C    0.965
   121   1 H    1.007 --    90 C    0.966
   122   1 H    1.005 --    91 C    0.973
   123   1 H    1.005 --    96 C    0.972
   124   1 H    1.001 --    97 C    0.970
   125   1 H    0.966 --    99 N    0.931
   126   1 H    1.012 --   100 C    0.986
   127   1 H    1.007 --   100 C    0.990
   128   1 H    1.004 --   100 C    0.984
   129   1 H    0.999 --   101 C    0.971
   130   1 H    1.005 --   102 C    0.972
   131   1 H    1.005 --   104 C    0.973
   132   1 H    0.998 --   105 C    0.975
   133   6 C    3.934 --   134 C    2.581    22 C    1.176
   134   6 C    3.937 --   133 C    2.581   138 C    1.178
   135   6 C    3.937 --   136 C    2.580   158 C    1.178
   136   6 C    3.934 --   135 C    2.580    88 C    1.176
   137  28 Ni   3.031 --   156 N    0.664   143 N    0.664   177 N    0.663
                           163 N    0.663
   138   6 C    3.932 --   139 C    1.263   176 C    1.261   134 C    1.178
   139   6 C    3.909 --   138 C    1.263   143 N    1.236   140 C    1.195
   140   6 C    3.960 --   141 C    1.631   139 C    1.195   178 H    0.966
   141   6 C    3.960 --   140 C    1.631   142 C    1.189   179 H    0.973
   142   6 C    3.912 --   144 C    1.325   143 N    1.203   141 C    1.189
   143   7 N    3.398 --   139 C    1.236   142 C    1.203   137 Ni   0.664
   144   6 C    3.933 --   153 C    1.327   142 C    1.325   145 C    1.021
   145   6 C    3.988 --   152 C    1.390   146 C    1.380   144 C    1.021
   146   6 C    3.989 --   147 C    1.472   145 C    1.380   180 H    0.973
   147   6 C    3.990 --   146 C    1.472   148 C    1.348   181 H    0.971
                           152 C    0.101
   148   6 C    3.955 --   151 C    1.356   147 C    1.348   149 N    1.106
   149   7 N    3.177 --   148 C    1.106   150 C    0.972   182 H    0.932
   150   6 C    3.968 --   185 H    0.990   183 H    0.986   184 H    0.984
                           149 N    0.972
   151   6 C    3.990 --   152 C    1.461   148 C    1.356   186 H    0.970
   152   6 C    3.989 --   151 C    1.461   145 C    1.390   187 H    0.973
                           147 C    0.101
   153   6 C    3.912 --   144 C    1.327   156 N    1.202   154 C    1.188
   154   6 C    3.960 --   155 C    1.631   153 C    1.188   188 H    0.973
   155   6 C    3.960 --   154 C    1.631   157 C    1.195   189 H    0.966
   156   7 N    3.397 --   157 C    1.236   153 C    1.202   137 Ni   0.664
   157   6 C    3.909 --   158 C    1.263   156 N    1.236   155 C    1.195
   158   6 C    3.932 --   157 C    1.263   159 C    1.261   135 C    1.178
   159   6 C    3.909 --   158 C    1.261   163 N    1.235   160 C    1.198
   160   6 C    3.957 --   161 C    1.625   159 C    1.198   190 H    0.966
   161   6 C    3.960 --   160 C    1.625   162 C    1.191   191 H    0.973
   162   6 C    3.912 --   164 C    1.318   163 N    1.205   161 C    1.191
   163   7 N    3.397 --   159 C    1.235   162 C    1.205   137 Ni   0.663
   164   6 C    3.934 --   173 C    1.319   162 C    1.318   165 C    1.041
   165   6 C    3.987 --   166 C    1.381   172 C    1.370   164 C    1.041
   166   6 C    3.985 --   167 C    1.466   165 C    1.381   192 H    0.972
   167   6 C    3.989 --   166 C    1.466   168 C    1.352   193 H    0.970
   168   6 C    3.951 --   167 C    1.352   171 C    1.344   169 N    1.110
   169   7 N    3.180 --   168 C    1.110   170 C    0.971   194 H    0.931
   170   6 C    3.968 --   196 H    0.990   197 H    0.986   195 H    0.984
                           169 N    0.971
   171   6 C    3.989 --   172 C    1.479   168 C    1.344   198 H    0.971
   172   6 C    3.986 --   171 C    1.479   165 C    1.370   199 H    0.972
   173   6 C    3.912 --   164 C    1.319   177 N    1.204   174 C    1.190
   174   6 C    3.960 --   175 C    1.626   173 C    1.190   200 H    0.973
   175   6 C    3.958 --   174 C    1.626   176 C    1.198   201 H    0.966
   176   6 C    3.909 --   138 C    1.261   177 N    1.235   175 C    1.198
   177   7 N    3.397 --   176 C    1.235   173 C    1.204   137 Ni   0.663
   178   1 H    1.006 --   140 C    0.966
   179   1 H    1.005 --   141 C    0.973
   180   1 H    1.004 --   146 C    0.973
   181   1 H    0.999 --   147 C    0.971
   182   1 H    0.966 --   149 N    0.932
   183   1 H    1.012 --   150 C    0.986
   184   1 H    1.004 --   150 C    0.984
   185   1 H    1.007 --   150 C    0.990
   186   1 H    1.001 --   151 C    0.970
   187   1 H    1.004 --   152 C    0.973
   188   1 H    1.005 --   154 C    0.973
   189   1 H    1.007 --   155 C    0.966
   190   1 H    1.006 --   160 C    0.966
   191   1 H    1.005 --   161 C    0.973
   192   1 H    1.006 --   166 C    0.972
   193   1 H    1.001 --   167 C    0.970
   194   1 H    0.966 --   169 N    0.931
   195   1 H    1.003 --   170 C    0.984
   196   1 H    1.007 --   170 C    0.990
   197   1 H    1.012 --   170 C    0.986
   198   1 H    0.999 --   171 C    0.971
   199   1 H    1.006 --   172 C    0.972
   200   1 H    1.005 --   174 C    0.973
   201   1 H    1.006 --   175 C    0.966
 ---------------------------------------------------------------------------

           -------------------------------------------------
          | TOTAL ENERGY             -333.849317125036 Eh   |
          | GRADIENT NORM               0.000839427546 Eh/α |
          | HOMO-LUMO GAP               0.946695535475 eV   |
           -------------------------------------------------

 * finished run on 2022/07/30 at 02:38:17.703
