   * xtb version 6.5.1 (b24c23e) compiled by 'conda@728c89f4b128' on 2022-07-12
          program call               : xtb Co_NMA_C2_3.xyz --gfn 1 --opt -T 48

   ID    Z sym.   atoms
    1   27 Co     1, 67, 137
    2    6 C      2-6, 8-12, 14-19, 21-26, 28-32, 34-40, 68-72, 74-78, 80-85,
                  87-92, 94-98, 100-106, 133-136, 138-142, 144-148, 150-155,
                  157-162, 164-168, 170-176
    3    7 N      7, 13, 20, 27, 33, 41, 73, 79, 86, 93, 99, 107, 143, 149,
                  156, 163, 169, 177
    4    1 H      42-66, 108-132, 178-201

          :  Hamiltonian                  GFN1-xTB          :
 * total energy  :  -309.3338902 Eh     change        0.1863958E-07 Eh
 * total energy  :  -325.9287243 Eh     change       -0.1659483E+02 Eh
 * total energy  :  -328.0392072 Eh     change       -0.2110483E+01 Eh
 * total energy  :  -329.3746962 Eh     change       -0.1335489E+01 Eh
 * total energy  :  -330.0654376 Eh     change       -0.6907414E+00 Eh
 * total energy  :  -330.4497489 Eh     change       -0.3843113E+00 Eh
 * total energy  :  -330.6764144 Eh     change       -0.2266655E+00 Eh
 * total energy  :  -330.8270499 Eh     change       -0.1506354E+00 Eh
 * total energy  :  -330.9447891 Eh     change       -0.1177393E+00 Eh
 * total energy  :  -331.0510741 Eh     change       -0.1062849E+00 Eh
 * total energy  :  -331.9504477 Eh     change       -0.8846442E-05 Eh
 * total energy  :  -331.9504579 Eh     change       -0.1019226E-04 Eh
 * total energy  :  -331.9504672 Eh     change       -0.9268564E-05 Eh
 * total energy  :  -331.9504744 Eh     change       -0.7278039E-05 Eh
 * total energy  :  -331.9504813 Eh     change       -0.6859476E-05 Eh
 * total energy  :  -331.9504889 Eh     change       -0.7569299E-05 Eh
 * total energy  :  -331.9504964 Eh     change       -0.7556421E-05 Eh
 * total energy  :  -331.9505031 Eh     change       -0.6683926E-05 Eh
 * total energy  :  -331.9505081 Eh     change       -0.4976929E-05 Eh
   *** GEOMETRY OPTIMIZATION CONVERGED AFTER 81 ITERATIONS ***

 final structure:
================
201
 xtb: 6.5.1 (b24c23e)
Co          38.68606029232122        0.08547329038334        0.01109317166176
C           35.31601149929698        0.11755560043335       -0.00291780236574
C           35.97675321012098        0.80258912777367        0.99527815925561
C           35.32657131035239        1.50256748329846        2.06037732621380
C           36.28470977583422        2.22095275045996        2.69432562373402
C           37.51603329151997        1.96951597946156        2.00474018394729
N           37.32838213809142        1.04201957378027        1.01406522406338
C           38.69777011521182        2.67150392543604        2.22100384191051
C           38.69994764347010        3.80013212420980        3.17422413621460
C           37.81014136039376        4.86775199297312        3.01947456813764
C           37.81027311704653        5.92340942545468        3.91058147350323
C           38.69300450096208        5.93686144997558        4.99798613380807
N           38.68567177792601        7.03736635618058        5.84055551842040
C           39.19540718517959        6.91216173088076        7.19920107485891
C           39.58926359329812        4.87512258990446        5.15433096424281
C           39.58950418714948        3.82683553451425        4.25056373227989
C           39.87135969107557        2.33882906225372        1.55853993604317
C           41.10106664928208        3.06134812181880        1.68060418373690
C           42.05277848820461        2.31837485733658        1.06438277068033
N           40.05913229776288        1.20417625568878        0.80211558496314
C           41.40273279261762        1.15292748518522        0.55727344806363
C           42.07882078544320        0.04518142943100        0.03235585097686
C           41.38234101598318       -1.04709815169737       -0.49847854993176
C           42.01075195758694       -2.22699019909926       -0.99930681480533
C           41.05062869863920       -2.94297908511447       -1.63421086537805
C           39.83762476285033       -2.19042887943162       -1.52768462703440
N           40.04155294658378       -1.06485918665534       -0.76245059960797
C           38.66641794951638       -2.49126519776671       -2.20978002386152
C           38.66322415816153       -3.60924189994399       -3.17511332466503
C           39.57218401958701       -3.63777030613189       -4.23526709618057
C           39.57662535657067       -4.67857066752960       -5.14734167234951
C           38.67528430986848       -5.73821763404842       -5.00756595135209
N           38.60773803846747       -6.78403923509164       -5.91490582670867
C           39.77840274374957       -7.12574992597575       -6.71154915613483
C           37.75933663507163       -5.71313840628533       -3.94816257947833
C           37.75208296470490       -4.66262247586113       -3.05089390480309
C           37.49704857069258       -1.76689053048366       -2.00181841889039
C           36.26724824300438       -1.99041244326820       -2.70359252522853
C           35.31726503660457       -1.25924976948925       -2.07204004082280
C           35.97152533282024       -0.57786588945332       -0.99737824797482
N           37.31847482407729       -0.84235878919274       -1.00642211365600
H           34.23232362793582        0.12800848600288       -0.00724995980282
H           34.27127098850370        1.44552394895551        2.27574398840444
H           36.17884982762040        2.86646227316960        3.55129165306798
H           37.12783229557523        4.87669456625029        2.17651510473335
H           37.12325887083947        6.75154624967841        3.77132321440858
H           37.81871695963601        7.55932398563114        5.79863541870424
H           40.27667037170388        6.76935244106603        7.18144505361714
H           38.72960021770397        6.07301521407954        7.72853858922126
H           38.97474085684338        7.83911871440549        7.72850698339195
H           40.28909980731544        4.86107268785460        5.98088853760319
H           40.27620758054071        2.99968363313629        4.39450419919486
H           41.21224176098218        4.01340024866297        2.17356056471914
H           43.10448421849965        2.52798210178583        0.96146582836733
H           43.05469546634398       -2.46438310419475       -0.87887737842953
H           41.14584688620703       -3.89530828760381       -2.13004110411841
H           40.27002755654419       -2.81692128694345       -4.36027811739769
H           40.28230970097622       -4.65916332927253       -5.96874698886326
H           38.14403560124447       -7.60174352268646       -5.53787905292693
H           39.98036002073921       -6.33647742765658       -7.43683914746305
H           39.56141663285280       -8.04772728437110       -7.25093496235229
H           40.66425007909719       -7.27319921947139       -6.08320378996373
H           37.05405461275652       -6.52962226995230       -3.83374011021994
H           37.05041576553633       -4.66761461836261       -2.22393408530565
H           36.15669021982691       -2.62779890513332       -3.56596367637754
H           34.26501145803238       -1.18104882272075       -2.29548856886222
Co          60.30813797786183       -0.00910482651068       -0.07036478400422
C           63.67821030663547       -0.01843120740667       -0.07405762532447
C           63.01623521371012       -1.13918728034337       -0.53004267841329
C           63.66499709080110       -2.33453920523041       -0.97452875474425
C           62.70864525439172       -3.10527912808882       -1.54665397038459
C           61.47989633095841       -2.37167797778615       -1.46331094237511
N           61.66657474013682       -1.20326850641590       -0.77260060441207
C           60.30230153048743       -2.73011113513036       -2.11188988562624
C           60.30026753201641       -3.90713847158343       -3.00469708944280
C           61.19857133083241       -3.99615488043004       -4.07270243123858
C           61.19585260861474       -5.09553462420021       -4.90931303091702
C           60.30150072627669       -6.15171684313359       -4.69393484080447
N           60.30629014069913       -7.21310569722905       -5.58591723681922
C           59.77857202478030       -8.50644950398234       -5.17292775377121
C           59.39713035050602       -6.06579567649497       -3.63120834917476
C           59.40007782581848       -4.95592964861345       -2.80414265142413
C           59.13100040642779       -2.00462558322582       -1.94248114887635
C           57.90634191372616       -2.27412901651745       -2.63294700762632
C           56.95290612267716       -1.50731345623117       -2.04953147250156
N           58.93931944902418       -1.01915642660211       -1.00071262830390
C           57.59677160220750       -0.76390873255304       -1.01478381955623
C           56.91501043629761       -0.01031826466338       -0.05181971386037
C           57.60648341210560        0.74722052563894        0.90099065216558
C           56.97316718371773        1.49802685021901        1.93690234363535
C           57.93167192524699        2.27273847759636        2.50163022017550
C           59.14894415842988        1.99893591194332        1.80004135053983
N           58.94842735348369        1.00511917880487        0.86932196011136
C           60.32212771778683        2.72568822744566        1.95247000361270
C           60.32586221888085        3.91335331064557        2.83091716385088
C           59.42525368016775        4.95983403376717        2.62007785797091
C           59.42618490435454        6.08053822633463        3.43224557912630
C           60.32489637059090        6.17365061032955        4.49916254973259
N           60.40042940528241        7.29170081515110        5.31548233077359
C           59.23739356944996        8.15537019565305        5.46719203110772
C           61.23108665992520        5.12762546371860        4.71459643587251
C           61.23276992945868        4.01911648595344        3.89005722563064
C           61.49529063281368        2.35813862023555        1.30131676919275
C           62.72790807640038        3.08645338435891        1.37494291118155
C           63.67966510959503        2.30395527255960        0.81130908190126
C           63.02384589416652        1.10811266645622        0.37872265452643
N           61.67486541089174        1.18193082957472        0.62169655260912
H           64.76195419448229       -0.02207396027271       -0.07442397734150
H           64.71837198912013       -2.53713909948907       -0.86195321044781
H           62.81416687839615       -4.08270106685399       -1.98915140621197
H           61.88949567022851       -3.18125037963512       -4.25917026970219
H           61.88946875228618       -5.14577058959727       -5.74212536595174
H           61.17904047488763       -7.29547310929567       -6.09323250511792
H           58.69565275891993       -8.44834188022618       -5.05562577762129
H           60.22580107007882       -8.84172763827851       -4.23019541890910
H           60.00616493469745       -9.22894489721464       -5.95669587675371
H           58.68827720990090       -6.86310874437422       -3.44412240100781
H           58.70673172894845       -4.91066656502883       -1.97126045697747
H           57.79944236629101       -2.96047183142553       -3.45713302226161
H           55.90407746054944       -1.44535474750277       -2.28764708016418
H           55.92717122328185        1.43632809451741        2.18749704075796
H           57.83284431781863        2.96703310696775        3.32024188171195
H           58.73016864535052        4.90477549028602        1.78925230337912
H           58.72731046456251        6.88241322902857        3.22801401057388
H           60.86003807496976        7.10307563875213        6.19810684873276
H           59.04208710088974        8.68663772960641        4.53475991060222
H           59.45958332096682        8.88615377820781        6.24481792420384
H           58.34559090540684        7.58449036023050        5.75039227770630
H           61.93381945482444        5.19227430282636        5.53872185976801
H           61.92744747538377        3.20862691173406        4.08172264209080
H           62.83907932653526        4.06843808968750        1.80565849793067
H           64.73397537837823        2.49968376052608        0.69547416548584
C           43.48294940408542        0.03110589631232        0.03086884695458
C           44.70217531010860        0.01759816682048        0.01943227904750
C           54.29120627252585       -0.00998989805317       -0.04219771973857
C           55.51058991952574       -0.01049172682438       -0.04555307214068
Co          49.49533598603153        0.04323125726326       -0.05931764965231
C           46.10556361023113        0.01170440585029        0.01198371884037
C           46.79024887738747       -1.12565255223260       -0.43515416968123
C           46.14701734622093       -2.31902441925917       -0.88153104233182
C           47.09754410807400       -3.07427541832504       -1.48510555693462
C           48.32424677921879       -2.34303500826628       -1.39528308431708
N           48.13214170981935       -1.17768772806571       -0.68909111905119
C           49.47497813583645       -2.64799651396878       -2.11215828441851
C           49.46336710652621       -3.80842614085619       -3.03108866266415
C           49.29685195781749       -5.10585920342847       -2.54005286574909
C           49.29426966725502       -6.18952108079502       -3.39773668082512
C           49.44978804565617       -6.00557877634964       -4.77732883039429
N           49.38335039600775       -7.11754061234818       -5.60365008563716
C           50.00074935308508       -7.07335084233522       -6.92241693681875
C           49.59941735278910       -4.70756619107000       -5.27410510378172
C           49.61508582150037       -3.62860387770658       -4.40654933056464
C           50.63715911477485       -1.89489277367077       -1.99211537500360
C           51.85647066783243       -2.16720220393125       -2.68934079828453
C           52.82041830495064       -1.41832045650041       -2.09823947434134
N           50.84962331787981       -0.94960003833193       -1.01577671694668
C           52.19222947145879       -0.69900995998865       -1.03795443642153
C           52.88756338862839       -0.00148118169238       -0.04102052316635
C           52.20519125747157        0.70921161072653        0.95478530744735
C           52.84190415039333        1.39812076968484        2.03006430331503
C           51.89084719066092        2.16206699277855        2.62390263691857
C           50.67695326429121        1.94257492329886        1.89977426111323
N           50.86622200467097        0.98206253093627        0.93400305386890
C           49.51807440640042        2.69689661169904        2.04796694153287
C           49.53074051479370        3.87056010843307        2.94114864153491
C           48.58182087189405        4.00855060400610        3.95743764198875
C           48.58929483124485        5.10530617588167        4.80088756428782
C           49.55278403530496        6.10648708308524        4.64270110971239
N           49.57186822150215        7.25307813603227        5.41941058522766
C           48.95824451499534        7.24698936711196        6.74010935238692
C           50.49799053120743        5.98046695602645        3.61627312094187
C           50.49052896396473        4.87652276801077        2.78653107066142
C           48.34745814246382        2.37126491612710        1.37094983877421
C           47.14058122533711        3.13763779681149        1.40800350187409
C           46.17604528281639        2.37286284327147        0.83634433610155
C           46.79826728128287        1.15098016773031        0.44306109506833
N           48.13789126912449        1.18622333772532        0.70706458030316
H           45.09748689104479       -2.53147187484426       -0.76324151713735
H           46.97959759572032       -4.02776149085657       -1.97340516660645
H           49.19349954148901       -5.26468042476023       -1.47230150207238
H           49.17330153280406       -7.19310638048400       -3.00366909935987
H           49.58195959089068       -7.98140780799085       -5.11351928840909
H           49.44427726667126       -6.39769653419797       -7.57323936375244
H           51.04445617786087       -6.74337993802637       -6.86788657112517
H           49.96155466576020       -8.07674890220726       -7.34638380275957
H           49.70061990259119       -4.53211342072663       -6.33805515066782
H           49.72270152312290       -2.62559337067205       -4.80482319664130
H           51.96068993940907       -2.86147556603555       -3.50709232850147
H           53.86909524335449       -1.36522906027543       -2.33917714045488
H           53.88410283122495        1.30551449715539        2.28689239556837
H           51.99451785967986        2.81499953097418        3.47524486555865
H           47.84231216106429        3.22902071152614        4.10497286007457
H           47.84240936140963        5.17678563384510        5.58195844788739
H           50.46894649650633        7.72279528303768        5.40914022976370
H           49.33519385456132        6.42210443867341        7.35546917467182
H           49.19290993937284        8.19462476030334        7.22486988083682
H           47.87478968374853        7.16066068420318        6.64862224925631
H           51.23854676437568        6.76065512816399        3.47509695899099
H           51.22039795930888        4.80012787853374        1.98807671062373
H           47.04988444654583        4.13155264481889        1.81497621536439
H           45.13469003991257        2.60680284044026        0.68951905981269

          :  Hamiltonian                  GFN1-xTB          :
         :: total energy            -331.950508083291 Eh    ::
         :: gradient norm              0.000474651777 Eh/a0 ::
         :: HOMO-LUMO gap              0.017936005645 eV    ::
         :: SCC energy              -337.062454473179 Eh    ::
         :: repulsion energy           5.290220641083 Eh    ::

    * Orbital Energies and Occupations

         #    Occupation            Energy/Eh            Energy/eV
      -------------------------------------------------------------
         1        2.0000           -0.7814546             -21.2645
       ...           ...                  ...                  ...
       296        2.0000           -0.3800773             -10.3424
       297        2.0000           -0.3798386             -10.3359
       298        2.0000           -0.3798234             -10.3355
       299        1.9999           -0.3774958             -10.2722
       300        1.9999           -0.3772055             -10.2643
       301        1.9999           -0.3769509             -10.2574
       302        1.9999           -0.3769269             -10.2567
       303        1.9999           -0.3769011             -10.2560
       304        1.9999           -0.3768849             -10.2556
       305        1.9998           -0.3765990             -10.2478
       306        1.7382           -0.3695028             -10.0547
       307        1.1930           -0.3679807             -10.0133
       308        1.1914           -0.3679771             -10.0132 (HOMO)
       309        0.8783           -0.3673179              -9.9952 (LUMO)
       310                         -0.3324298              -9.0459
       311                         -0.3197580              -8.7011
       312                         -0.3173920              -8.6367
       313                         -0.3154718              -8.5844
       314                         -0.3153299              -8.5806
       315                         -0.3080871              -8.3835
       316                         -0.2902104              -7.8970
       317                         -0.2810742              -7.6484
       318                         -0.2775701              -7.5531
       319                         -0.2771003              -7.5403
       ...                                ...                  ...
       671                          1.3422313              36.5240
      -------------------------------------------------------------
                  HL-Gap            0.0006591 Eh            0.0179 eV

Wiberg/Mayer (AO) data.
largest (>0.10) Wiberg bond orders for each atom

     #   Z sym  total        # sym  WBO       # sym  WBO       # sym  WBO
 ---------------------------------------------------------------------------
     1  27 Co   3.030 --     7 N    0.631    41 N    0.631    27 N    0.629
                            20 N    0.628
     2   6 C    3.921 --     3 C    1.364    40 C    1.364    42 H    0.970
     3   6 C    3.927 --     2 C    1.364     7 N    1.200     4 C    1.178
     4   6 C    3.957 --     5 C    1.643     3 C    1.178    43 H    0.976
     5   6 C    3.963 --     4 C    1.643     6 C    1.180    44 H    0.973
     6   6 C    3.919 --     8 C    1.307     7 N    1.219     5 C    1.180
     7   7 N    3.338 --     6 C    1.219     3 C    1.200     1 Co   0.631
     8   6 C    3.926 --    17 C    1.329     6 C    1.307     9 C    1.041
     9   6 C    3.985 --    16 C    1.381    10 C    1.370     8 C    1.041
    10   6 C    3.985 --    11 C    1.479     9 C    1.370    45 H    0.972
    11   6 C    3.988 --    10 C    1.479    12 C    1.343    46 H    0.971
    12   6 C    3.950 --    15 C    1.351    11 C    1.343    13 N    1.111
    13   7 N    3.180 --    12 C    1.111    14 C    0.971    47 H    0.931
    14   6 C    3.968 --    50 H    0.990    48 H    0.986    49 H    0.984
                            13 N    0.971
    15   6 C    3.988 --    16 C    1.467    12 C    1.351    51 H    0.970
    16   6 C    3.985 --    15 C    1.467     9 C    1.381    52 H    0.972
    17   6 C    3.917 --     8 C    1.329    20 N    1.193    18 C    1.184
    18   6 C    3.958 --    19 C    1.632    17 C    1.184    53 H    0.973
    19   6 C    3.960 --    18 C    1.632    21 C    1.194    54 H    0.967
    20   7 N    3.339 --    21 C    1.234    17 C    1.193     1 Co   0.628
    21   6 C    3.909 --    22 C    1.254    20 N    1.234    19 C    1.194
    22   6 C    3.926 --    21 C    1.254    23 C    1.254   133 C    1.195
    23   6 C    3.908 --    22 C    1.254    27 N    1.233    24 C    1.194
    24   6 C    3.960 --    25 C    1.631    23 C    1.194    55 H    0.967
    25   6 C    3.958 --    24 C    1.631    26 C    1.184    56 H    0.973
    26   6 C    3.917 --    28 C    1.328    27 N    1.194    25 C    1.184
    27   7 N    3.340 --    23 C    1.233    26 C    1.194     1 Co   0.629
    28   6 C    3.926 --    26 C    1.328    37 C    1.308    29 C    1.042
    29   6 C    3.985 --    30 C    1.380    36 C    1.370    28 C    1.042
    30   6 C    3.985 --    31 C    1.467    29 C    1.380    57 H    0.972
    31   6 C    3.988 --    30 C    1.467    32 C    1.351    58 H    0.970
    32   6 C    3.950 --    31 C    1.351    35 C    1.343    33 N    1.111
    33   7 N    3.179 --    32 C    1.111    34 C    0.971    59 H    0.931
    34   6 C    3.967 --    61 H    0.990    60 H    0.986    62 H    0.984
                            33 N    0.971
    35   6 C    3.988 --    36 C    1.479    32 C    1.343    63 H    0.971
    36   6 C    3.985 --    35 C    1.479    29 C    1.370    64 H    0.972
    37   6 C    3.919 --    28 C    1.308    41 N    1.218    38 C    1.179
    38   6 C    3.963 --    39 C    1.644    37 C    1.179    65 H    0.973
    39   6 C    3.958 --    38 C    1.644    40 C    1.178    66 H    0.975
    40   6 C    3.927 --     2 C    1.364    41 N    1.200    39 C    1.178
    41   7 N    3.338 --    37 C    1.218    40 C    1.200     1 Co   0.631
    42   1 H    1.000 --     2 C    0.970
    43   1 H    0.998 --     4 C    0.976
    44   1 H    1.005 --     5 C    0.973
    45   1 H    1.006 --    10 C    0.972
    46   1 H    0.999 --    11 C    0.971
    47   1 H    0.965 --    13 N    0.931
    48   1 H    1.012 --    14 C    0.986
    49   1 H    1.003 --    14 C    0.984
    50   1 H    1.007 --    14 C    0.990
    51   1 H    1.001 --    15 C    0.970
    52   1 H    1.006 --    16 C    0.972
    53   1 H    1.005 --    18 C    0.973
    54   1 H    1.006 --    19 C    0.967
    55   1 H    1.006 --    24 C    0.967
    56   1 H    1.005 --    25 C    0.973
    57   1 H    1.006 --    30 C    0.972
    58   1 H    1.001 --    31 C    0.970
    59   1 H    0.965 --    33 N    0.931
    60   1 H    1.012 --    34 C    0.986
    61   1 H    1.007 --    34 C    0.990
    62   1 H    1.003 --    34 C    0.984
    63   1 H    0.999 --    35 C    0.971
    64   1 H    1.006 --    36 C    0.972
    65   1 H    1.005 --    38 C    0.973
    66   1 H    0.998 --    39 C    0.975
    67  27 Co   3.031 --   107 N    0.631    73 N    0.631    86 N    0.629
                            93 N    0.628
    68   6 C    3.922 --    69 C    1.364   106 C    1.364   108 H    0.970
    69   6 C    3.927 --    68 C    1.364    73 N    1.200    70 C    1.178
    70   6 C    3.958 --    71 C    1.643    69 C    1.178   109 H    0.976
    71   6 C    3.963 --    70 C    1.643    72 C    1.180   110 H    0.973
    72   6 C    3.919 --    74 C    1.308    73 N    1.219    71 C    1.180
    73   7 N    3.339 --    72 C    1.219    69 C    1.200    67 Co   0.631
    74   6 C    3.927 --    83 C    1.329    72 C    1.308    75 C    1.041
    75   6 C    3.986 --    82 C    1.381    76 C    1.370    74 C    1.041
    76   6 C    3.985 --    77 C    1.479    75 C    1.370   111 H    0.972
    77   6 C    3.988 --    76 C    1.479    78 C    1.343   112 H    0.971
    78   6 C    3.950 --    81 C    1.352    77 C    1.343    79 N    1.111
    79   7 N    3.179 --    78 C    1.111    80 C    0.971   113 H    0.931
    80   6 C    3.968 --   116 H    0.990   114 H    0.986   115 H    0.984
                            79 N    0.971
    81   6 C    3.989 --    82 C    1.466    78 C    1.352   117 H    0.970
    82   6 C    3.985 --    81 C    1.466    75 C    1.381   118 H    0.972
    83   6 C    3.918 --    74 C    1.329    86 N    1.193    84 C    1.184
    84   6 C    3.958 --    85 C    1.632    83 C    1.184   119 H    0.973
    85   6 C    3.960 --    84 C    1.632    87 C    1.194   120 H    0.967
    86   7 N    3.340 --    87 C    1.234    83 C    1.193    67 Co   0.629
    87   6 C    3.909 --    88 C    1.254    86 N    1.234    85 C    1.194
    88   6 C    3.926 --    89 C    1.254    87 C    1.254   136 C    1.195
    89   6 C    3.909 --    88 C    1.254    93 N    1.233    90 C    1.194
    90   6 C    3.960 --    91 C    1.631    89 C    1.194   121 H    0.967
    91   6 C    3.958 --    90 C    1.631    92 C    1.184   122 H    0.973
    92   6 C    3.918 --    94 C    1.327    93 N    1.194    91 C    1.184
    93   7 N    3.340 --    89 C    1.233    92 C    1.194    67 Co   0.628
    94   6 C    3.927 --    92 C    1.327   103 C    1.309    95 C    1.042
    95   6 C    3.985 --    96 C    1.380   102 C    1.370    94 C    1.042
    96   6 C    3.985 --    97 C    1.467    95 C    1.380   123 H    0.972
    97   6 C    3.989 --    96 C    1.467    98 C    1.352   124 H    0.970
    98   6 C    3.950 --    97 C    1.352   101 C    1.343    99 N    1.111
    99   7 N    3.179 --    98 C    1.111   100 C    0.971   125 H    0.931
   100   6 C    3.968 --   127 H    0.990   126 H    0.986   128 H    0.984
                            99 N    0.971
   101   6 C    3.988 --   102 C    1.479    98 C    1.343   129 H    0.971
   102   6 C    3.985 --   101 C    1.479    95 C    1.370   130 H    0.972
   103   6 C    3.919 --    94 C    1.309   107 N    1.218   104 C    1.179
   104   6 C    3.963 --   105 C    1.644   103 C    1.179   131 H    0.973
   105   6 C    3.958 --   104 C    1.644   106 C    1.177   132 H    0.975
   106   6 C    3.927 --    68 C    1.364   107 N    1.200   105 C    1.177
   107   7 N    3.339 --   103 C    1.218   106 C    1.200    67 Co   0.631
   108   1 H    1.000 --    68 C    0.970
   109   1 H    0.998 --    70 C    0.976
   110   1 H    1.005 --    71 C    0.973
   111   1 H    1.006 --    76 C    0.972
   112   1 H    0.999 --    77 C    0.971
   113   1 H    0.965 --    79 N    0.931
   114   1 H    1.012 --    80 C    0.986
   115   1 H    1.003 --    80 C    0.984
   116   1 H    1.007 --    80 C    0.990
   117   1 H    1.001 --    81 C    0.970
   118   1 H    1.006 --    82 C    0.972
   119   1 H    1.005 --    84 C    0.973
   120   1 H    1.006 --    85 C    0.967
   121   1 H    1.006 --    90 C    0.967
   122   1 H    1.005 --    91 C    0.973
   123   1 H    1.006 --    96 C    0.972
   124   1 H    1.001 --    97 C    0.970
   125   1 H    0.965 --    99 N    0.931
   126   1 H    1.012 --   100 C    0.986
   127   1 H    1.007 --   100 C    0.990
   128   1 H    1.003 --   100 C    0.984
   129   1 H    0.999 --   101 C    0.971
   130   1 H    1.006 --   102 C    0.972
   131   1 H    1.005 --   104 C    0.973
   132   1 H    0.998 --   105 C    0.975
   133   6 C    3.921 --   134 C    2.551    22 C    1.195
   134   6 C    3.930 --   133 C    2.551   138 C    1.199
   135   6 C    3.930 --   136 C    2.552   158 C    1.199
   136   6 C    3.922 --   135 C    2.552    88 C    1.195
   137  27 Co   3.084 --   143 N    0.632   163 N    0.631   156 N    0.626
                           177 N    0.624
   138   6 C    3.917 --   139 C    1.252   176 C    1.248   134 C    1.199
   139   6 C    3.910 --   138 C    1.252   143 N    1.234   140 C    1.195
   140   6 C    3.961 --   141 C    1.631   139 C    1.195   178 H    0.967
   141   6 C    3.960 --   140 C    1.631   142 C    1.187   179 H    0.973
   142   6 C    3.914 --   144 C    1.323   143 N    1.196   141 C    1.187
   143   7 N    3.335 --   139 C    1.234   142 C    1.196   137 Co   0.632
   144   6 C    3.922 --   142 C    1.323   153 C    1.319   145 C    1.030
   145   6 C    3.985 --   152 C    1.385   146 C    1.375   144 C    1.030
   146   6 C    3.987 --   147 C    1.476   145 C    1.375   180 H    0.973
   147   6 C    3.988 --   146 C    1.476   148 C    1.345   181 H    0.971
   148   6 C    3.951 --   151 C    1.353   147 C    1.345   149 N    1.110
   149   7 N    3.178 --   148 C    1.110   150 C    0.971   182 H    0.931
   150   6 C    3.967 --   185 H    0.990   183 H    0.986   184 H    0.984
                           149 N    0.971
   151   6 C    3.988 --   152 C    1.464   148 C    1.353   186 H    0.970
   152   6 C    3.987 --   151 C    1.464   145 C    1.385   187 H    0.973
   153   6 C    3.914 --   144 C    1.319   156 N    1.197   154 C    1.188
   154   6 C    3.960 --   155 C    1.629   153 C    1.188   188 H    0.973
   155   6 C    3.961 --   154 C    1.629   157 C    1.196   189 H    0.967
   156   7 N    3.336 --   157 C    1.235   153 C    1.197   137 Co   0.626
   157   6 C    3.911 --   158 C    1.249   156 N    1.235   155 C    1.196
   158   6 C    3.917 --   159 C    1.251   157 C    1.249   135 C    1.199
   159   6 C    3.911 --   158 C    1.251   163 N    1.233   160 C    1.197
   160   6 C    3.959 --   161 C    1.626   159 C    1.197   190 H    0.967
   161   6 C    3.961 --   160 C    1.626   162 C    1.189   191 H    0.973
   162   6 C    3.915 --   164 C    1.315   163 N    1.198   161 C    1.189
   163   7 N    3.334 --   159 C    1.233   162 C    1.198   137 Co   0.631
   164   6 C    3.923 --   162 C    1.315   173 C    1.312   165 C    1.048
   165   6 C    3.985 --   166 C    1.376   172 C    1.366   164 C    1.048
   166   6 C    3.984 --   167 C    1.469   165 C    1.376   192 H    0.972
   167   6 C    3.988 --   166 C    1.469   168 C    1.349   193 H    0.970
   168   6 C    3.948 --   167 C    1.349   171 C    1.340   169 N    1.115
   169   7 N    3.181 --   168 C    1.115   170 C    0.971   194 H    0.930
   170   6 C    3.967 --   196 H    0.990   197 H    0.986   195 H    0.983
                           169 N    0.971
   171   6 C    3.987 --   172 C    1.482   168 C    1.340   198 H    0.971
   172   6 C    3.984 --   171 C    1.482   165 C    1.366   199 H    0.972
   173   6 C    3.915 --   164 C    1.312   177 N    1.199   174 C    1.190
   174   6 C    3.960 --   175 C    1.623   173 C    1.190   200 H    0.973
   175   6 C    3.959 --   174 C    1.623   176 C    1.199   201 H    0.967
   176   6 C    3.911 --   138 C    1.248   177 N    1.234   175 C    1.199
   177   7 N    3.335 --   176 C    1.234   173 C    1.199   137 Co   0.624
   178   1 H    1.006 --   140 C    0.967
   179   1 H    1.005 --   141 C    0.973
   180   1 H    1.004 --   146 C    0.973
   181   1 H    0.999 --   147 C    0.971
   182   1 H    0.966 --   149 N    0.931
   183   1 H    1.012 --   150 C    0.986
   184   1 H    1.003 --   150 C    0.984
   185   1 H    1.007 --   150 C    0.990
   186   1 H    1.001 --   151 C    0.970
   187   1 H    1.004 --   152 C    0.973
   188   1 H    1.005 --   154 C    0.973
   189   1 H    1.006 --   155 C    0.967
   190   1 H    1.006 --   160 C    0.967
   191   1 H    1.005 --   161 C    0.973
   192   1 H    1.006 --   166 C    0.972
   193   1 H    1.001 --   167 C    0.970
   194   1 H    0.965 --   169 N    0.930
   195   1 H    1.003 --   170 C    0.983
   196   1 H    1.007 --   170 C    0.990
   197   1 H    1.011 --   170 C    0.986
   198   1 H    0.999 --   171 C    0.971
   199   1 H    1.006 --   172 C    0.972
   200   1 H    1.004 --   174 C    0.973
   201   1 H    1.006 --   175 C    0.967
 ---------------------------------------------------------------------------

           -------------------------------------------------
          | TOTAL ENERGY             -331.950508083291 Eh   |
          | GRADIENT NORM               0.000474651777 Eh/α |
          | HOMO-LUMO GAP               0.017936005645 eV   |
           -------------------------------------------------

 * finished run on 2022/07/29 at 21:56:35.672
