   * xtb version 6.5.1 (b24c23e) compiled by 'conda@728c89f4b128' on 2022-07-12
          program call               : xtb Fe_DHP_C2_3.xyz --gfn 1 --opt -T 48

   ID    Z sym.   atoms
    1   26 Fe     1, 59, 121
    2    6 C      2-6, 8-11, 13-17, 19-24, 26-29, 31-36, 60-64, 66-69, 71-75,
                  77-82, 84-87, 89-94, 117-120, 122-126, 128-131, 133-137,
                  139-144, 146-149, 151-156
    3    7 N      7, 12, 18, 25, 30, 37, 65, 70, 76, 83, 88, 95, 127, 132,
                  138, 145, 150, 157
    4    1 H      38-58, 96-116, 158-177
########################################################################
[WARNING] Please study the warnings concerning your input carefully
-1- prog_main_parseArguments: Unknown option '-T' provided
########################################################################

          :  Hamiltonian                  GFN1-xTB          :
 * total energy  :  -297.7345336 Eh     change       -0.1609368E-07 Eh
 * total energy  :  -297.9109282 Eh     change       -0.1763945E+00 Eh
 * total energy  :  -298.0650233 Eh     change       -0.1540951E+00 Eh
 * total energy  :  -298.1271326 Eh     change       -0.6210928E-01 Eh
 * total energy  :  -298.1704480 Eh     change       -0.4331538E-01 Eh
 * total energy  :  -298.2092663 Eh     change       -0.3881831E-01 Eh
 * total energy  :  -298.2487430 Eh     change       -0.3947671E-01 Eh
 * total energy  :  -298.2760425 Eh     change       -0.2729954E-01 Eh
 * total energy  :  -298.2936671 Eh     change       -0.1762458E-01 Eh
 * total energy  :  -298.3079038 Eh     change       -0.1423674E-01 Eh
 * total energy  :  -298.4016614 Eh     change       -0.1509859E-04 Eh
 * total energy  :  -298.4016778 Eh     change       -0.1637827E-04 Eh
 * total energy  :  -298.4016965 Eh     change       -0.1868062E-04 Eh
 * total energy  :  -298.4017179 Eh     change       -0.2144561E-04 Eh
 * total energy  :  -298.4017411 Eh     change       -0.2322239E-04 Eh
 * total energy  :  -298.4017470 Eh     change       -0.5880328E-05 Eh
 * total energy  :  -298.4017561 Eh     change       -0.9059058E-05 Eh
 * total energy  :  -298.4017615 Eh     change       -0.5407745E-05 Eh
 * total energy  :  -298.4017653 Eh     change       -0.3778104E-05 Eh
   *** GEOMETRY OPTIMIZATION CONVERGED AFTER 188 ITERATIONS ***

 final structure:
================
177
 xtb: 6.5.1 (b24c23e)
Fe          30.50187206289815        0.24176173547728       -0.07860536500680
C           27.19231645805797        0.04318425222017       -0.75031690245409
C           27.83073411368215       -1.10064928694063       -0.31360458072560
C           27.16354063306513       -2.34384479702525       -0.07116277136114
C           28.11882392955320       -3.23245857118801        0.29248083597501
C           29.37394072390077       -2.53911914628962        0.23616085432691
N           29.17534366717982       -1.22258872880044       -0.08461311241254
C           30.61501056076161       -3.15032132419233        0.38089328125358
C           30.67623326443223       -4.61294592346974        0.60291470111015
C           30.15863447112236       -5.48507624256737       -0.27732867192743
C           30.20491642914918       -6.97506962766205       -0.06902867793478
N           31.14811766408970       -7.33747800580056        0.99065917245974
C           31.51844789618433       -6.43377989580713        1.94839372715974
C           31.34363082278163       -5.10796344669563        1.79664352641523
C           31.81149894637556       -2.44933083481484        0.28578056337438
C           33.10295192033418       -3.06908446578695        0.27827800154755
C           34.01580842036128       -2.07024492792065        0.20621662124196
N           31.93860307476363       -1.08559526218016        0.19246462137659
C           33.28185315995172       -0.84382041144273        0.18723197980331
C           33.88356915337781        0.41680882254266        0.27283278810303
C           33.14508676995291        1.60640380327712        0.30871658968628
C           33.72393932186134        2.88697322732775        0.56874785271413
C           32.72107132917895        3.79383352905747        0.47836892087099
C           31.53561252673859        3.06575493905232        0.13602865837822
N           31.80474954874690        1.71842022837983        0.08663721099772
C           30.32359278073797        3.65905012993330       -0.19135486051124
C           30.22587010082017        5.13664967745563       -0.18633891021523
C           29.34728106302818        5.77351275370147        0.60469702264692
C           29.21404176822031        7.27234091404635        0.63343951584868
N           30.33865415482922        7.92252004756632       -0.04257514792448
C           31.09640633832881        7.25128041833095       -0.96265523312625
C           31.10695371819673        5.90815519476821       -1.04859560000069
C           29.20102403443570        2.92049484430155       -0.55522153419039
C           27.98144649356420        3.49623872305247       -1.04481155807168
C           27.11424296959051        2.47389163867453       -1.23719125403286
C           27.80129187594437        1.27674878513761       -0.85573357561066
N           29.09003200681109        1.55929175690943       -0.48343477880250
H           26.13599905278182       -0.02350197044918       -0.98605989339058
H           26.09926365398180       -2.49525130264284       -0.16005692136828
H           27.99539123191840       -4.26577609473627        0.57369797025629
H           29.67130822767128       -5.15534592276338       -1.18739802951482
H           30.52092581906269       -7.47723404929429       -0.99401675447028
H           29.19667172745793       -7.35590943497644        0.17859633810058
H           31.10633948996084       -8.30612296268763        1.27085974282061
H           32.03090664410691       -6.86216943911302        2.80383588183972
H           31.68713012888215       -4.40665242603083        2.54368758044268
H           33.27836904277198       -4.13214982082891        0.31155150211036
H           35.09070766105808       -2.14420045395743        0.17500671019394
H           34.76177296675993        3.05563126570099        0.80615200529520
H           32.77182514290669        4.86061540058949        0.62424962500718
H           28.67791607641510        5.23192034298571        1.26289117391187
H           29.18656930051032        7.63041215382007        1.67215725536840
H           28.26280655140253        7.57838236121083        0.15987360264869
H           30.21793674630889        8.91367494513586       -0.18977613114733
H           31.74342285069478        7.88100119044301       -1.56495376061984
H           31.74607297610496        5.39551647206950       -1.75329426768993
H           27.82498385043144        4.54731241122120       -1.22642354850030
H           26.09639030605858        2.50932562138022       -1.59241541893249
Fe          52.09617952651222        0.19077199502132        0.05880822516864
C           55.46925848952478       -0.04338291141646       -0.13880384920053
C           54.91273667277969        1.21764006260822       -0.07157057180827
C           55.67997222874784        2.42620987224981       -0.04403874071410
C           54.79378236073356        3.44905562564558       -0.09172786696939
C           53.48618858665414        2.86263973599610       -0.16469607128468
N           53.57196207105246        1.49785564663782       -0.10361776945434
C           52.31254233743860        3.58821633782132       -0.34081308954770
C           52.40028292067517        5.05705073978764       -0.51104610314373
C           53.07631497998273        5.60904495131904       -1.53132378749366
C           53.19078568488770        7.09792366178142       -1.72073460578950
N           52.23231938103369        7.81920995198818       -0.88082964851980
C           51.69699719287016        7.24277704624396        0.23837437662829
C           51.71988242478808        5.91347702046827        0.44752366775689
C           51.05814585175496        2.99243350224186       -0.36598434555752
C           49.83895320823454        3.70539323684981       -0.60637471161525
C           48.82912947956834        2.81526854684843       -0.45321395259567
N           50.79279703320293        1.66793745151861       -0.11580479102913
C           49.43263529396813        1.56085808636747       -0.12849688933336
C           48.70179072321816        0.42643974544965        0.24242331919832
C           49.30522352003008       -0.80127746642423        0.53911228878341
C           48.57217981297953       -1.96244084520487        0.93684878169765
C           49.46158091237932       -2.98259196208999        0.99756347776886
C           50.73563170668804       -2.44278396574395        0.62635898120160
N           50.62907071843142       -1.09391744784874        0.38765742414307
C           51.88808199140828       -3.20405004356235        0.48155558177218
C           51.79569103931298       -4.67001806770403        0.67278980118762
C           52.49732368421395       -5.29980122285860        1.62869510487985
C           52.42983891551845       -6.78849121143498        1.84060492741015
N           51.29948639854134       -7.38045777757671        1.12196207405107
C           50.73054972019546       -6.74659981565204        0.05130246721855
C           50.90846924914155       -5.43451211027362       -0.18951784917264
C           53.12262665349375       -2.64656843745009        0.16503467078553
C           54.31975891165028       -3.40818443063690       -0.04867537412690
C           55.32527109046321       -2.51776616414649       -0.22138796766257
C           54.73980301979611       -1.21464134937790       -0.12486463051136
N           53.38656411830204       -1.30690174315036        0.07010061945627
H           56.54902788378914       -0.11884291679012       -0.20385109208622
H           56.75666627883654        2.46708824611461        0.00653440923812
H           54.99568598085220        4.50787995867380       -0.07613461202677
H           53.58644719946432        5.00297365547264       -2.27087257798305
H           52.99357121802603        7.36304890273233       -2.76886528915472
H           54.21922531308032        7.43235806547005       -1.48971736969317
H           52.37263714510475        8.81832542620151       -0.85471304352238
H           51.18768917695873        7.93130561448154        0.90504262886332
H           51.25001247985253        5.47298419484421        1.31531095718720
H           49.77419819563887        4.75138482657659       -0.85875440719583
H           47.76798945867895        2.98214527927396       -0.54252638306123
H           47.51237255641494       -1.98391953745705        1.13236442407476
H           49.28028660394238       -4.01063657604875        1.26630975302471
H           53.16097250960921       -4.76210920559093        2.29576905413103
H           52.31066303221147       -7.01402545782818        2.90961166105638
H           53.37362298680710       -7.26231333073564        1.51258626226576
H           51.30207304305445       -8.38956322148958        1.10342748024330
H           50.06601916335523       -7.36568556767152       -0.54285966373518
H           50.41267062706655       -4.94218481287471       -1.01392991707545
H           54.37122080533968       -4.48481743889282       -0.06716608201841
H           56.37234810970262       -2.70702433509744       -0.39826513112086
C           35.28316591074186        0.49087176497619        0.37609451009848
C           36.49647018114296        0.55745044667209        0.46652498237807
C           46.09015735124193        0.60244705329559        0.42371825291147
C           47.30265821084083        0.52319129596790        0.33447060483587
Fe          41.29386833872346        0.76741234485486        0.74699893235634
C           37.89470373578963        0.63174704697879        0.57668087633646
C           38.53656999752837        1.82380852735748        0.21062629597425
C           37.84347266766736        3.01085096354866       -0.17757201444317
C           38.78889340921863        3.92019269179581       -0.52105708664541
C           40.05656137181045        3.26877926494334       -0.37966282693077
N           39.88446580459220        2.00096384258759        0.12288455629206
C           41.26268700923242        3.79953921437185       -0.81884674588320
C           41.26744543648945        5.12306156950992       -1.48098181239756
C           40.56328136254941        5.35131371878659       -2.60197384936264
C           40.60346134107633        6.66578645179453       -3.33245518557285
N           41.19326221694883        7.71872523030917       -2.50364594553423
C           42.01989353452856        7.41661653515762       -1.45663428835621
C           42.07504041747006        6.18824382055434       -0.90931275249888
C           42.47079768624107        3.11510896385610       -0.71901384373249
C           43.69304789195503        3.55342444240371       -1.32185269323196
C           44.64277482499089        2.64712144639261       -0.98233700331005
N           42.66865371451549        1.94043306670408       -0.04082261195286
C           44.00225309580705        1.67176546245646       -0.15776909510840
C           44.69276211922326        0.67692472808058        0.54311180452747
C           44.04959608917927       -0.21294354595239        1.41589774911463
C           44.74250797297393       -1.09175473290926        2.30326017716272
C           43.79652992576849       -1.81077895070630        2.95710446392560
C           42.52928860175340       -1.39304574679515        2.43680814310682
N           42.70193592638426       -0.36949003901980        1.53554450374511
C           41.32199939949621       -2.02552683566977        2.70694831061036
C           41.31221769529477       -3.20989417899153        3.59398305122047
C           42.03052428323548       -4.31026000618677        3.31614008318536
C           42.03583990065341       -5.52371159298661        4.20636908787319
N           40.94342436638168       -5.47782666919807        5.18027293634974
C           40.35403765265519       -4.29364640036842        5.52816995795315
C           40.47220330601544       -3.18062776689675        4.78081964528834
C           40.11624319895866       -1.62374234537912        2.13838632337718
C           38.89247461768795       -2.35769893546911        2.25181176592777
C           37.94427585529277       -1.63921572625399        1.60165348922773
C           38.58758958485212       -0.46221345067389        1.10833065337637
N           39.92061164127128       -0.48314960139360        1.40355876241199
H           36.77184587088907        3.12626821751130       -0.17600082566467
H           38.64788732671677        4.93776141011746       -0.84713344858681
H           39.98777842682265        4.56818497059627       -3.08158901882460
H           41.17469144658518        6.56177462387302       -4.27375704452455
H           39.58546739723219        6.97613378656363       -3.60642012056558
H           41.37834969076984        8.58038356746421       -2.99554226251384
H           42.56702611552512        8.26194209797220       -1.05174848533650
H           42.68337030038751        5.98771359811307       -0.03895987851398
H           43.79898896431675        4.43319344527253       -1.93590579093348
H           45.68668072979043        2.63526486920649       -1.25062415647003
H           45.81334958361347       -1.12983120818655        2.42047207937064
H           43.93836905814579       -2.55668862541597        3.72200528886891
H           42.65036909678089       -4.37792878602335        2.42979594454073
H           43.00518715197730       -5.60429306969458        4.73223163138781
H           41.91895125586114       -6.43562407461338        3.60434033115253
H           40.99451995816929       -6.18791768910265        5.89562127662017
H           39.72487002823348       -4.34100131857474        6.41118037154488
H           39.95886727541219       -2.26768739750227        5.04692933119011
H           38.78305239058487       -3.30330516971816        2.75757114862210
H           36.89740698758372       -1.86523344106763        1.48057365850270

          :  Hamiltonian                  GFN1-xTB          :
         :: total energy            -298.401765266618 Eh    ::
         :: gradient norm              0.000565025938 Eh/a0 ::
         :: HOMO-LUMO gap              0.040733219248 eV    ::
         :: SCC energy              -302.932204097932 Eh    ::
         :: repulsion energy           4.693473956597 Eh    ::

    * Orbital Energies and Occupations

         #    Occupation            Energy/Eh            Energy/eV
      -------------------------------------------------------------
         1        2.0000           -0.7855211             -21.3751
       ...           ...                  ...                  ...
       264        1.9937           -0.3719488             -10.1212
       265        1.9933           -0.3718929             -10.1197
       266        1.9904           -0.3715540             -10.1105
       267        1.9893           -0.3714519             -10.1077
       268        1.9845           -0.3710966             -10.0981
       269        1.9797           -0.3708353             -10.0909
       270        1.9776           -0.3707420             -10.0884
       271        1.9733           -0.3705727             -10.0838
       272        1.9711           -0.3704948             -10.0817
       273        1.9703           -0.3704714             -10.0810
       274        1.9677           -0.3703901             -10.0788
       275        1.9541           -0.3700494             -10.0696
       276        1.1183           -0.3667104              -9.9787 (HOMO)
       277        0.4157           -0.3652135              -9.9380 (LUMO)
       278        0.3691           -0.3650729              -9.9341
       279        0.3581           -0.3650377              -9.9332
       280                         -0.3297547              -8.9731
       281                         -0.3177709              -8.6470
       282                         -0.3164631              -8.6114
       283                         -0.3146663              -8.5625
       284                         -0.3143317              -8.5534
       285                         -0.3072762              -8.3614
       286                         -0.2891008              -7.8668
       287                         -0.2838485              -7.7239
       ...                                ...                  ...
       599                          1.3471957              36.6591
      -------------------------------------------------------------
                  HL-Gap            0.0014969 Eh            0.0407 eV

Wiberg/Mayer (AO) data.
largest (>0.10) Wiberg bond orders for each atom

     #   Z sym  total        # sym  WBO       # sym  WBO       # sym  WBO
 ---------------------------------------------------------------------------
     1  26 Fe   3.104 --    37 N    0.659     7 N    0.658    18 N    0.653
                            25 N    0.653
     2   6 C    3.920 --    36 C    1.366     3 C    1.359    38 H    0.971
     3   6 C    3.929 --     2 C    1.359     7 N    1.214     4 C    1.175
     4   6 C    3.960 --     5 C    1.647     3 C    1.175    39 H    0.975
     5   6 C    3.963 --     4 C    1.647     6 C    1.175    40 H    0.973
     6   6 C    3.924 --     8 C    1.316     7 N    1.223     5 C    1.175
     7   7 N    3.372 --     6 C    1.223     3 C    1.214     1 Fe   0.658
     8   6 C    3.925 --    15 C    1.324     6 C    1.316     9 C    1.031
     9   6 C    3.984 --    10 C    1.752    14 C    1.103     8 C    1.031
    10   6 C    3.948 --     9 C    1.752    11 C    1.015    41 H    0.971
    11   6 C    3.958 --    10 C    1.015    42 H    0.974    43 H    0.964
                            12 N    0.948
    12   7 N    3.244 --    13 C    1.169    11 C    0.948    44 H    0.926
                            14 C    0.122
    13   6 C    3.950 --    14 C    1.679    12 N    1.169    45 H    0.970
    14   6 C    3.950 --    13 C    1.679     9 C    1.103    46 H    0.974
                            12 N    0.122
    15   6 C    3.919 --     8 C    1.324    18 N    1.208    16 C    1.182
    16   6 C    3.959 --    17 C    1.637    15 C    1.182    47 H    0.973
    17   6 C    3.962 --    16 C    1.637    19 C    1.188    48 H    0.970
    18   7 N    3.375 --    19 C    1.240    15 C    1.208     1 Fe   0.653
    19   6 C    3.910 --    20 C    1.259    18 N    1.240    17 C    1.188
    20   6 C    3.923 --    19 C    1.259    21 C    1.253   117 C    1.189
    21   6 C    3.910 --    20 C    1.253    25 N    1.247    22 C    1.189
    22   6 C    3.963 --    23 C    1.636    21 C    1.189    49 H    0.970
    23   6 C    3.959 --    22 C    1.636    24 C    1.180    50 H    0.972
    24   6 C    3.919 --    26 C    1.332    25 N    1.201    23 C    1.180
    25   7 N    3.375 --    21 C    1.247    24 C    1.201     1 Fe   0.653
    26   6 C    3.925 --    24 C    1.332    33 C    1.309    27 C    1.030
    27   6 C    3.984 --    28 C    1.753    32 C    1.104    26 C    1.030
    28   6 C    3.949 --    27 C    1.753    29 C    1.015    51 H    0.972
    29   6 C    3.958 --    28 C    1.015    52 H    0.974    53 H    0.964
                            30 N    0.948
    30   7 N    3.244 --    31 C    1.169    29 C    0.948    54 H    0.927
                            32 C    0.122
    31   6 C    3.950 --    32 C    1.679    30 N    1.169    55 H    0.971
    32   6 C    3.952 --    31 C    1.679    27 C    1.104    56 H    0.973
                            30 N    0.122
    33   6 C    3.923 --    26 C    1.309    37 N    1.229    34 C    1.176
    34   6 C    3.964 --    35 C    1.648    33 C    1.176    57 H    0.974
    35   6 C    3.960 --    34 C    1.648    36 C    1.173    58 H    0.975
    36   6 C    3.929 --     2 C    1.366    37 N    1.207    35 C    1.173
    37   7 N    3.372 --    33 C    1.229    36 C    1.207     1 Fe   0.659
    38   1 H    1.001 --     2 C    0.971
    39   1 H    0.998 --     4 C    0.975
    40   1 H    1.006 --     5 C    0.973
    41   1 H    1.004 --    10 C    0.971
    42   1 H    1.015 --    11 C    0.974
    43   1 H    1.003 --    11 C    0.964
    44   1 H    0.962 --    12 N    0.926
    45   1 H    1.001 --    13 C    0.970
    46   1 H    1.003 --    14 C    0.974
    47   1 H    1.005 --    16 C    0.973
    48   1 H    1.005 --    17 C    0.970
    49   1 H    1.005 --    22 C    0.970
    50   1 H    1.006 --    23 C    0.972
    51   1 H    1.003 --    28 C    0.972
    52   1 H    1.016 --    29 C    0.974
    53   1 H    1.004 --    29 C    0.964
    54   1 H    0.962 --    30 N    0.927
    55   1 H    1.001 --    31 C    0.971
    56   1 H    1.004 --    32 C    0.973
    57   1 H    1.006 --    34 C    0.974
    58   1 H    0.998 --    35 C    0.975
    59  26 Fe   3.103 --    95 N    0.659    65 N    0.659    83 N    0.654
                            76 N    0.654
    60   6 C    3.921 --    94 C    1.363    61 C    1.363    96 H    0.971
    61   6 C    3.929 --    60 C    1.363    65 N    1.211    62 C    1.174
    62   6 C    3.960 --    63 C    1.648    61 C    1.174    97 H    0.975
    63   6 C    3.963 --    62 C    1.648    64 C    1.175    98 H    0.973
    64   6 C    3.924 --    66 C    1.315    65 N    1.225    63 C    1.175
    65   7 N    3.373 --    64 C    1.225    61 C    1.211    59 Fe   0.659
    66   6 C    3.926 --    73 C    1.329    64 C    1.315    67 C    1.029
    67   6 C    3.984 --    68 C    1.754    72 C    1.103    66 C    1.029
    68   6 C    3.949 --    67 C    1.754    69 C    1.015    99 H    0.971
    69   6 C    3.958 --    68 C    1.015   100 H    0.974   101 H    0.964
                            70 N    0.948
    70   7 N    3.244 --    71 C    1.169    69 C    0.948   102 H    0.927
                            72 C    0.122
    71   6 C    3.950 --    72 C    1.679    70 N    1.169   103 H    0.970
    72   6 C    3.951 --    71 C    1.679    67 C    1.103   104 H    0.973
                            70 N    0.122
    73   6 C    3.919 --    66 C    1.329    76 N    1.205    74 C    1.181
    74   6 C    3.959 --    75 C    1.638    73 C    1.181   105 H    0.972
    75   6 C    3.962 --    74 C    1.638    77 C    1.188   106 H    0.970
    76   7 N    3.376 --    77 C    1.242    73 C    1.205    59 Fe   0.654
    77   6 C    3.911 --    78 C    1.258    76 N    1.242    75 C    1.188
    78   6 C    3.925 --    77 C    1.258    79 C    1.257   120 C    1.188
    79   6 C    3.911 --    78 C    1.257    83 N    1.243    80 C    1.188
    80   6 C    3.962 --    81 C    1.638    79 C    1.188   107 H    0.970
    81   6 C    3.959 --    80 C    1.638    82 C    1.180   108 H    0.972
    82   6 C    3.919 --    84 C    1.330    83 N    1.204    81 C    1.180
    83   7 N    3.376 --    79 C    1.243    82 C    1.204    59 Fe   0.654
    84   6 C    3.926 --    82 C    1.330    91 C    1.314    85 C    1.028
    85   6 C    3.984 --    86 C    1.754    90 C    1.103    84 C    1.028
    86   6 C    3.949 --    85 C    1.754    87 C    1.015   109 H    0.972
    87   6 C    3.958 --    86 C    1.015   110 H    0.974   111 H    0.965
                            88 N    0.948
    88   7 N    3.243 --    89 C    1.168    87 C    0.948   112 H    0.927
                            90 C    0.122
    89   6 C    3.950 --    90 C    1.679    88 N    1.168   113 H    0.970
    90   6 C    3.951 --    89 C    1.679    85 C    1.103   114 H    0.973
                            88 N    0.122
    91   6 C    3.923 --    84 C    1.314    95 N    1.225    92 C    1.175
    92   6 C    3.963 --    93 C    1.648    91 C    1.175   115 H    0.973
    93   6 C    3.960 --    92 C    1.648    94 C    1.174   116 H    0.975
    94   6 C    3.929 --    60 C    1.363    95 N    1.210    93 C    1.174
    95   7 N    3.373 --    91 C    1.225    94 C    1.210    59 Fe   0.659
    96   1 H    1.001 --    60 C    0.971
    97   1 H    0.998 --    62 C    0.975
    98   1 H    1.006 --    63 C    0.973
    99   1 H    1.003 --    68 C    0.971
   100   1 H    1.016 --    69 C    0.974
   101   1 H    1.004 --    69 C    0.964
   102   1 H    0.962 --    70 N    0.927
   103   1 H    1.001 --    71 C    0.970
   104   1 H    1.003 --    72 C    0.973
   105   1 H    1.005 --    74 C    0.972
   106   1 H    1.005 --    75 C    0.970
   107   1 H    1.005 --    80 C    0.970
   108   1 H    1.005 --    81 C    0.972
   109   1 H    1.003 --    86 C    0.972
   110   1 H    1.016 --    87 C    0.974
   111   1 H    1.004 --    87 C    0.965
   112   1 H    0.962 --    88 N    0.927
   113   1 H    1.001 --    89 C    0.970
   114   1 H    1.003 --    90 C    0.973
   115   1 H    1.006 --    92 C    0.973
   116   1 H    0.998 --    93 C    0.975
   117   6 C    3.920 --   118 C    2.554    20 C    1.189
   118   6 C    3.926 --   117 C    2.554   122 C    1.193
   119   6 C    3.927 --   120 C    2.555   140 C    1.192
   120   6 C    3.919 --   119 C    2.555    78 C    1.188
   121  26 Fe   3.076 --   157 N    0.648   127 N    0.646   138 N    0.646
                           145 N    0.646
   122   6 C    3.908 --   156 C    1.260   123 C    1.245   118 C    1.193
   123   6 C    3.913 --   127 N    1.252   122 C    1.245   124 C    1.193
   124   6 C    3.961 --   125 C    1.631   123 C    1.193   158 H    0.970
   125   6 C    3.960 --   124 C    1.631   126 C    1.183   159 H    0.973
   126   6 C    3.919 --   128 C    1.328   127 N    1.201   125 C    1.183
   127   7 N    3.364 --   123 C    1.252   126 C    1.201   121 Fe   0.646
   128   6 C    3.916 --   126 C    1.328   135 C    1.309   129 C    1.032
   129   6 C    3.983 --   130 C    1.748   134 C    1.105   128 C    1.032
   130   6 C    3.948 --   129 C    1.748   131 C    1.016   160 H    0.971
   131   6 C    3.958 --   130 C    1.016   162 H    0.972   161 H    0.965
                           132 N    0.948
   132   7 N    3.247 --   133 C    1.170   131 C    0.948   163 H    0.926
                           134 C    0.123
   133   6 C    3.950 --   134 C    1.679   132 N    1.170   164 H    0.970
   134   6 C    3.952 --   133 C    1.679   129 C    1.105   165 H    0.973
                           132 N    0.123
   135   6 C    3.916 --   128 C    1.309   138 N    1.216   136 C    1.186
   136   6 C    3.961 --   137 C    1.632   135 C    1.186   166 H    0.973
   137   6 C    3.960 --   136 C    1.632   139 C    1.191   167 H    0.970
   138   7 N    3.363 --   139 C    1.237   135 C    1.216   121 Fe   0.646
   139   6 C    3.912 --   140 C    1.261   138 N    1.237   137 C    1.191
   140   6 C    3.907 --   139 C    1.261   141 C    1.244   119 C    1.192
   141   6 C    3.913 --   145 N    1.252   140 C    1.244   142 C    1.194
   142   6 C    3.961 --   143 C    1.630   141 C    1.194   168 H    0.971
   143   6 C    3.959 --   142 C    1.630   144 C    1.184   169 H    0.973
   144   6 C    3.920 --   146 C    1.326   145 N    1.201   143 C    1.184
   145   7 N    3.364 --   141 C    1.252   144 C    1.201   121 Fe   0.646
   146   6 C    3.916 --   144 C    1.326   153 C    1.310   147 C    1.033
   147   6 C    3.983 --   148 C    1.749   152 C    1.103   146 C    1.033
   148   6 C    3.947 --   147 C    1.749   149 C    1.015   170 H    0.971
   149   6 C    3.958 --   148 C    1.015   172 H    0.974   171 H    0.964
                           150 N    0.948
   150   7 N    3.245 --   151 C    1.169   149 C    0.948   173 H    0.926
                           152 C    0.123
   151   6 C    3.950 --   152 C    1.679   150 N    1.169   174 H    0.970
   152   6 C    3.952 --   151 C    1.679   147 C    1.103   175 H    0.974
                           150 N    0.123
   153   6 C    3.915 --   146 C    1.310   157 N    1.215   154 C    1.186
   154   6 C    3.961 --   155 C    1.633   153 C    1.186   176 H    0.973
   155   6 C    3.960 --   154 C    1.633   156 C    1.190   177 H    0.970
   156   6 C    3.912 --   122 C    1.260   157 N    1.237   155 C    1.190
   157   7 N    3.364 --   156 C    1.237   153 C    1.215   121 Fe   0.648
   158   1 H    1.005 --   124 C    0.970
   159   1 H    1.007 --   125 C    0.973
   160   1 H    1.004 --   130 C    0.971
   161   1 H    1.005 --   131 C    0.965
   162   1 H    1.014 --   131 C    0.972
   163   1 H    0.962 --   132 N    0.926
   164   1 H    1.001 --   133 C    0.970
   165   1 H    1.003 --   134 C    0.973
   166   1 H    1.005 --   136 C    0.973
   167   1 H    1.005 --   137 C    0.970
   168   1 H    1.005 --   142 C    0.971
   169   1 H    1.006 --   143 C    0.973
   170   1 H    1.004 --   148 C    0.971
   171   1 H    1.003 --   149 C    0.964
   172   1 H    1.015 --   149 C    0.974
   173   1 H    0.962 --   150 N    0.926
   174   1 H    1.001 --   151 C    0.970
   175   1 H    1.003 --   152 C    0.974
   176   1 H    1.005 --   154 C    0.973
   177   1 H    1.005 --   155 C    0.970
 ---------------------------------------------------------------------------

           -------------------------------------------------
          | TOTAL ENERGY             -298.401765266618 Eh   |
          | GRADIENT NORM               0.000565025938 Eh/α |
          | HOMO-LUMO GAP               0.040733219248 eV   |
           -------------------------------------------------

 * finished run on 2022/07/29 at 18:19:51.265
