   * xtb version 6.5.1 (b24c23e) compiled by 'conda@728c89f4b128' on 2022-07-12
          program call               : xtb Fe_PhNO2_C4_2.xyz --gfn 1 --opt -T 48

   ID    Z sym.   atoms
    1   26 Fe     1, 61
    2    6 C      2-6, 8-12, 16-20, 22-27, 29-33, 37-42, 62-66, 68-72, 76-80,
                  82-87, 89-93, 97-102, 121-124
    3    7 N      7, 13, 21, 28, 34, 43, 67, 73, 81, 88, 94, 103
    4    8 O      14, 15, 35, 36, 74, 75, 95, 96
    5    1 H      44-60, 104-120
########################################################################
[WARNING] Please study the warnings concerning your input carefully
-1- prog_main_parseArguments: Unknown option '-T' provided
########################################################################

          :  Hamiltonian                  GFN1-xTB          :
 * total energy  :  -242.8009597 Eh     change       -0.5583757E-08 Eh
 * total energy  :  -243.2325620 Eh     change       -0.4316024E+00 Eh
 * total energy  :  -243.3527526 Eh     change       -0.1201906E+00 Eh
 * total energy  :  -243.3881049 Eh     change       -0.3535231E-01 Eh
 * total energy  :  -243.4045626 Eh     change       -0.1645771E-01 Eh
 * total energy  :  -243.4128003 Eh     change       -0.8237649E-02 Eh
 * total energy  :  -243.4160403 Eh     change       -0.3240017E-02 Eh
 * total energy  :  -243.4177776 Eh     change       -0.1737308E-02 Eh
 * total energy  :  -243.4191914 Eh     change       -0.1413825E-02 Eh
 * total energy  :  -243.4198704 Eh     change       -0.6789644E-03 Eh
 * total energy  :  -243.4228747 Eh     change       -0.1346651E-04 Eh
 * total energy  :  -243.4228890 Eh     change       -0.1434045E-04 Eh
 * total energy  :  -243.4229021 Eh     change       -0.1310873E-04 Eh
 * total energy  :  -243.4229123 Eh     change       -0.1012150E-04 Eh
 * total energy  :  -243.4229225 Eh     change       -0.1026184E-04 Eh
 * total energy  :  -243.4229342 Eh     change       -0.1169998E-04 Eh
 * total energy  :  -243.4229333 Eh     change        0.8973531E-06 Eh
 * total energy  :  -243.4229402 Eh     change       -0.6848977E-05 Eh
 * total energy  :  -243.4229437 Eh     change       -0.3560962E-05 Eh
   *** GEOMETRY OPTIMIZATION CONVERGED AFTER 40 ITERATIONS ***

 final structure:
================
124
 xtb: 6.5.1 (b24c23e)
Fe          15.95417030733513       -0.06098636932949        0.01294767559704
C           12.56824558262795       -0.06075464041129       -0.14590766607888
C           13.21628295360848       -1.27837136733575       -0.17330312534619
C           12.53862860029694       -2.53882491750088       -0.22029459200709
C           13.49485141029260       -3.48848845522742       -0.34695012627320
C           14.75531633178714       -2.80416855552732       -0.38910726765664
N           14.57320503526081       -1.45614892888820       -0.24352343301624
C           15.97751845571799       -3.43323457286657       -0.60247785569876
C           15.98348306610871       -4.89061530579870       -0.86311899818116
C           16.65126747967802       -5.76174383273047        0.00256485504159
C           16.65517011798699       -7.12390354370347       -0.23713311783275
C           15.99004082364984       -7.61819944983769       -1.35538791021517
N           15.99276448375425       -9.04796074823055       -1.61304193216783
O           15.39762455472928       -9.44029298558273       -2.58354549672213
O           16.58864996993189       -9.75243095873380       -0.83951143232276
C           15.32162798345693       -6.76743380681747       -2.23101351369523
C           15.31896726210765       -5.40758597587775       -1.97929901265323
C           17.18943888954945       -2.75601524314900       -0.58647519735026
C           18.45575098890020       -3.37221487205266       -0.85109319743497
C           19.40090739314585       -2.42237995933478       -0.65214552330538
N           17.36032945790079       -1.42749762582933       -0.27951980622631
C           18.70932572280180       -1.22836153900377       -0.27911144218564
C           19.36387488785002       -0.04764935385761        0.09175571200844
C           18.68095555573656        1.12786366874094        0.42713516250649
C           19.34039395199566        2.32177929378540        0.85440670473290
C           18.38007198264136        3.26741881343464        0.99248149973087
C           17.13769424814533        2.64846477103040        0.63703440751629
N           17.33561943070470        1.32467627303207        0.32657071923938
C           15.92426126917088        3.31980937296395        0.57372343009539
C           15.90477429612645        4.77570597422665        0.84270357891538
C           15.16833557477456        5.28262396345716        1.91752166794148
C           15.14555893232234        6.64129151932445        2.17465763932934
C           15.86015245609175        7.50079075773336        1.34525053650528
N           15.83492560600599        8.92960630533308        1.60742985261489
O           15.18781315091299        9.31206546963646        2.54804820803415
O           16.46226802733226        9.64296332821223        0.86767565038683
C           16.59749684130037        7.01638403192341        0.26874043409634
C           16.61937755854716        5.65521846993797        0.02426736741612
C           14.72307403849839        2.68681020305589        0.27153449002619
C           13.46594957598334        3.36715063808299        0.14621131348115
C           12.52550480092092        2.41565785210201       -0.05896101381255
C           13.20977236380672        1.15782997977966       -0.06767694512952
N           14.55885205182558        1.34044921021487        0.09198941939072
H           11.48494245527298       -0.06170467849984       -0.18549479666122
H           11.46892382495072       -2.66076632119062       -0.16155212537843
H           13.37090165445219       -4.55778114625631       -0.40190737739957
H           17.15515449945729       -5.36497908272332        0.87610705906114
H           17.16422374937784       -7.80808729758233        0.43100535350794
H           14.81484285085836       -7.17721671465910       -3.09637549188702
H           14.81185383908331       -4.73292442800584       -2.65908888344838
H           18.59397950037904       -4.39737880723244       -1.15337553866456
H           20.47147754941122       -2.50766799718602       -0.74506277380305
H           20.40135878858699        2.40950770182581        1.02397451491565
H           18.49245545701025        4.29062680145955        1.31176508809661
H           14.62429913005678        4.60119018966965        2.56104811626161
H           14.58286423189536        7.04365713097675        3.00840873472491
H           17.14186707714757        7.70726460642104       -0.36372218799520
H           17.18029982893691        5.26571246027668       -0.81721357775780
H           13.33402203489119        4.43530914087009        0.20431328826033
H           11.46205619878047        2.53424265439387       -0.19152727610042
Fe          29.36999913661615        0.05236537914133        0.03510304465083
C           32.75591393114213        0.11127844263616       -0.11101717050322
C           32.10784295913727        1.25044610764738        0.31981193602491
C           32.78549104413585        2.43653361439912        0.74895899414282
C           31.82931253164631        3.36461137791554        0.98698315371430
C           30.56885931325758        2.74617955013070        0.69087322293132
N           30.75095751436180        1.44181509514899        0.32073788993784
C           29.34668839620944        3.40947522880833        0.72859220216827
C           29.34074006249238        4.85824310105759        1.03341589939234
C           28.67193788781595        5.34141985018243        2.16190484647012
C           28.66795647929189        6.69409833382107        2.45035210757761
C           29.33429930477919        7.57146645983344        1.59977428169693
N           29.33227218131820        8.99352517724648        1.89735070808576
O           29.92746988909025        9.72092668316635        1.14500434061699
O           28.73268682640041        9.35691895585065        2.87634787106048
C           30.00367652862568        7.11090687677167        0.46968457018736
C           30.00629649310778        5.75588200542762        0.19317834183547
C           28.13478026479727        2.77569457839647        0.48920215945072
C           26.86848113890385        3.44618406858819        0.47433002892738
C           25.92339203525317        2.49106383441156        0.30214268164218
N           27.96394625816828        1.42900752621486        0.27562705595059
C           26.61499203156630        1.24426266983459        0.20061159044971
C           25.96029097096834        0.01071846066170        0.10185329126207
C           26.64308702118432       -1.20496272109492       -0.02706706050378
C           25.98375727120951       -2.47205677081519       -0.07782130948338
C           26.94415154542587       -3.40054204637681       -0.30386174703867
C           28.18645302649378       -2.69342054507365       -0.40176069448971
N           27.98847450294813       -1.34973633503469       -0.19378436065315
C           29.39980021452238       -3.29204613465204       -0.71253298935028
C           29.41910489981284       -4.74253792199040       -1.00930724149262
C           30.15550803420792       -5.61579381510820       -0.20329964260660
C           30.17812443182099       -6.97167491745448       -0.47481010563823
C           29.46339182416720       -7.45706265865340       -1.56606927441539
N           29.48832895748153       -8.87985980569452       -1.85910904825461
O           30.13606416347762       -9.58731811004420       -1.13132382688358
O           28.86153457746275       -9.26328062585000       -2.81297599530616
C           28.72603852255497       -6.60402165809257       -2.38207049803851
C           28.70428130195696       -5.25060462120200       -2.09786465775070
C           30.60095604881694       -2.59191573761835       -0.75557597818777
C           31.85807064770277       -3.17563927585845       -1.12687113687378
C           32.79860666403859       -2.21682516880429       -0.95971680890412
C           32.11438868466696       -1.04756073088359       -0.49592958533962
N           30.76525252669673       -1.27656688365101       -0.41678623763935
H           33.83923996098490        0.12682231798152       -0.14678035329886
H           33.85516510970104        2.52741299318103        0.84958017335821
H           31.95332477930391        4.37655932256523        1.33677882961656
H           28.16730748897747        4.64621075936087        2.82254271552324
H           28.15812047781404        7.07798226284321        3.32576583155798
H           30.51138312531647        7.81511871233613       -0.17833713381900
H           30.51421062395180        5.38522262363068       -0.68947661195837
H           26.73018366019864        4.50989728200913        0.57842051324474
H           24.85283953016070        2.60491189177513        0.24740636959425
H           24.92281882346039       -2.61706178978292        0.04655215273007
H           26.83187225427227       -4.46888355161867       -0.39085145039766
H           30.69962561862674       -5.22569551808803        0.64888190458634
H           30.74077414646157       -7.65756191221984        0.14700506744255
H           28.18152992305282       -7.00704467389585       -3.22749799093932
H           28.14327979617859       -4.57373218699025       -2.73155521122741
H           31.98989502070219       -4.18753632079595       -1.47390382691009
H           33.86208487222395       -2.27712026265624       -1.12687759638775
C           21.98871029406240       -0.03599790089168        0.13567129038526
C           20.76507338387683       -0.03991537081851        0.12285886962929
C           23.33546415644981       -0.02192099601796        0.13692687853219
C           24.55906476662409       -0.00797467619915        0.12788488487214

          :  Hamiltonian                  GFN1-xTB          :
         :: total energy            -243.422943731368 Eh    ::
         :: gradient norm              0.000899242799 Eh/a0 ::
         :: HOMO-LUMO gap              0.089720901618 eV    ::
         :: SCC energy              -246.783311780146 Eh    ::
         :: repulsion energy           3.472610748372 Eh    ::

    * Orbital Energies and Occupations

         #    Occupation            Energy/Eh            Energy/eV
      -------------------------------------------------------------
         1        2.0000           -0.9247277             -25.1631
       ...           ...                  ...                  ...
       203        2.0000           -0.4522266             -12.3057
       204        2.0000           -0.4522174             -12.3055
       205        2.0000           -0.4514295             -12.2840
       206        2.0000           -0.4242488             -11.5444
       207        2.0000           -0.4223378             -11.4924
       208        2.0000           -0.4223355             -11.4923
       209        1.9922           -0.4153249             -11.3016
       210        1.9921           -0.4153084             -11.3011
       211        1.9425           -0.4134024             -11.2493
       212        1.9408           -0.4133743             -11.2485
       213        1.9325           -0.4132454             -11.2450
       214        1.9325           -0.4132450             -11.2450
       215        1.7101           -0.4117439             -11.2041 (HOMO)
       216        0.3100           -0.4084467             -11.1144 (LUMO)
       217        0.2472           -0.4081972             -11.1076
       218                         -0.3645691              -9.9204
       219                         -0.3596744              -9.7872
       220                         -0.3596727              -9.7872
       221                         -0.3515647              -9.5666
       222                         -0.3515535              -9.5663
       223                         -0.3497025              -9.5159
       224                         -0.3449276              -9.3860
       225                         -0.3449187              -9.3857
       226                         -0.3271216              -8.9014
       ...                                ...                  ...
       438                          1.4865436              40.4509
      -------------------------------------------------------------
                  HL-Gap            0.0032972 Eh            0.0897 eV

Wiberg/Mayer (AO) data.
largest (>0.10) Wiberg bond orders for each atom

     #   Z sym  total        # sym  WBO       # sym  WBO       # sym  WBO
 ---------------------------------------------------------------------------
     1  26 Fe   3.145 --    43 N    0.673     7 N    0.667    21 N    0.664
                            28 N    0.659
     2   6 C    3.923 --    42 C    1.364     3 C    1.362    44 H    0.970
     3   6 C    3.921 --     2 C    1.362     7 N    1.208     4 C    1.172
     4   6 C    3.959 --     5 C    1.651     3 C    1.172    45 H    0.974
     5   6 C    3.961 --     4 C    1.651     6 C    1.173    46 H    0.973
     6   6 C    3.921 --     8 C    1.312     7 N    1.225     5 C    1.173
     7   7 N    3.380 --     6 C    1.225     3 C    1.208     1 Fe   0.667
     8   6 C    3.923 --    18 C    1.330     6 C    1.312     9 C    1.032
     9   6 C    3.985 --    10 C    1.384    17 C    1.384     8 C    1.032
    10   6 C    3.986 --    11 C    1.463     9 C    1.384    47 H    0.971
                            16 C    0.102
    11   6 C    3.987 --    10 C    1.463    12 C    1.388    48 H    0.964
                            17 C    0.102
    12   6 C    3.942 --    11 C    1.388    16 C    1.388    13 N    0.920
    13   7 N    3.866 --    15 O    1.455    14 O    1.455    12 C    0.920
    14   8 O    1.830 --    13 N    1.455    15 O    0.252
    15   8 O    1.830 --    13 N    1.455    14 O    0.252
    16   6 C    3.987 --    17 C    1.463    12 C    1.388    49 H    0.964
                            10 C    0.102
    17   6 C    3.986 --    16 C    1.463     9 C    1.384    50 H    0.971
                            11 C    0.102
    18   6 C    3.916 --     8 C    1.330    21 N    1.202    19 C    1.179
    19   6 C    3.955 --    20 C    1.638    18 C    1.179    51 H    0.973
    20   6 C    3.959 --    19 C    1.638    22 C    1.188    52 H    0.973
    21   7 N    3.382 --    22 C    1.244    18 C    1.202     1 Fe   0.664
    22   6 C    3.902 --    23 C    1.252    21 N    1.244    20 C    1.188
    23   6 C    3.923 --    22 C    1.252    24 C    1.251   122 C    1.201
    24   6 C    3.902 --    23 C    1.251    28 N    1.244    25 C    1.188
    25   6 C    3.959 --    26 C    1.638    24 C    1.188    53 H    0.973
    26   6 C    3.956 --    25 C    1.638    27 C    1.179    54 H    0.973
    27   6 C    3.917 --    29 C    1.330    28 N    1.202    26 C    1.179
    28   7 N    3.380 --    24 C    1.244    27 C    1.202     1 Fe   0.659
    29   6 C    3.924 --    27 C    1.330    39 C    1.312    30 C    1.032
    30   6 C    3.985 --    38 C    1.385    31 C    1.384    29 C    1.032
    31   6 C    3.986 --    32 C    1.463    30 C    1.384    55 H    0.971
                            37 C    0.102
    32   6 C    3.987 --    31 C    1.463    33 C    1.388    56 H    0.964
                            38 C    0.102
    33   6 C    3.942 --    37 C    1.388    32 C    1.388    34 N    0.920
    34   7 N    3.866 --    36 O    1.455    35 O    1.455    33 C    0.920
    35   8 O    1.830 --    34 N    1.455    36 O    0.252
    36   8 O    1.830 --    34 N    1.455    35 O    0.252
    37   6 C    3.987 --    38 C    1.463    33 C    1.388    57 H    0.964
                            31 C    0.102
    38   6 C    3.986 --    37 C    1.463    30 C    1.385    58 H    0.971
                            32 C    0.102
    39   6 C    3.921 --    29 C    1.312    43 N    1.225    40 C    1.173
    40   6 C    3.961 --    41 C    1.651    39 C    1.173    59 H    0.973
    41   6 C    3.958 --    40 C    1.651    42 C    1.172    60 H    0.974
    42   6 C    3.921 --     2 C    1.364    43 N    1.207    41 C    1.172
    43   7 N    3.383 --    39 C    1.225    42 C    1.207     1 Fe   0.673
    44   1 H    1.000 --     2 C    0.970
    45   1 H    0.997 --     4 C    0.974
    46   1 H    1.003 --     5 C    0.973
    47   1 H    1.003 --    10 C    0.971
    48   1 H    1.006 --    11 C    0.964
    49   1 H    1.006 --    16 C    0.964
    50   1 H    1.003 --    17 C    0.971
    51   1 H    1.003 --    19 C    0.973
    52   1 H    1.001 --    20 C    0.973
    53   1 H    1.001 --    25 C    0.973
    54   1 H    1.003 --    26 C    0.973
    55   1 H    1.003 --    31 C    0.971
    56   1 H    1.006 --    32 C    0.964
    57   1 H    1.006 --    37 C    0.964
    58   1 H    1.003 --    38 C    0.971
    59   1 H    1.003 --    40 C    0.973
    60   1 H    0.997 --    41 C    0.974
    61  26 Fe   3.146 --   103 N    0.673    67 N    0.667    81 N    0.664
                            88 N    0.659
    62   6 C    3.923 --   102 C    1.364    63 C    1.362   104 H    0.970
    63   6 C    3.921 --    62 C    1.362    67 N    1.208    64 C    1.172
    64   6 C    3.959 --    65 C    1.651    63 C    1.172   105 H    0.974
    65   6 C    3.961 --    64 C    1.651    66 C    1.173   106 H    0.973
    66   6 C    3.921 --    68 C    1.312    67 N    1.225    65 C    1.173
    67   7 N    3.380 --    66 C    1.225    63 C    1.208    61 Fe   0.667
    68   6 C    3.923 --    78 C    1.330    66 C    1.312    69 C    1.033
    69   6 C    3.985 --    70 C    1.384    77 C    1.384    68 C    1.033
    70   6 C    3.986 --    71 C    1.463    69 C    1.384   107 H    0.971
                            76 C    0.102
    71   6 C    3.987 --    70 C    1.463    72 C    1.388   108 H    0.964
                            77 C    0.102
    72   6 C    3.942 --    71 C    1.388    76 C    1.388    73 N    0.920
    73   7 N    3.866 --    74 O    1.455    75 O    1.455    72 C    0.920
    74   8 O    1.830 --    73 N    1.455    75 O    0.252
    75   8 O    1.830 --    73 N    1.455    74 O    0.252
    76   6 C    3.987 --    77 C    1.463    72 C    1.388   109 H    0.964
                            70 C    0.102
    77   6 C    3.986 --    76 C    1.463    69 C    1.384   110 H    0.971
                            71 C    0.102
    78   6 C    3.916 --    68 C    1.330    81 N    1.202    79 C    1.179
    79   6 C    3.955 --    80 C    1.638    78 C    1.179   111 H    0.973
    80   6 C    3.959 --    79 C    1.638    82 C    1.188   112 H    0.973
    81   7 N    3.382 --    82 C    1.244    78 C    1.202    61 Fe   0.664
    82   6 C    3.902 --    83 C    1.252    81 N    1.244    80 C    1.188
    83   6 C    3.923 --    82 C    1.252    84 C    1.251   124 C    1.201
    84   6 C    3.902 --    83 C    1.251    88 N    1.244    85 C    1.188
    85   6 C    3.959 --    86 C    1.638    84 C    1.188   113 H    0.973
    86   6 C    3.956 --    85 C    1.638    87 C    1.179   114 H    0.973
    87   6 C    3.917 --    89 C    1.330    88 N    1.202    86 C    1.179
    88   7 N    3.380 --    84 C    1.244    87 C    1.202    61 Fe   0.659
    89   6 C    3.924 --    87 C    1.330    99 C    1.312    90 C    1.032
    90   6 C    3.985 --    98 C    1.385    91 C    1.384    89 C    1.032
    91   6 C    3.986 --    92 C    1.463    90 C    1.384   115 H    0.971
                            97 C    0.102
    92   6 C    3.987 --    91 C    1.463    93 C    1.388   116 H    0.964
                            98 C    0.102
    93   6 C    3.942 --    97 C    1.388    92 C    1.388    94 N    0.920
    94   7 N    3.866 --    96 O    1.455    95 O    1.455    93 C    0.920
    95   8 O    1.830 --    94 N    1.455    96 O    0.252
    96   8 O    1.830 --    94 N    1.455    95 O    0.252
    97   6 C    3.987 --    98 C    1.463    93 C    1.388   117 H    0.964
                            91 C    0.102
    98   6 C    3.986 --    97 C    1.463    90 C    1.385   118 H    0.971
                            92 C    0.102
    99   6 C    3.921 --    89 C    1.312   103 N    1.225   100 C    1.173
   100   6 C    3.961 --   101 C    1.651    99 C    1.173   119 H    0.973
   101   6 C    3.958 --   100 C    1.651   102 C    1.172   120 H    0.974
   102   6 C    3.921 --    62 C    1.364   103 N    1.207   101 C    1.172
   103   7 N    3.383 --    99 C    1.225   102 C    1.207    61 Fe   0.673
   104   1 H    1.000 --    62 C    0.970
   105   1 H    0.997 --    64 C    0.974
   106   1 H    1.003 --    65 C    0.973
   107   1 H    1.003 --    70 C    0.971
   108   1 H    1.006 --    71 C    0.964
   109   1 H    1.006 --    76 C    0.964
   110   1 H    1.003 --    77 C    0.971
   111   1 H    1.003 --    79 C    0.973
   112   1 H    1.001 --    80 C    0.973
   113   1 H    1.001 --    85 C    0.973
   114   1 H    1.003 --    86 C    0.973
   115   1 H    1.003 --    91 C    0.971
   116   1 H    1.006 --    92 C    0.964
   117   1 H    1.006 --    97 C    0.964
   118   1 H    1.003 --    98 C    0.971
   119   1 H    1.003 --   100 C    0.973
   120   1 H    0.997 --   101 C    0.974
   121   6 C    3.922 --   122 C    2.451   123 C    1.324
   122   6 C    3.914 --   121 C    2.451    23 C    1.201   124 C    0.195
   123   6 C    3.922 --   124 C    2.451   121 C    1.324
   124   6 C    3.914 --   123 C    2.451    83 C    1.201   122 C    0.195
 ---------------------------------------------------------------------------

           -------------------------------------------------
          | TOTAL ENERGY             -243.422943731368 Eh   |
          | GRADIENT NORM               0.000899242799 Eh/α |
          | HOMO-LUMO GAP               0.089720901618 eV   |
           -------------------------------------------------

 * finished run on 2022/07/29 at 20:29:47.701
