   * xtb version 6.5.1 (b24c23e) compiled by 'conda@728c89f4b128' on 2022-07-12
          program call               : xtb Ph3OH_C6_2.xyz --gfn 1 --opt -T 48

   ID    Z sym.   atoms
    1    6 C      1-5, 7-10, 12, 14, 16-19, 21-26, 28-31, 33, 35, 37-41,
                  64-68, 70-73, 75, 77, 79-82, 84-89, 91-94, 96, 98, 100-104,
                  127-132
    2    7 N      6, 20, 27, 42, 69, 83, 90, 105
    3    8 O      11, 13, 15, 32, 34, 36, 74, 76, 78, 95, 97, 99
    4    1 H      43-63, 106-126
########################################################################
[WARNING] Please study the warnings concerning your input carefully
-1- prog_main_parseArguments: Unknown option '-T' provided
########################################################################

          :  Hamiltonian                  GFN1-xTB          :
 * total energy  :  -251.8520655 Eh     change        0.1001581E-09 Eh
 * total energy  :  -252.2312606 Eh     change       -0.3791951E+00 Eh
 * total energy  :  -252.3207381 Eh     change       -0.8947744E-01 Eh
 * total energy  :  -252.3580746 Eh     change       -0.3733651E-01 Eh
 * total energy  :  -252.3707462 Eh     change       -0.1267167E-01 Eh
 * total energy  :  -252.3781465 Eh     change       -0.7400264E-02 Eh
 * total energy  :  -252.3813737 Eh     change       -0.3227190E-02 Eh
 * total energy  :  -252.3834463 Eh     change       -0.2072577E-02 Eh
 * total energy  :  -252.3851146 Eh     change       -0.1668309E-02 Eh
 * total energy  :  -252.3865252 Eh     change       -0.1410603E-02 Eh
 * total energy  :  -252.3928420 Eh     change       -0.1007043E-04 Eh
 * total energy  :  -252.3928548 Eh     change       -0.1278254E-04 Eh
 * total energy  :  -252.3928708 Eh     change       -0.1595585E-04 Eh
 * total energy  :  -252.3928888 Eh     change       -0.1801292E-04 Eh
 * total energy  :  -252.3928844 Eh     change        0.4353664E-05 Eh
 * total energy  :  -252.3928957 Eh     change       -0.1126309E-04 Eh
 * total energy  :  -252.3928791 Eh     change        0.1656505E-04 Eh
 * total energy  :  -252.3929027 Eh     change       -0.2356614E-04 Eh
 * total energy  :  -252.3929052 Eh     change       -0.2566898E-05 Eh
   *** GEOMETRY OPTIMIZATION CONVERGED AFTER 48 ITERATIONS ***

 final structure:
================
132
 xtb: 6.5.1 (b24c23e)
C           10.31006738064884       -0.43711853045621        0.18535310450352
C           10.92155858132947       -1.16565146319215       -0.82668697243276
C           10.27407322558593       -1.96460495307597       -1.81044186503091
C           11.23683750118411       -2.49967288789883       -2.61906905806378
C           12.50525927047984       -2.05811763938830       -2.14527705109024
N           12.26312158525442       -1.24833724029725       -1.07185029036882
C           13.76988708945400       -2.36623420726068       -2.65942123206061
C           13.81406813668724       -3.27526018972224       -3.83161760785235
C           14.37751592488904       -2.82827371147799       -5.03015028383955
C           14.41367249021707       -3.67172756853934       -6.13318567649398
O           14.94200142588368       -3.30024156044714       -7.34173819183198
C           13.89644879902502       -4.96179815013865       -6.04718089115010
O           13.92170727406760       -5.81424932575435       -7.11960155846578
C           13.33766994911220       -5.41088595890534       -4.84953018975959
O           12.84097729768788       -6.66980384062718       -4.77480161705849
C           13.29382632767757       -4.56684170804878       -3.74587868809854
C           14.97875419451385       -1.88505695132589       -2.15003274586206
C           16.28306032964748       -2.30067524235813       -2.63340587056738
C           17.19496887408921       -1.63770578771575       -1.89223772473653
N           15.12140174705451       -0.99701592917943       -1.12768092101440
C           16.44703692615104       -0.81974492007590       -0.95744186728380
C           17.07263412713077        0.04202929610976       -0.03275726326226
C           16.42592650015294        0.86298304149892        0.91071675084712
C           17.05387479651142        1.78847825260471        1.78544667548704
C           16.08004783447591        2.38852760512248        2.53485007615666
C           14.82716504421992        1.83431111444227        2.15186536412900
N           15.08750312270981        0.92636059768620        1.15891087962284
C           13.56323804026696        2.14517640715811        2.66493097242324
C           13.50483588575421        3.15525110914927        3.74961588643419
C           14.18566726987446        2.94885241804153        4.94985710718311
C           14.12227162687259        3.90117030053743        5.96051148046134
O           14.77403605234363        3.70675621714048        7.13284344733061
C           13.38174304886141        5.06910658030302        5.77090061248836
O           13.34011905888604        5.99136343727283        6.78342503449119
C           12.70420819007505        5.27639317859812        4.57209080074939
O           12.00169052208073        6.44742209781218        4.45709952114723
C           12.76021070091600        4.32375398704505        3.56288773717405
C           12.36212557139923        1.57480386644717        2.22766383922873
C           11.06571587392151        1.83261290076038        2.83525899022611
C           10.16700945400902        1.10297882166036        2.14370772386324
C           10.91319623288185        0.39697326006130        1.11761651473573
N           12.23281749567501        0.69544303702102        1.20632647292277
H            9.22981619778836       -0.52777509744737        0.23993008821485
H            9.20647031777036       -2.09721319006865       -1.88444259885640
H           11.08645898202226       -3.14028655893136       -3.47273406145867
H           12.98491897123761       -0.77622336767889       -0.53761541712045
H           14.76923216937328       -1.82089304875837       -5.10810722000291
H           15.28557639480968       -2.39801874484795       -7.30320999230162
H           14.34505504063737       -5.35055744316015       -7.85960429172443
H           12.96862507693927       -7.09952779102167       -5.63666014560524
H           12.87485802660977       -4.93294367392335       -2.81747452659625
H           16.45671335276693       -3.01867397177694       -3.41853039156449
H           18.27063576866808       -1.68471657749735       -1.94969551555606
H           18.11556751408481        1.97220518174739        1.82218360613559
H           16.21502713563783        3.15240846125740        3.28296217944688
H           14.37537470829488        0.38468347439085        0.68020221899493
H           14.74706299596784        2.03868148260120        5.11684435575449
H           14.60606128385532        4.47287377011744        7.70606322332194
H           12.78377388472669        6.73075020234072        6.49089773677376
H           11.55934511624460        6.49918980896080        3.59969203061670
H           12.24255741022550        4.49861377487377        2.62702330105255
H           10.89336670132710        2.47160895949966        3.68646517887865
H            9.10150377035127        1.02473111389391        2.29363783441448
C           33.01132929582481       -0.28072814725568        0.37038057248986
C           32.39993755932661        0.51763290126219        1.32835900256823
C           33.04721679060701        1.27435806512371        2.34507694829105
C           32.08385603733104        1.92105854091134        3.06677532683645
C           30.81540320897536        1.56740422142084        2.52431885151034
N           31.05795473256246        0.72991944615071        1.47248490120973
C           29.55045678586844        1.98400358498966        2.95408007088704
C           29.50603720067591        2.89278924907916        4.12657433270326
C           28.94148200210097        4.16435143804743        3.99218950040591
C           28.90430589594553        5.02231749885653        5.08394050776334
O           28.37511353236529        6.28495082550009        5.02522353505588
C           29.42108159016284        4.61766400667382        6.31210539676331
O           29.39422163761643        5.44350774680623        7.40512642000262
C           29.98100481749848        3.34639336124416        6.44865694277850
O           30.47709311995078        2.96045268706722        7.64952791905984
C           30.02646375502144        2.48821261796784        5.35600782883530
C           28.34116774189751        1.60679347687990        2.36457142755908
C           27.03733492695866        1.96748027341528        2.89141426445660
C           26.12463462702497        1.41402995429515        2.06613040836179
N           28.19757412812351        0.83897126254547        1.24924248322929
C           26.87168553931072        0.71592546696460        1.03809896030712
C           26.24532073837896        0.03658604286066       -0.02731297229789
C           26.89179548637663       -0.67153550944684       -1.05834166303155
C           26.26374075152394       -1.28837004476445       -2.17238305006454
C           27.23759327122224       -1.86413732026126       -2.94057417271019
C           28.49064013607623       -1.63032591531015       -2.30906687003908
N           28.23032927026638       -0.89523538119428       -1.18215548510931
C           29.75457125157693       -2.04858974024250       -2.73894064798483
C           29.81263647734812       -2.84783673783778       -3.98717549756241
C           29.13440987956496       -4.06322125940462       -4.08463568881737
C           29.19819662469079       -4.80543529155454       -5.25826276118493
O           28.54940727713431       -5.99101581762797       -5.36034121236340
C           29.93621712057365       -4.32976612098989       -6.34338431666092
O           29.97836242875106       -5.08136969578529       -7.48829179805191
C           30.61084093153421       -3.11535023979588       -6.24722600062803
O           31.31080284370002       -2.71118961288772       -7.35390994634472
C           30.55466999107797       -2.37473647032926       -5.07357046495286
C           30.95628082807496       -1.76542689262690       -2.07947651228506
C           32.25259322459005       -2.28858620151974       -2.48226518985649
C           33.15244282127527       -1.79776038814146       -1.60612197533323
C           32.40705332654839       -0.97923342865609       -0.66670021673542
N           31.08673293716494       -0.99348958014540       -0.97486572410505
H           34.09195103792904       -0.35327875872370        0.44186608558235
H           34.11503072037333        1.31697532299853        2.48928617616129
H           32.23368551883789        2.58902376027780        3.89932541060241
H           30.33633108865103        0.32713386163993        0.88401880460642
H           28.54952005001849        4.49038741519798        3.03594606163260
H           28.03255103717867        6.47259555494425        4.14149188845810
H           28.97021019776214        6.27534894247519        7.14036272387015
H           30.34792108203215        3.68761117162320        8.28064625654211
H           30.44666914036486        1.49836333298077        5.47898701806786
H           26.86475069437519        2.54722255489382        3.78372890808035
H           25.04900866423038        1.45505509580666        2.12885795349261
H           25.20194722983000       -1.27884534258066       -2.35896252221743
H           27.10265533388102       -2.39856807316398       -3.86664085121628
H           28.94234634679953       -0.56560928081005       -0.53867502833344
H           28.57494369361114       -4.45236241801100       -3.24379122566584
H           28.71741985570970       -6.35560472009879       -6.24497558041394
H           30.53280554118442       -4.61298108269428       -8.13249331851147
H           31.75103222631181       -1.86657908957405       -7.19167486985324
H           31.07019098864197       -1.42358319593967       -5.01095542996933
H           32.42406479325723       -2.95507861523057       -3.31230381584827
H           34.21823904111227       -1.96098013661099       -1.56956572284485
C           22.27328328222059        0.11666223422733       -0.09919319488751
C           21.04479274684019        0.12733986582024       -0.08814008450784
C           19.70078510317108        0.11941014418595       -0.07302426238415
C           18.47694595031427        0.09772876736349       -0.05023871935546
C           23.61723507521908        0.09659511082993       -0.09257202313139
C           24.84102541864229        0.06793118064305       -0.07638509102411

          :  Hamiltonian                  GFN1-xTB          :
         :: total energy            -252.392905242677 Eh    ::
         :: gradient norm              0.000480054483 Eh/a0 ::
         :: HOMO-LUMO gap              1.003631746916 eV    ::
         :: SCC energy              -255.901456521226 Eh    ::
         :: repulsion energy           3.617427437801 Eh    ::

    * Orbital Energies and Occupations

         #    Occupation            Energy/Eh            Energy/eV
      -------------------------------------------------------------
         1        2.0000           -0.8126317             -22.1128
       ...           ...                  ...                  ...
       205        2.0000           -0.4167724             -11.3410
       206        2.0000           -0.4155537             -11.3078
       207        2.0000           -0.4152922             -11.3007
       208        2.0000           -0.4149765             -11.2921
       209        2.0000           -0.4129272             -11.2363
       210        2.0000           -0.4118859             -11.2080
       211        2.0000           -0.4117850             -11.2052
       212        2.0000           -0.4109500             -11.1825
       213        2.0000           -0.4105784             -11.1724
       214        2.0000           -0.3985843             -10.8460
       215        2.0000           -0.3981650             -10.8346
       216        2.0000           -0.3863543             -10.5132
       217        2.0000           -0.3775137             -10.2727 (HOMO)
       218                         -0.3406309              -9.2690 (LUMO)
       219                         -0.3309251              -9.0049
       220                         -0.3306422              -8.9972
       221                         -0.3292970              -8.9606
       222                         -0.3007938              -8.1850
       223                         -0.2934583              -7.9854
       224                         -0.2840382              -7.7291
       225                         -0.2629872              -7.1562
       226                         -0.2549551              -6.9377
       227                         -0.2547450              -6.9320
       228                         -0.2537886              -6.9059
       ...                                ...                  ...
       444                          1.5792627              42.9739
      -------------------------------------------------------------
                  HL-Gap            0.0368828 Eh            1.0036 eV

Wiberg/Mayer (AO) data.
largest (>0.10) Wiberg bond orders for each atom

     #   Z sym  total        # sym  WBO       # sym  WBO       # sym  WBO
 ---------------------------------------------------------------------------
     1   6 C    3.925 --    41 C    1.366     2 C    1.346    43 H    0.971
     2   6 C    3.902 --     1 C    1.346     3 C    1.229     6 N    1.170
     3   6 C    3.953 --     4 C    1.595     2 C    1.229    44 H    0.977
     4   6 C    3.959 --     3 C    1.595     5 C    1.235    45 H    0.974
     5   6 C    3.895 --     7 C    1.303     4 C    1.235     6 N    1.177
     6   7 N    3.469 --     5 C    1.177     2 C    1.170    46 H    0.873
     7   6 C    3.939 --    17 C    1.335     5 C    1.303     8 C    1.030
     8   6 C    3.989 --    16 C    1.398     9 C    1.385     7 C    1.030
     9   6 C    3.974 --     8 C    1.385    10 C    1.385    47 H    0.969
    10   6 C    3.905 --     9 C    1.385    12 C    1.340    11 O    1.013
    11   8 O    2.025 --    10 C    1.013    48 H    0.861
    12   6 C    3.904 --    10 C    1.340    14 C    1.324    13 O    1.021
    13   8 O    2.021 --    12 C    1.021    49 H    0.846
    14   6 C    3.918 --    16 C    1.380    12 C    1.324    15 O    1.053
    15   8 O    2.048 --    14 C    1.053    50 H    0.847
    16   6 C    3.976 --     8 C    1.398    14 C    1.380    51 H    0.970
    17   6 C    3.914 --     7 C    1.335    20 N    1.286    18 C    1.126
    18   6 C    3.965 --    19 C    1.708    17 C    1.126    52 H    0.974
    19   6 C    3.963 --    18 C    1.708    21 C    1.129    53 H    0.974
    20   7 N    3.021 --    21 C    1.344    17 C    1.286
    21   6 C    3.908 --    20 N    1.344    22 C    1.252    19 C    1.129
    22   6 C    3.937 --    21 C    1.252    23 C    1.251   130 C    1.192
    23   6 C    3.885 --    22 C    1.251    24 C    1.249    27 N    1.190
    24   6 C    3.958 --    25 C    1.583    23 C    1.249    54 H    0.975
    25   6 C    3.955 --    24 C    1.583    26 C    1.241    55 H    0.974
    26   6 C    3.898 --    28 C    1.310    25 C    1.241    27 N    1.164
    27   7 N    3.474 --    23 C    1.190    26 C    1.164    56 H    0.873
    28   6 C    3.925 --    38 C    1.319    26 C    1.310    29 C    1.032
    29   6 C    3.989 --    30 C    1.397    37 C    1.384    28 C    1.032
    30   6 C    3.975 --    29 C    1.397    31 C    1.380    57 H    0.970
    31   6 C    3.918 --    30 C    1.380    33 C    1.324    32 O    1.053
    32   8 O    2.048 --    31 C    1.053    58 H    0.848
    33   6 C    3.903 --    35 C    1.340    31 C    1.324    34 O    1.021
    34   8 O    2.021 --    33 C    1.021    59 H    0.846
    35   6 C    3.905 --    37 C    1.385    33 C    1.340    36 O    1.013
    36   8 O    2.024 --    35 C    1.013    60 H    0.861
    37   6 C    3.971 --    35 C    1.385    29 C    1.384    61 H    0.969
    38   6 C    3.928 --    42 N    1.319    28 C    1.319    39 C    1.119
    39   6 C    3.967 --    40 C    1.720    38 C    1.119    62 H    0.974
    40   6 C    3.966 --    39 C    1.720    41 C    1.118    63 H    0.976
    41   6 C    3.929 --     1 C    1.366    42 N    1.299    40 C    1.118
    42   7 N    3.011 --    38 C    1.319    41 C    1.299
    43   1 H    1.002 --     1 C    0.971
    44   1 H    0.998 --     3 C    0.977
    45   1 H    1.005 --     4 C    0.974
    46   1 H    0.986 --     6 N    0.873
    47   1 H    1.001 --     9 C    0.969
    48   1 H    0.881 --    11 O    0.861
    49   1 H    0.876 --    13 O    0.846
    50   1 H    0.878 --    15 O    0.847
    51   1 H    1.000 --    16 C    0.970
    52   1 H    1.006 --    18 C    0.974
    53   1 H    1.003 --    19 C    0.974
    54   1 H    1.002 --    24 C    0.975
    55   1 H    1.005 --    25 C    0.974
    56   1 H    0.987 --    27 N    0.873
    57   1 H    1.000 --    30 C    0.970
    58   1 H    0.878 --    32 O    0.848
    59   1 H    0.876 --    34 O    0.846
    60   1 H    0.881 --    36 O    0.861
    61   1 H    1.001 --    37 C    0.969
    62   1 H    1.006 --    39 C    0.974
    63   1 H    0.998 --    40 C    0.976
    64   6 C    3.925 --   104 C    1.366    65 C    1.346   106 H    0.971
    65   6 C    3.902 --    64 C    1.346    66 C    1.229    69 N    1.170
    66   6 C    3.953 --    67 C    1.595    65 C    1.229   107 H    0.977
    67   6 C    3.959 --    66 C    1.595    68 C    1.235   108 H    0.974
    68   6 C    3.895 --    70 C    1.303    67 C    1.235    69 N    1.177
    69   7 N    3.469 --    68 C    1.177    65 C    1.170   109 H    0.873
    70   6 C    3.939 --    80 C    1.335    68 C    1.303    71 C    1.029
    71   6 C    3.989 --    79 C    1.398    72 C    1.385    70 C    1.029
    72   6 C    3.974 --    71 C    1.385    73 C    1.385   110 H    0.969
    73   6 C    3.905 --    72 C    1.385    75 C    1.340    74 O    1.013
    74   8 O    2.025 --    73 C    1.013   111 H    0.861
    75   6 C    3.904 --    73 C    1.340    77 C    1.324    76 O    1.021
    76   8 O    2.021 --    75 C    1.021   112 H    0.846
    77   6 C    3.918 --    79 C    1.380    75 C    1.324    78 O    1.053
    78   8 O    2.048 --    77 C    1.053   113 H    0.847
    79   6 C    3.976 --    71 C    1.398    77 C    1.380   114 H    0.970
    80   6 C    3.914 --    70 C    1.335    83 N    1.286    81 C    1.126
    81   6 C    3.965 --    82 C    1.708    80 C    1.126   115 H    0.974
    82   6 C    3.963 --    81 C    1.708    84 C    1.129   116 H    0.974
    83   7 N    3.021 --    84 C    1.344    80 C    1.286
    84   6 C    3.908 --    83 N    1.344    85 C    1.252    82 C    1.129
    85   6 C    3.937 --    84 C    1.252    86 C    1.251   132 C    1.192
    86   6 C    3.885 --    85 C    1.251    87 C    1.249    90 N    1.190
    87   6 C    3.958 --    88 C    1.583    86 C    1.249   117 H    0.975
    88   6 C    3.955 --    87 C    1.583    89 C    1.241   118 H    0.974
    89   6 C    3.898 --    91 C    1.310    88 C    1.241    90 N    1.164
    90   7 N    3.474 --    86 C    1.190    89 C    1.164   119 H    0.873
    91   6 C    3.925 --   101 C    1.319    89 C    1.310    92 C    1.032
    92   6 C    3.989 --    93 C    1.397   100 C    1.384    91 C    1.032
    93   6 C    3.975 --    92 C    1.397    94 C    1.380   120 H    0.970
    94   6 C    3.918 --    93 C    1.380    96 C    1.324    95 O    1.053
    95   8 O    2.048 --    94 C    1.053   121 H    0.848
    96   6 C    3.903 --    98 C    1.340    94 C    1.324    97 O    1.021
    97   8 O    2.021 --    96 C    1.021   122 H    0.846
    98   6 C    3.905 --   100 C    1.385    96 C    1.340    99 O    1.013
    99   8 O    2.024 --    98 C    1.013   123 H    0.861
   100   6 C    3.971 --    98 C    1.385    92 C    1.384   124 H    0.969
   101   6 C    3.928 --   105 N    1.319    91 C    1.319   102 C    1.119
   102   6 C    3.967 --   103 C    1.720   101 C    1.119   125 H    0.974
   103   6 C    3.966 --   102 C    1.720   104 C    1.118   126 H    0.976
   104   6 C    3.929 --    64 C    1.366   105 N    1.299   103 C    1.118
   105   7 N    3.011 --   101 C    1.319   104 C    1.299
   106   1 H    1.002 --    64 C    0.971
   107   1 H    0.998 --    66 C    0.977
   108   1 H    1.005 --    67 C    0.974
   109   1 H    0.986 --    69 N    0.873
   110   1 H    1.001 --    72 C    0.969
   111   1 H    0.881 --    74 O    0.861
   112   1 H    0.876 --    76 O    0.846
   113   1 H    0.878 --    78 O    0.847
   114   1 H    1.000 --    79 C    0.970
   115   1 H    1.006 --    81 C    0.974
   116   1 H    1.003 --    82 C    0.974
   117   1 H    1.002 --    87 C    0.975
   118   1 H    1.005 --    88 C    0.974
   119   1 H    0.987 --    90 N    0.873
   120   1 H    1.000 --    93 C    0.970
   121   1 H    0.878 --    95 O    0.848
   122   1 H    0.876 --    97 O    0.846
   123   1 H    0.881 --    99 O    0.861
   124   1 H    1.001 --   100 C    0.969
   125   1 H    1.006 --   102 C    0.974
   126   1 H    0.998 --   103 C    0.976
   127   6 C    3.925 --   128 C    2.366   131 C    1.337   130 C    0.190
   128   6 C    3.925 --   127 C    2.366   129 C    1.337   132 C    0.190
   129   6 C    3.932 --   130 C    2.446   128 C    1.337
   130   6 C    3.890 --   129 C    2.446    22 C    1.192   127 C    0.190
   131   6 C    3.932 --   132 C    2.446   127 C    1.337
   132   6 C    3.890 --   131 C    2.446    85 C    1.192   128 C    0.190
 ---------------------------------------------------------------------------

           -------------------------------------------------
          | TOTAL ENERGY             -252.392905242677 Eh   |
          | GRADIENT NORM               0.000480054483 Eh/α |
          | HOMO-LUMO GAP               1.003631746916 eV   |
           -------------------------------------------------

 * finished run on 2022/07/29 at 19:00:03.878
