   * xtb version 6.5.1 (b24c23e) compiled by 'conda@728c89f4b128' on 2022-07-12
          program call               : xtb PhNH2_C2_2.xyz --gfn 1 --opt -T 48

   ID    Z sym.   atoms
    1    6 C      1-5, 7-11, 13-17, 19-24, 26-30, 32-37, 62-66, 68-72, 74-78,
                  80-85, 87-91, 93-98, 123, 124
    2    7 N      6, 12, 18, 25, 31, 38, 67, 73, 79, 86, 92, 99
    3    1 H      39-61, 100-122
########################################################################
[WARNING] Please study the warnings concerning your input carefully
-1- prog_main_parseArguments: Unknown option '-T' provided
########################################################################

          :  Hamiltonian                  GFN1-xTB          :
 * total energy  :  -202.0490456 Eh     change       -0.2182475E-08 Eh
 * total energy  :  -202.4007387 Eh     change       -0.3516931E+00 Eh
 * total energy  :  -202.5052417 Eh     change       -0.1045031E+00 Eh
 * total energy  :  -202.5484531 Eh     change       -0.4321140E-01 Eh
 * total energy  :  -202.5649002 Eh     change       -0.1644708E-01 Eh
 * total energy  :  -202.5737898 Eh     change       -0.8889571E-02 Eh
 * total energy  :  -202.5777260 Eh     change       -0.3936188E-02 Eh
 * total energy  :  -202.5802943 Eh     change       -0.2568362E-02 Eh
 * total energy  :  -202.5823243 Eh     change       -0.2029958E-02 Eh
 * total energy  :  -202.5839503 Eh     change       -0.1625995E-02 Eh
 * total energy  :  -202.5941149 Eh     change       -0.8463836E-05 Eh
 * total energy  :  -202.5941275 Eh     change       -0.1264860E-04 Eh
 * total energy  :  -202.5941416 Eh     change       -0.1411658E-04 Eh
 * total energy  :  -202.5941542 Eh     change       -0.1260307E-04 Eh
 * total energy  :  -202.5941656 Eh     change       -0.1136634E-04 Eh
 * total energy  :  -202.5941757 Eh     change       -0.1009993E-04 Eh
 * total energy  :  -202.5941831 Eh     change       -0.7430117E-05 Eh
 * total energy  :  -202.5941881 Eh     change       -0.5008871E-05 Eh
 * total energy  :  -202.5941919 Eh     change       -0.3790034E-05 Eh
   *** GEOMETRY OPTIMIZATION CONVERGED AFTER 62 ITERATIONS ***

 final structure:
================
124
 xtb: 6.5.1 (b24c23e)
C           13.28813287806461       -0.11830523306766        0.12182029385158
C           13.91136423482885       -0.99726546836253        0.99799072869307
C           13.27803067874578       -1.92463027876484        1.87115452661028
C           14.25482646627320       -2.59309124501478        2.55460080622424
C           15.51608274209223       -2.08747361519636        2.12873517515774
N           15.25808144625188       -1.13397670046847        1.18495541219215
C           16.78584384484141       -2.49196625881771        2.55617203478961
C           16.82705305048629       -3.53200488245003        3.61275592966834
C           17.44536954006327       -4.76279049932035        3.37972663029127
C           17.48072718607830       -5.73638758746755        4.36211045945332
C           16.90624434159790       -5.49270168824914        5.61218217785857
N           16.90514960177074       -6.47863973026373        6.58417160018429
C           16.28041497026582       -4.26679237898676        5.85138756159080
C           16.24218345192868       -3.30187106340225        4.86025425832072
C           17.99734046568566       -1.99463425729377        2.06780142698092
C           19.29276175965049       -2.41064828871913        2.57149766219335
C           20.21428520337163       -1.72376122910480        1.86569827186444
N           18.15619290621655       -1.05788522641775        1.09133980492781
C           19.48619872971642       -0.87650764771005        0.94463912366140
C           20.12714289651923       -0.00138131176906        0.04192184791852
C           19.47069365997519        0.86352532761540       -0.85653017230216
C           20.08797813663615        1.73703897707741       -1.78813017387956
C           19.10494579224615        2.39207659839993       -2.47586645010998
C           17.85063561482830        1.95048429248173       -1.97346538831386
N           18.12293441556477        1.02350434207291       -1.00087601351576
C           16.58328574801221        2.36135150333971       -2.40267839078492
C           16.54049320300685        3.38785797873116       -3.47164596113302
C           15.92991522745283        3.10942231095262       -4.69707385504043
C           15.88877574533929        4.05959888550055       -5.70186825175703
C           16.44750648701934        5.32333962615683       -5.49493830633150
N           16.44277059173185        6.26362001252155       -6.51149289646404
C           17.06301246246914        5.60890197849889       -4.27367702606477
C           17.10831740094044        4.64932837290506       -3.27764219742498
C           15.36915502643817        1.87912479086482       -1.90282592992357
C           14.06416406041346        2.36921570336500       -2.31886214502809
C           13.15063043881093        1.67359978040699       -1.61171288318290
C           13.89663808377354        0.76760218039575       -0.75738149019808
N           15.22892718949207        0.92393523964170       -0.95374542665445
H           12.20298722039446       -0.13309782421619        0.13136835349869
H           12.21098979845619       -2.05932280770958        1.95044731381419
H           14.11886511845074       -3.37634068687738        3.28258832375788
H           15.97052741171463       -0.61029791855395        0.68777481500891
H           17.88534500557444       -4.96320488318388        2.40902867362124
H           17.95522032467644       -6.69164551841893        4.16580400032205
H           16.78371462695198       -6.14553668481641        7.52722598153367
H           17.63099837638356       -7.17079375542430        6.48849343069776
H           15.82901940108606       -4.07293481564515        6.81833048805174
H           15.77146280233066       -2.34551288688249        5.06092695461220
H           19.45640467406174       -3.12083145658425        3.36567770626080
H           21.28670366199535       -1.76899487515935        1.94817049104883
H           21.15104484895185        1.84604646225312       -1.91559160447445
H           19.23608940508843        3.11054879886919       -3.26827937845479
H           17.41602385205309        0.52138586928586       -0.47398517500652
H           15.50130774765474        2.12801205249614       -4.86822527530038
H           15.42191960539249        3.82737381109160       -6.65288941141751
H           15.72281481400080        6.13543207055759       -7.20464638981183
H           16.54740405715313        7.21838547812131       -6.20704232986871
H           17.50081875670326        6.58728755369080       -4.10802292230122
H           17.57054850358436        4.88615269748136       -2.32548331433524
H           13.89457220808970        3.15048438714506       -3.04237413527195
H           12.07475051633581        1.75066575107604       -1.63685047649246
C           31.00854655289916        0.09130415941475       -0.14318781171742
C           30.38531847729046        0.74289505649204       -1.19944397984380
C           31.01864521325725        1.38044941542294       -2.30214844356096
C           30.04184627750237        1.89268825528638       -3.10933150538611
C           28.78059695751363        1.59396736519042       -2.51959242520736
N           29.03860260097586        0.89363319089197       -1.37530036507073
C           27.51083691187381        1.91741853352867       -3.01120802284488
C           27.46961393958522        2.70768936142713       -4.26561410427264
C           26.85149131956799        2.19882757048448       -5.41035348456767
C           26.81612787185527        2.93207353223253       -6.58309400016191
C           27.39038106763789        4.20483255892102       -6.63216354589961
N           27.39145734119535        4.92514673095165       -7.81452876719265
C           28.01600327433026        4.71859442415588       -5.49357693134015
C           28.05426950908288        3.97483264790386       -4.32728488213061
C           26.29934482821500        1.55596722536958       -2.41522198283933
C           25.00393116117207        1.95103034269155       -2.93552827925439
C           24.08240476011589        1.42138985786706       -2.10520212605915
N           26.14048934107039        0.82000678619632       -1.27973274715014
C           24.81048578115268        0.71884688754104       -1.06952073632463
C           24.16953647957216        0.04062281174155       -0.01086794104334
C           24.82598202296474       -0.63588006994507        1.03681138154824
C           24.20869437141707       -1.34261829843840        2.10049157905272
C           25.19172505374611       -1.86207529278323        2.89561673108660
C           26.44603903939941       -1.47419898140048        2.35068238186833
N           26.17374258413264       -0.73980059764599        1.22556893053194
C           27.71339113778535       -1.79789370419205        2.84894000122281
C           27.75616697470736       -2.60331509232261        4.09300076060248
C           28.36697302088342       -3.85983341734869        4.10272296495926
C           28.40808727910442       -4.62028920127202        5.25777901645477
C           27.84908213954893       -4.12953154239107        6.44045059899928
N           27.85376685575318       -4.90372076904200        7.58855242139570
C           27.23335344024309       -2.87543848908187        6.43862424288457
C           27.18809399406587       -2.12565398639468        5.27643117566968
C           28.92752456941751       -1.42181569621412        2.26501471496266
C           30.23252330471336       -1.71452417253020        2.83736144568445
C           31.14605355211168       -1.18560595890347        1.99819852871670
C           30.40003934610913       -0.56154537370219        0.92058654653254
N           29.06774946252304       -0.71682193700729        1.11778786338417
H           32.09369211758241        0.09714809150427       -0.15980880840601
H           32.08568364404043        1.42675100256276       -2.45144870170216
H           30.17779328960985        2.42197153922437       -4.03847573171426
H           28.32616079642523        0.52962949820018       -0.75165369763563
H           26.41167552295205        1.20795996250282       -5.38312729227575
H           26.34180523996831        2.52209037666945       -7.46803954613224
H           27.51266487579317        5.91945344065820       -7.70627861808922
H           26.66573242597804        4.67331749726098       -8.46644396474761
H           28.46721266931230        5.70431996896497       -5.52631056447809
H           28.52484407515370        4.38930125442481       -3.44227469065024
H           24.84030378129157        2.56142202589445       -3.80874654348592
H           23.00998746810668        1.49136785343342       -2.16808974538695
H           23.14562767310371       -1.44169506792603        2.23581207053165
H           25.06056793733710       -2.46886916072845        3.77647838668969
H           26.88065523830325       -0.34195379311600        0.61609979604686
H           28.79578329008367       -4.25113845160107        3.18666186313368
H           28.87512986808463       -5.59913135733468        5.24960987337629
H           28.57385838199737       -5.60766173881237        7.62265643994272
H           27.74885478094558       -4.38872794195436        8.44819633425644
H           26.79531331071837       -2.49019905129625        7.35299039244607
H           26.72570748576641       -1.14463792618921        5.28883201544120
H           30.40212973514714       -2.23976838332027        3.76362427139207
H           32.22193564210818       -1.19245621628920        2.07894484555960
C           21.53888214133913        0.01692327794447        0.02510707704014
C           22.75779737483434        0.02886103567496        0.01101744075706

          :  Hamiltonian                  GFN1-xTB          :
         :: total energy            -202.594191939868 Eh    ::
         :: gradient norm              0.000352748694 Eh/a0 ::
         :: HOMO-LUMO gap              0.948196569663 eV    ::
         :: SCC energy              -205.856421325305 Eh    ::
         :: repulsion energy           3.367183239114 Eh    ::

    * Orbital Energies and Occupations

         #    Occupation            Energy/Eh            Energy/eV
      -------------------------------------------------------------
         1        2.0000           -0.7934365             -21.5905
       ...           ...                  ...                  ...
       173        2.0000           -0.4095086             -11.1433
       174        2.0000           -0.4065213             -11.0620
       175        2.0000           -0.4065053             -11.0616
       176        2.0000           -0.4054212             -11.0321
       177        2.0000           -0.4054193             -11.0320
       178        2.0000           -0.3978397             -10.8258
       179        2.0000           -0.3972037             -10.8085
       180        2.0000           -0.3953476             -10.7580
       181        2.0000           -0.3952189             -10.7545
       182        2.0000           -0.3892063             -10.5908
       183        2.0000           -0.3883952             -10.5688
       184        2.0000           -0.3784125             -10.2971
       185        2.0000           -0.3662183              -9.9653 (HOMO)
       186                         -0.3313728              -9.0171 (LUMO)
       187                         -0.3202910              -8.7156
       188                         -0.3202307              -8.7139
       189                         -0.3148842              -8.5684
       190                         -0.2880376              -7.8379
       191                         -0.2789668              -7.5911
       192                         -0.2557761              -6.9600
       193                         -0.2557750              -6.9600
       194                         -0.2555178              -6.9530
       195                         -0.2555148              -6.9529
       196                         -0.2438220              -6.6347
       ...                                ...                  ...
       404                          1.3343619              36.3098
      -------------------------------------------------------------
                  HL-Gap            0.0348456 Eh            0.9482 eV

Wiberg/Mayer (AO) data.
largest (>0.10) Wiberg bond orders for each atom

     #   Z sym  total        # sym  WBO       # sym  WBO       # sym  WBO
 ---------------------------------------------------------------------------
     1   6 C    3.922 --    37 C    1.365     2 C    1.345    39 H    0.971
     2   6 C    3.903 --     1 C    1.345     3 C    1.232     6 N    1.169
     3   6 C    3.952 --     4 C    1.592     2 C    1.232    40 H    0.977
     4   6 C    3.959 --     3 C    1.592     5 C    1.237    41 H    0.974
     5   6 C    3.895 --     7 C    1.302     4 C    1.237     6 N    1.176
     6   7 N    3.468 --     5 C    1.176     2 C    1.169    42 H    0.874
     7   6 C    3.939 --    15 C    1.333     5 C    1.302     8 C    1.032
     8   6 C    3.988 --    14 C    1.382     9 C    1.381     7 C    1.032
     9   6 C    3.988 --    10 C    1.468     8 C    1.381    43 H    0.973
    10   6 C    3.990 --     9 C    1.468    11 C    1.354    44 H    0.972
    11   6 C    3.952 --    13 C    1.355    10 C    1.354    12 N    1.114
    12   7 N    3.133 --    11 C    1.114    45 H    0.934    46 H    0.934
    13   6 C    3.990 --    14 C    1.467    11 C    1.355    47 H    0.972
    14   6 C    3.987 --    13 C    1.467     8 C    1.382    48 H    0.973
    15   6 C    3.915 --     7 C    1.333    18 N    1.287    16 C    1.128
    16   6 C    3.965 --    17 C    1.704    15 C    1.128    49 H    0.973
    17   6 C    3.964 --    16 C    1.704    19 C    1.133    50 H    0.964
    18   7 N    3.020 --    19 C    1.342    15 C    1.287
    19   6 C    3.914 --    18 N    1.342    20 C    1.256    17 C    1.133
    20   6 C    3.936 --    19 C    1.256    21 C    1.253   123 C    1.183
    21   6 C    3.890 --    20 C    1.253    22 C    1.252    25 N    1.187
    22   6 C    3.959 --    23 C    1.579    21 C    1.252    51 H    0.965
    23   6 C    3.955 --    22 C    1.579    24 C    1.243    52 H    0.974
    24   6 C    3.898 --    26 C    1.307    23 C    1.243    25 N    1.165
    25   7 N    3.472 --    21 C    1.187    24 C    1.165    53 H    0.874
    26   6 C    3.924 --    34 C    1.320    24 C    1.307    27 C    1.033
    27   6 C    3.988 --    33 C    1.382    28 C    1.381    26 C    1.033
    28   6 C    3.987 --    29 C    1.469    27 C    1.381    54 H    0.973
    29   6 C    3.989 --    28 C    1.469    30 C    1.354    55 H    0.972
    30   6 C    3.951 --    32 C    1.355    29 C    1.354    31 N    1.114
    31   7 N    3.132 --    30 C    1.114    57 H    0.934    56 H    0.934
    32   6 C    3.990 --    33 C    1.467    30 C    1.355    58 H    0.972
    33   6 C    3.987 --    32 C    1.467    27 C    1.382    59 H    0.973
    34   6 C    3.928 --    26 C    1.320    38 N    1.317    35 C    1.119
    35   6 C    3.967 --    36 C    1.720    34 C    1.119    60 H    0.974
    36   6 C    3.966 --    35 C    1.720    37 C    1.119    61 H    0.976
    37   6 C    3.930 --     1 C    1.365    38 N    1.300    36 C    1.119
    38   7 N    3.008 --    34 C    1.317    37 C    1.300
    39   1 H    1.002 --     1 C    0.971
    40   1 H    0.998 --     3 C    0.977
    41   1 H    1.005 --     4 C    0.974
    42   1 H    0.987 --     6 N    0.874
    43   1 H    1.005 --     9 C    0.973
    44   1 H    0.999 --    10 C    0.972
    45   1 H    0.961 --    12 N    0.934
    46   1 H    0.961 --    12 N    0.934
    47   1 H    0.999 --    13 C    0.972
    48   1 H    1.005 --    14 C    0.973
    49   1 H    1.006 --    16 C    0.973
    50   1 H    1.008 --    17 C    0.964
    51   1 H    1.008 --    22 C    0.965
    52   1 H    1.005 --    23 C    0.974
    53   1 H    0.988 --    25 N    0.874
    54   1 H    1.005 --    28 C    0.973
    55   1 H    0.999 --    29 C    0.972
    56   1 H    0.961 --    31 N    0.934
    57   1 H    0.961 --    31 N    0.934
    58   1 H    0.999 --    32 C    0.972
    59   1 H    1.005 --    33 C    0.973
    60   1 H    1.006 --    35 C    0.974
    61   1 H    0.999 --    36 C    0.976
    62   6 C    3.922 --    98 C    1.365    63 C    1.345   100 H    0.971
    63   6 C    3.903 --    62 C    1.345    64 C    1.232    67 N    1.169
    64   6 C    3.952 --    65 C    1.592    63 C    1.232   101 H    0.977
    65   6 C    3.959 --    64 C    1.592    66 C    1.237   102 H    0.974
    66   6 C    3.895 --    68 C    1.302    65 C    1.237    67 N    1.176
    67   7 N    3.468 --    66 C    1.176    63 C    1.169   103 H    0.874
    68   6 C    3.939 --    76 C    1.333    66 C    1.302    69 C    1.032
    69   6 C    3.988 --    75 C    1.382    70 C    1.381    68 C    1.032
    70   6 C    3.988 --    71 C    1.468    69 C    1.381   104 H    0.973
    71   6 C    3.990 --    70 C    1.468    72 C    1.354   105 H    0.972
    72   6 C    3.952 --    74 C    1.355    71 C    1.354    73 N    1.114
    73   7 N    3.133 --    72 C    1.114   106 H    0.934   107 H    0.934
    74   6 C    3.990 --    75 C    1.467    72 C    1.355   108 H    0.972
    75   6 C    3.987 --    74 C    1.467    69 C    1.382   109 H    0.973
    76   6 C    3.915 --    68 C    1.333    79 N    1.287    77 C    1.128
    77   6 C    3.965 --    78 C    1.704    76 C    1.128   110 H    0.973
    78   6 C    3.964 --    77 C    1.704    80 C    1.133   111 H    0.964
    79   7 N    3.020 --    80 C    1.342    76 C    1.287
    80   6 C    3.914 --    79 N    1.342    81 C    1.256    78 C    1.133
    81   6 C    3.936 --    80 C    1.256    82 C    1.253   124 C    1.183
    82   6 C    3.890 --    81 C    1.253    83 C    1.252    86 N    1.187
    83   6 C    3.959 --    84 C    1.579    82 C    1.252   112 H    0.965
    84   6 C    3.955 --    83 C    1.579    85 C    1.243   113 H    0.974
    85   6 C    3.898 --    87 C    1.307    84 C    1.243    86 N    1.165
    86   7 N    3.472 --    82 C    1.187    85 C    1.165   114 H    0.874
    87   6 C    3.924 --    95 C    1.320    85 C    1.307    88 C    1.033
    88   6 C    3.988 --    94 C    1.382    89 C    1.381    87 C    1.033
    89   6 C    3.987 --    90 C    1.469    88 C    1.381   115 H    0.973
    90   6 C    3.989 --    89 C    1.469    91 C    1.354   116 H    0.972
    91   6 C    3.951 --    93 C    1.355    90 C    1.354    92 N    1.114
    92   7 N    3.132 --    91 C    1.114   118 H    0.934   117 H    0.934
    93   6 C    3.990 --    94 C    1.467    91 C    1.355   119 H    0.972
    94   6 C    3.987 --    93 C    1.467    88 C    1.382   120 H    0.973
    95   6 C    3.928 --    87 C    1.320    99 N    1.317    96 C    1.119
    96   6 C    3.967 --    97 C    1.720    95 C    1.119   121 H    0.974
    97   6 C    3.966 --    96 C    1.720    98 C    1.119   122 H    0.976
    98   6 C    3.930 --    62 C    1.365    99 N    1.300    97 C    1.119
    99   7 N    3.008 --    95 C    1.317    98 C    1.300
   100   1 H    1.002 --    62 C    0.971
   101   1 H    0.998 --    64 C    0.977
   102   1 H    1.005 --    65 C    0.974
   103   1 H    0.987 --    67 N    0.874
   104   1 H    1.005 --    70 C    0.973
   105   1 H    0.999 --    71 C    0.972
   106   1 H    0.961 --    73 N    0.934
   107   1 H    0.961 --    73 N    0.934
   108   1 H    0.999 --    74 C    0.972
   109   1 H    1.005 --    75 C    0.973
   110   1 H    1.006 --    77 C    0.973
   111   1 H    1.008 --    78 C    0.964
   112   1 H    1.008 --    83 C    0.965
   113   1 H    1.005 --    84 C    0.974
   114   1 H    0.988 --    86 N    0.874
   115   1 H    1.005 --    89 C    0.973
   116   1 H    0.999 --    90 C    0.972
   117   1 H    0.961 --    92 N    0.934
   118   1 H    0.961 --    92 N    0.934
   119   1 H    0.999 --    93 C    0.972
   120   1 H    1.005 --    94 C    0.973
   121   1 H    1.006 --    96 C    0.974
   122   1 H    0.999 --    97 C    0.976
   123   6 C    3.933 --   124 C    2.573    20 C    1.183
   124   6 C    3.933 --   123 C    2.573    81 C    1.183
 ---------------------------------------------------------------------------

           -------------------------------------------------
          | TOTAL ENERGY             -202.594191939868 Eh   |
          | GRADIENT NORM               0.000352748694 Eh/α |
          | HOMO-LUMO GAP               0.948196569663 eV   |
           -------------------------------------------------

 * finished run on 2022/07/29 at 11:22:38.895
