   * xtb version 6.5.1 (b24c23e) compiled by 'conda@728c89f4b128' on 2022-07-12
          program call               : xtb Ni_p-CP_C2_3.xyz --gfn 1 --opt -T 48

   ID    Z sym.   atoms
    1   28 Ni     1, 63, 129
    2    6 C      2-6, 8-11, 13-24, 27-32, 35-39, 42, 43, 64-68, 70-73,
                  75-86, 89-94, 97-101, 104, 105, 125-128, 130-134, 136-139,
                  141-152, 155-160, 163-167, 170, 171
    3    7 N      7, 12, 33, 34, 69, 74, 95, 96, 135, 140, 161, 162
    4    8 O      25, 26, 40, 41, 87, 88, 102, 103, 153, 154, 168, 169
    5    1 H      44-62, 106-124, 172-189
########################################################################
[WARNING] Please study the warnings concerning your input carefully
-1- prog_main_parseArguments: Unknown option '-T' provided
########################################################################

          :  Hamiltonian                  GFN1-xTB          :
 * total energy  :  -360.5615664 Eh     change       -0.4600963E-08 Eh
 * total energy  :  -361.1295974 Eh     change       -0.5680310E+00 Eh
 * total energy  :  -361.2835399 Eh     change       -0.1539425E+00 Eh
 * total energy  :  -361.3598612 Eh     change       -0.7632131E-01 Eh
 * total energy  :  -361.3904252 Eh     change       -0.3056397E-01 Eh
 * total energy  :  -361.4053723 Eh     change       -0.1494708E-01 Eh
 * total energy  :  -361.4132678 Eh     change       -0.7895511E-02 Eh
 * total energy  :  -361.4176829 Eh     change       -0.4415103E-02 Eh
 * total energy  :  -361.4198261 Eh     change       -0.2143229E-02 Eh
 * total energy  :  -361.4209650 Eh     change       -0.1138898E-02 Eh
 * total energy  :  -361.4245581 Eh     change       -0.7683365E-05 Eh
 * total energy  :  -361.4245677 Eh     change       -0.9631417E-05 Eh
 * total energy  :  -361.4245741 Eh     change       -0.6393936E-05 Eh
 * total energy  :  -361.4245816 Eh     change       -0.7521364E-05 Eh
 * total energy  :  -361.4245895 Eh     change       -0.7881822E-05 Eh
 * total energy  :  -361.4245968 Eh     change       -0.7299711E-05 Eh
 * total energy  :  -361.4246046 Eh     change       -0.7855239E-05 Eh
 * total energy  :  -361.4246120 Eh     change       -0.7307548E-05 Eh
 * total energy  :  -361.4246142 Eh     change       -0.2248077E-05 Eh
   *** GEOMETRY OPTIMIZATION CONVERGED AFTER 44 ITERATIONS ***

 final structure:
================
189
 xtb: 6.5.1 (b24c23e)
Ni          38.58476713955420       -0.05180790858878        0.01907741159395
C           35.19596033582296       -0.14624379993767        0.04290012885773
C           35.85690433023737       -0.30526001415356        1.24291619322715
C           35.18748815061218       -0.49669395546621        2.49355535457713
C           36.14376782126525       -0.48972773099223        3.45071074104453
C           37.39937595125100       -0.30372012645525        2.78285135760290
N           37.21393350863067       -0.21142493582354        1.42597222287912
C           38.60915626547173       -0.13454402750455        3.44291084974331
C           39.81040702955167        0.06027224681555        2.77382517460310
C           41.07358717900943        0.20613610770014        3.43307646637954
C           42.01946531480709        0.23848782285425        2.46472891548045
N           39.98103878393842        0.02250154057467        1.40950310554986
C           41.33435507968302        0.10622325019200        1.21747251701058
C           41.99081880959532       -0.01862779209025       -0.00546195227657
C           41.31694208146967       -0.14062770509228       -1.21886063340777
C           41.98232760949065       -0.27851016687029       -2.47602075313422
C           41.02242842257856       -0.23540941673090       -3.43040224625533
C           39.77213607963883       -0.06635168146382       -2.75263124976613
C           38.55545980967810        0.09432117528285       -3.40408944290430
C           38.54848290016999        0.17377476751805       -4.88325908457428
C           37.86241672826061       -0.77821234378366       -5.64188384579682
C           37.85841505524061       -0.69928435148667       -7.02235317248161
C           38.53626036860339        0.33521802490279       -7.67007762574375
C           38.49797275716088        0.38041759666413       -9.15148479853388
O           39.18289787648419        1.40833244224478       -9.67522686342092
O           37.91637572594237       -0.41768963586604       -9.84151147310337
C           39.22256766743921        1.28848149473901       -6.91712666203473
C           39.22933556332050        1.20474153917270       -5.53581913505854
C           37.34723024507506        0.17619764039463       -2.72412088872833
C           36.07738937163356        0.36274057000910       -3.36422610711470
C           35.13487413261990        0.27914425615832       -2.39672891760870
C           35.82947483291792        0.06074055378415       -1.16457915999319
N           37.18645873951358        0.03441476548693       -1.36846014740141
N           39.96096188221578       -0.05057156191279       -1.39083308007646
C           38.62007177871656       -0.17169317208878        4.92547238301009
C           38.30631460335291       -1.35250708461511        5.60255742200709
C           38.31747187472941       -1.38716794159640        6.98492099446960
C           38.63825272085086       -0.24101110513629        7.71461165232664
C           38.63106126886013       -0.32655937890483        9.19481828847906
O           38.96528926459494        0.82265008253571        9.80082953630959
O           38.35782421623225       -1.32118685407636        9.81704076802713
C           38.95119425382215        0.94069035556539        7.04225966459665
C           38.94361515164697        0.97211370037882        5.65846870294373
H           34.11262047114511       -0.17368591085513        0.05129398631095
H           34.12041594617066       -0.60511081241110        2.60475508439232
H           36.02221668252618       -0.58532484482854        4.51737978756570
H           41.21000329297487        0.25770811223791        4.50086176715023
H           43.08865065042405        0.32876783737151        2.56923941728736
H           43.04804417115747       -0.38923002788651       -2.59540251576049
H           41.13875809379772       -0.31669974628535       -4.49875489448953
H           37.34594111929485       -1.58941374326227       -5.14151651328205
H           37.33173166077776       -1.43718107245784       -7.61751109047734
H           39.10829081196226        1.36610214799538      -10.64244264733607
H           39.74801956994195        2.09444261511342       -7.41560506709924
H           39.75287664837048        1.95201830422731       -4.95018193939164
H           35.93868916723313        0.53611955923876       -4.41894018252869
H           34.06337693584181        0.35860089735271       -2.48819830563814
H           38.06736608007277       -2.24583593794647        5.03686816377429
H           38.07885224365540       -2.30102805967619        7.51785657256828
H           38.93785079120637        0.68265911665683       10.76130930225545
H           39.19815555004329        1.83311913156613        7.60503310801969
H           39.17594739357752        1.89294647912148        5.13552078808512
Ni          60.28066905181150       -0.03704838666799       -0.05675068795653
C           63.66788759028853       -0.12428421407041       -0.09678037913064
C           63.00394052161202       -0.15820398054418       -1.30543175343440
C           63.66785047294968       -0.22198226659625       -2.57196363083074
C           62.70918695054085       -0.10253912093178       -3.51948462785174
C           61.45758937640066        0.02674500424882       -2.83102089280564
N           61.64737986785202       -0.03395394777937       -1.47304268039330
C           60.25074538053033        0.29983517354920       -3.46127756564248
C           59.05548766805030        0.44260995224349       -2.76828753132733
C           57.79534988332044        0.70510311777318       -3.39617139166747
C           56.85115996394399        0.62607084002961       -2.42841120325009
N           58.88487744459521        0.22712237383755       -1.42042519777976
C           57.53370661015150        0.30783579649397       -1.21397391075723
C           56.87609479286578        0.00135076296818       -0.02291852987774
C           57.55286283462036       -0.30637079661949        1.15667183165733
C           56.89279120634236       -0.63215778416267        2.38136978120327
C           57.85413015269578       -0.70919731477733        3.33264382038606
C           59.09996788956842       -0.42546280285029        2.68605359975151
C           60.31394460591831       -0.32017260329224        3.35422526053475
C           60.32096423667710       -0.41911274313145        4.83185963010414
C           61.03950872844969       -1.43121973616296        5.47363986686056
C           61.04476919117748       -1.51537765327345        6.85380490206152
C           60.33553808252049       -0.58703138015171        7.61824459244525
C           60.37635830098686       -0.71545060035829        9.09476630903897
O           59.66109783973153        0.22164868023804        9.73501775313560
O           60.98574370273128       -1.56978545678523        9.68648413799670
C           59.61628345474662        0.42531629030830        6.98227088769710
C           59.60840370759761        0.50475191966854        5.60078272949282
C           61.51896867743523       -0.12879045540955        2.69027656893589
C           62.78709088181157        0.00541789650482        3.34668717130256
C           63.72904662690716        0.04337863404005        2.37555508797847
C           63.03563948244378       -0.04750133202885        1.12682532313392
N           61.67947395778203       -0.11242262037809        1.32734400687444
N           58.90788107100186       -0.22576570076047        1.33927974238331
C           60.23647049120717        0.43658638516615       -4.93787098124820
C           60.51660401312996       -0.66606451655630       -5.74837204977822
C           60.49889036555830       -0.54110681298345       -7.12541145772609
C           60.20471217826640        0.68915726007944       -7.71615424855105
C           60.19589022345274        0.77236438927726       -9.19645908161616
O           59.89641123230496        1.99376213653148       -9.66382085908752
O           60.43456630937035       -0.15223829549111       -9.93107129089439
C           59.92815134181939        1.79384189953602       -6.91015780804216
C           59.94234331088830        1.66563726781228       -5.53200572675911
H           64.75124386907885       -0.14843676539936       -0.11002644557068
H           64.73339431161268       -0.32894460169370       -2.69829234790386
H           62.82716496582767       -0.08459239790842       -4.59070313083832
H           57.65877276533533        0.90460379688776       -4.44640949046304
H           55.78407689794443        0.75249772845502       -2.51611809745952
H           55.82907938244169       -0.77433273115010        2.48452321229288
H           57.74141477242806       -0.94210384050395        4.37887838362116
H           61.58045611694198       -2.16074963685095        4.88174138202594
H           61.59676816172764       -2.30072441352476        7.35842009516011
H           59.73967249838955        0.06879982905366       10.69069489948507
H           59.06637119525195        1.14940306206768        7.57169527927168
H           59.05956257456393        1.29857021815232        5.10671982007493
H           62.92552368692620        0.06269221942065        4.41405809554751
H           64.79947282581735        0.12725088169556        2.47531839414130
H           60.73382063943843       -1.62447937676471       -5.29074564698513
H           60.70968532235557       -1.39373076668708       -7.76157602899315
H           59.91294277097101        1.96384292116216      -10.63422815531068
H           59.70353984680430        2.75140918851548       -7.36483935739989
H           59.73787295376145        2.52608115073100       -4.90497516590632
C           43.40670733651025       -0.01628413796917       -0.01519816860777
C           44.62066730725510       -0.01019709674858       -0.02064540819904
C           54.24762108097898        0.00509015226514       -0.00126915528903
C           55.46204225118085        0.00535622284199       -0.01155828054476
Ni          49.43479358927235        0.00037662087188       -0.01565033445450
C           46.03571349703677       -0.00612162036138       -0.02336646535637
C           46.70882639933055       -1.21098320144121       -0.22327012748117
C           46.05560362560531       -2.45644665571520       -0.47577185839404
C           47.01218836839409       -3.41507521743752       -0.42535507657753
C           48.24693361462845       -2.75286480839641       -0.12922558114286
N           48.05718035803580       -1.39266374859067       -0.06690636688926
C           49.44013962773691       -3.40642027676044        0.15629198215233
C           50.63058003480557       -2.72365236457131        0.37751763621368
C           51.86611130236973       -3.34834886699806        0.74281190727057
C           52.81897033225207       -2.38525020316918        0.70345980059849
N           50.81633972388828       -1.37546241279612        0.18104121262006
C           52.16301970895849       -1.17371766998852        0.32496845762626
C           52.83423385068661        0.00547950564591       -0.00084401913784
C           52.16253277573372        1.18325413174524       -0.33014620946718
C           52.81815206935925        2.39723321358760       -0.70141109888603
C           51.86248065466845        3.35704420424035       -0.75056196229915
C           50.62522835785052        2.72785150056445       -0.39891529174360
C           49.42970499244502        3.40657061497264       -0.19341974880764
C           49.42735359821397        4.88480904480104       -0.26798052312739
C           50.23726164623657        5.63713625559591        0.58721299873833
C           50.23003896199116        7.01804473751980        0.51986288070622
C           49.41743232984474        7.67311784253631       -0.40744395939592
C           49.44681740639166        9.15507665979632       -0.44336018346191
O           48.62358655387250        9.68639426754612       -1.35969459810113
O           50.13518688570785        9.83898745390483        0.27064932435974
C           48.60941839676719        6.92676916667878       -1.26578371906526
C           48.61387900991799        5.54487006924389       -1.19280411811721
C           48.23586113566027        2.74965923479194        0.08146381066422
C           46.99670126400983        3.40850614727511        0.36615536557871
C           46.04387955938599        2.44610503007712        0.41772638220165
C           46.70331066625150        1.20196773900423        0.17501222432754
N           48.05172054336671        1.38858845519262        0.02353872576600
N           50.81365158650078        1.38050429147651       -0.19958345760074
C           49.44138972440403       -4.88459669808551        0.22927633007292
C           48.61433428198561       -5.54800982243421        1.13996916893425
C           48.61686355956400       -6.92889849541779        1.20744210469170
C           49.44194189751313       -7.67312067880189        0.36208201735216
C           49.40696705500903       -9.15164757173966        0.47030665789224
O           50.23295399761808       -9.77203892774308       -0.38532152231541
O           48.71233932716950       -9.76024689870403        1.24385606106623
C           50.26765897706019       -7.01600260008644       -0.55056746651689
C           50.26784145272786       -5.63352657342602       -0.61258075739112
H           44.99925630198388       -2.56701451193388       -0.66079586932340
H           46.90153899233688       -4.47668926352264       -0.57476359977363
H           51.97958221949722       -4.38976731604076        0.99620874210998
H           53.87475836590684       -2.47308224307961        0.90351973606628
H           53.87579480517363        2.48887589658019       -0.88958423279565
H           51.97488965278586        4.39905545458221       -1.00204223976237
H           50.85901660520284        5.13094222914198        1.31687188683440
H           50.85121396283842        7.60804299788370        1.18480738803881
H           48.70231518367460       10.65338931936514       -1.31950097783071
H           47.98030243486884        7.43094380448051       -1.98978976919512
H           47.99531048112209        4.96485375319797       -1.86839435172503
H           46.88085910533783        4.47059639425620        0.50831775264199
H           44.98611898770601        2.55334375481542        0.59671632317556
H           47.98246672011481       -4.97161959272792        1.80611694852183
H           47.98173987946032       -7.44974651728444        1.91557018594364
H           50.15125683504672      -10.73033358277015       -0.25151034939909
H           50.90665414099299       -7.58986039357348       -1.21125192955450
H           50.89972045841401       -5.12364621011905       -1.33106087842297

          :  Hamiltonian                  GFN1-xTB          :
         :: total energy            -361.424614201758 Eh    ::
         :: gradient norm              0.000965633612 Eh/a0 ::
         :: HOMO-LUMO gap              1.301849155842 eV    ::
         :: SCC energy              -366.506809408592 Eh    ::
         :: repulsion energy           5.256384776088 Eh    ::

    * Orbital Energies and Occupations

         #    Occupation            Energy/Eh            Energy/eV
      -------------------------------------------------------------
         1        2.0000           -0.8351816             -22.7264
       ...           ...                  ...                  ...
       309        2.0000           -0.4081636             -11.1067
       310        2.0000           -0.4081344             -11.1059
       311        2.0000           -0.4076399             -11.0924
       312        2.0000           -0.4076079             -11.0916
       313        2.0000           -0.4073361             -11.0842
       314        2.0000           -0.4073234             -11.0838
       315        2.0000           -0.4062831             -11.0555
       316        2.0000           -0.4062377             -11.0543
       317        2.0000           -0.4061734             -11.0525
       318        2.0000           -0.4061282             -11.0513
       319        2.0000           -0.4054296             -11.0323
       320        2.0000           -0.4012831             -10.9195
       321        2.0000           -0.3964840             -10.7889 (HOMO)
       322                         -0.3486419              -9.4870 (LUMO)
       323                         -0.3433483              -9.3430
       324                         -0.3419786              -9.3057
       325                         -0.3413927              -9.2898
       326                         -0.3413379              -9.2883
       327                         -0.3383523              -9.2070
       328                         -0.3379994              -9.1974
       329                         -0.3374750              -9.1832
       330                         -0.3373340              -9.1793
       331                         -0.3188288              -8.6758
       332                         -0.3157541              -8.5921
       ...                                ...                  ...
       659                          1.3340661              36.3018
      -------------------------------------------------------------
                  HL-Gap            0.0478421 Eh            1.3018 eV

Wiberg/Mayer (AO) data.
largest (>0.10) Wiberg bond orders for each atom

     #   Z sym  total        # sym  WBO       # sym  WBO       # sym  WBO
 ---------------------------------------------------------------------------
     1  28 Ni   3.020 --     7 N    0.666    33 N    0.665    34 N    0.662
                            12 N    0.662
     2   6 C    3.940 --     3 C    1.365    32 C    1.364    44 H    0.970
     3   6 C    3.922 --     2 C    1.365     7 N    1.213     4 C    1.173
     4   6 C    3.961 --     5 C    1.652     3 C    1.173    45 H    0.975
     5   6 C    3.963 --     4 C    1.652     6 C    1.174    46 H    0.972
     6   6 C    3.920 --     8 C    1.326     7 N    1.220     5 C    1.174
     7   7 N    3.406 --     6 C    1.220     3 C    1.213     1 Ni   0.666
     8   6 C    3.941 --     9 C    1.326     6 C    1.326    35 C    1.024
     9   6 C    3.916 --     8 C    1.326    12 N    1.211    10 C    1.181
    10   6 C    3.962 --    11 C    1.641     9 C    1.181    47 H    0.972
    11   6 C    3.962 --    10 C    1.641    13 C    1.186    48 H    0.973
    12   7 N    3.408 --    13 C    1.230     9 C    1.211     1 Ni   0.662
    13   6 C    3.915 --    14 C    1.283    12 N    1.230    11 C    1.186
    14   6 C    3.944 --    15 C    1.284    13 C    1.283   125 C    1.139
    15   6 C    3.916 --    14 C    1.284    34 N    1.228    16 C    1.187
    16   6 C    3.962 --    17 C    1.640    15 C    1.187    49 H    0.973
    17   6 C    3.962 --    16 C    1.640    18 C    1.182    50 H    0.973
    18   6 C    3.916 --    19 C    1.323    34 N    1.213    17 C    1.182
    19   6 C    3.941 --    29 C    1.324    18 C    1.323    20 C    1.030
    20   6 C    3.987 --    28 C    1.386    21 C    1.385    19 C    1.030
    21   6 C    3.987 --    22 C    1.464    20 C    1.385    51 H    0.972
                            27 C    0.103
    22   6 C    3.990 --    21 C    1.464    23 C    1.385    52 H    0.968
                            28 C    0.103
    23   6 C    3.983 --    27 C    1.388    22 C    1.385    24 C    1.009
    24   6 C    3.836 --    26 O    1.690    25 O    1.088    23 C    1.009
    25   8 O    2.096 --    24 C    1.088    53 H    0.838    26 O    0.129
    26   8 O    1.958 --    24 C    1.690    25 O    0.129
    27   6 C    3.991 --    28 C    1.462    23 C    1.388    54 H    0.970
                            21 C    0.103
    28   6 C    3.988 --    27 C    1.462    20 C    1.386    55 H    0.972
                            22 C    0.103
    29   6 C    3.921 --    19 C    1.324    33 N    1.221    30 C    1.175
    30   6 C    3.963 --    31 C    1.651    29 C    1.175    56 H    0.972
    31   6 C    3.960 --    30 C    1.651    32 C    1.174    57 H    0.975
    32   6 C    3.922 --     2 C    1.364    33 N    1.213    31 C    1.174
    33   7 N    3.405 --    29 C    1.221    32 C    1.213     1 Ni   0.665
    34   7 N    3.407 --    15 C    1.228    18 C    1.213     1 Ni   0.662
    35   6 C    3.986 --    43 C    1.389    36 C    1.387     8 C    1.024
    36   6 C    3.988 --    37 C    1.463    35 C    1.387    58 H    0.972
                            42 C    0.103
    37   6 C    3.990 --    36 C    1.463    38 C    1.386    59 H    0.968
                            43 C    0.103
    38   6 C    3.984 --    42 C    1.389    37 C    1.386    39 C    1.009
    39   6 C    3.836 --    41 O    1.690    40 O    1.088    38 C    1.009
    40   8 O    2.097 --    39 C    1.088    60 H    0.838    41 O    0.129
    41   8 O    1.959 --    39 C    1.690    40 O    0.129
    42   6 C    3.991 --    43 C    1.460    38 C    1.389    61 H    0.970
                            36 C    0.103
    43   6 C    3.988 --    42 C    1.460    35 C    1.389    62 H    0.972
                            37 C    0.103
    44   1 H    1.000 --     2 C    0.970
    45   1 H    0.997 --     4 C    0.975
    46   1 H    1.004 --     5 C    0.972
    47   1 H    1.004 --    10 C    0.972
    48   1 H    1.002 --    11 C    0.973
    49   1 H    1.002 --    16 C    0.973
    50   1 H    1.004 --    17 C    0.973
    51   1 H    1.004 --    21 C    0.972
    52   1 H    1.005 --    22 C    0.968
    53   1 H    0.873 --    25 O    0.838
    54   1 H    1.005 --    27 C    0.970
    55   1 H    1.004 --    28 C    0.972
    56   1 H    1.004 --    30 C    0.972
    57   1 H    0.997 --    31 C    0.975
    58   1 H    1.003 --    36 C    0.972
    59   1 H    1.005 --    37 C    0.968
    60   1 H    0.873 --    40 O    0.838
    61   1 H    1.005 --    42 C    0.970
    62   1 H    1.003 --    43 C    0.972
    63  28 Ni   3.024 --    69 N    0.666    95 N    0.666    96 N    0.663
                            74 N    0.662
    64   6 C    3.938 --    65 C    1.365    94 C    1.364   106 H    0.970
    65   6 C    3.922 --    64 C    1.365    69 N    1.213    66 C    1.173
    66   6 C    3.961 --    67 C    1.652    65 C    1.173   107 H    0.975
    67   6 C    3.963 --    66 C    1.652    68 C    1.175   108 H    0.972
    68   6 C    3.920 --    70 C    1.326    69 N    1.220    67 C    1.175
    69   7 N    3.405 --    68 C    1.220    65 C    1.213    63 Ni   0.666
    70   6 C    3.940 --    71 C    1.326    68 C    1.326    97 C    1.023
    71   6 C    3.916 --    70 C    1.326    74 N    1.210    72 C    1.182
    72   6 C    3.961 --    73 C    1.640    71 C    1.182   109 H    0.972
    73   6 C    3.962 --    72 C    1.640    75 C    1.188   110 H    0.973
    74   7 N    3.407 --    75 C    1.231    71 C    1.210    63 Ni   0.662
    75   6 C    3.914 --    76 C    1.279    74 N    1.231    73 C    1.188
    76   6 C    3.944 --    77 C    1.280    75 C    1.279   128 C    1.147
    77   6 C    3.914 --    76 C    1.280    96 N    1.229    78 C    1.188
    78   6 C    3.962 --    79 C    1.638    77 C    1.188   111 H    0.973
    79   6 C    3.962 --    78 C    1.638    80 C    1.183   112 H    0.973
    80   6 C    3.916 --    81 C    1.322    96 N    1.212    79 C    1.183
    81   6 C    3.940 --    91 C    1.324    80 C    1.322    82 C    1.031
    82   6 C    3.987 --    90 C    1.386    83 C    1.385    81 C    1.031
    83   6 C    3.987 --    84 C    1.464    82 C    1.385   113 H    0.972
                            89 C    0.103
    84   6 C    3.990 --    83 C    1.464    85 C    1.385   114 H    0.968
                            90 C    0.103
    85   6 C    3.983 --    89 C    1.388    84 C    1.385    86 C    1.009
    86   6 C    3.836 --    88 O    1.690    87 O    1.088    85 C    1.009
    87   8 O    2.097 --    86 C    1.088   115 H    0.838    88 O    0.129
    88   8 O    1.958 --    86 C    1.690    87 O    0.129
    89   6 C    3.991 --    90 C    1.462    85 C    1.388   116 H    0.970
                            83 C    0.103
    90   6 C    3.988 --    89 C    1.462    82 C    1.386   117 H    0.972
                            84 C    0.103
    91   6 C    3.921 --    81 C    1.324    95 N    1.220    92 C    1.175
    92   6 C    3.963 --    93 C    1.651    91 C    1.175   118 H    0.972
    93   6 C    3.960 --    92 C    1.651    94 C    1.174   119 H    0.975
    94   6 C    3.922 --    64 C    1.364    95 N    1.213    93 C    1.174
    95   7 N    3.404 --    91 C    1.220    94 C    1.213    63 Ni   0.666
    96   7 N    3.407 --    77 C    1.229    80 C    1.212    63 Ni   0.663
    97   6 C    3.986 --   105 C    1.389    98 C    1.387    70 C    1.023
    98   6 C    3.988 --    99 C    1.463    97 C    1.387   120 H    0.972
                           104 C    0.103
    99   6 C    3.990 --    98 C    1.463   100 C    1.386   121 H    0.968
                           105 C    0.103
   100   6 C    3.984 --   104 C    1.389    99 C    1.386   101 C    1.009
   101   6 C    3.836 --   103 O    1.690   102 O    1.088   100 C    1.009
   102   8 O    2.097 --   101 C    1.088   122 H    0.838   103 O    0.129
   103   8 O    1.958 --   101 C    1.690   102 O    0.129
   104   6 C    3.991 --   105 C    1.460   100 C    1.389   123 H    0.970
                            98 C    0.103
   105   6 C    3.988 --   104 C    1.460    97 C    1.389   124 H    0.972
                            99 C    0.103
   106   1 H    1.000 --    64 C    0.970
   107   1 H    0.997 --    66 C    0.975
   108   1 H    1.004 --    67 C    0.972
   109   1 H    1.004 --    72 C    0.972
   110   1 H    1.002 --    73 C    0.973
   111   1 H    1.002 --    78 C    0.973
   112   1 H    1.004 --    79 C    0.973
   113   1 H    1.004 --    83 C    0.972
   114   1 H    1.005 --    84 C    0.968
   115   1 H    0.873 --    87 O    0.838
   116   1 H    1.005 --    89 C    0.970
   117   1 H    1.004 --    90 C    0.972
   118   1 H    1.004 --    92 C    0.972
   119   1 H    0.997 --    93 C    0.975
   120   1 H    1.003 --    98 C    0.972
   121   1 H    1.005 --    99 C    0.968
   122   1 H    0.873 --   102 O    0.838
   123   1 H    1.005 --   104 C    0.970
   124   1 H    1.003 --   105 C    0.972
   125   6 C    3.930 --   126 C    2.607    14 C    1.139
   126   6 C    3.932 --   125 C    2.607   130 C    1.142
   127   6 C    3.933 --   128 C    2.602   142 C    1.149
   128   6 C    3.932 --   127 C    2.602    76 C    1.147
   129  28 Ni   3.029 --   140 N    0.664   135 N    0.664   162 N    0.664
                           161 N    0.663
   130   6 C    3.937 --   160 C    1.282   131 C    1.281   126 C    1.142
   131   6 C    3.915 --   130 C    1.281   135 N    1.228   132 C    1.188
   132   6 C    3.961 --   133 C    1.638   131 C    1.188   172 H    0.973
   133   6 C    3.963 --   132 C    1.638   134 C    1.183   173 H    0.973
   134   6 C    3.915 --   136 C    1.322   135 N    1.210   133 C    1.183
   135   7 N    3.402 --   131 C    1.228   134 C    1.210   129 Ni   0.664
   136   6 C    3.937 --   137 C    1.322   134 C    1.322   163 C    1.034
   137   6 C    3.915 --   136 C    1.322   140 N    1.209   138 C    1.183
   138   6 C    3.962 --   139 C    1.637   137 C    1.183   174 H    0.973
   139   6 C    3.961 --   138 C    1.637   141 C    1.189   175 H    0.973
   140   7 N    3.402 --   141 C    1.229   137 C    1.209   129 Ni   0.664
   141   6 C    3.914 --   142 C    1.278   140 N    1.229   139 C    1.189
   142   6 C    3.939 --   143 C    1.278   141 C    1.278   127 C    1.149
   143   6 C    3.914 --   142 C    1.278   162 N    1.229   144 C    1.189
   144   6 C    3.961 --   145 C    1.637   143 C    1.189   176 H    0.973
   145   6 C    3.962 --   144 C    1.637   146 C    1.183   177 H    0.973
   146   6 C    3.915 --   147 C    1.322   162 N    1.209   145 C    1.183
   147   6 C    3.937 --   146 C    1.322   157 C    1.321   148 C    1.034
   148   6 C    3.987 --   156 C    1.385   149 C    1.384   147 C    1.034
   149   6 C    3.987 --   150 C    1.465   148 C    1.384   178 H    0.972
                           155 C    0.102
   150   6 C    3.990 --   149 C    1.465   151 C    1.385   179 H    0.968
                           156 C    0.102
   151   6 C    3.982 --   155 C    1.388   150 C    1.385   152 C    1.009
   152   6 C    3.836 --   154 O    1.690   153 O    1.088   151 C    1.009
   153   8 O    2.097 --   152 C    1.088   180 H    0.838   154 O    0.129
   154   8 O    1.958 --   152 C    1.690   153 O    0.129
   155   6 C    3.991 --   156 C    1.462   151 C    1.388   181 H    0.970
                           149 C    0.102
   156   6 C    3.987 --   155 C    1.462   148 C    1.385   182 H    0.972
                           150 C    0.102
   157   6 C    3.916 --   147 C    1.321   161 N    1.210   158 C    1.183
   158   6 C    3.963 --   159 C    1.638   157 C    1.183   183 H    0.973
   159   6 C    3.961 --   158 C    1.638   160 C    1.189   184 H    0.973
   160   6 C    3.915 --   130 C    1.282   161 N    1.227   159 C    1.189
   161   7 N    3.401 --   160 C    1.227   157 C    1.210   129 Ni   0.663
   162   7 N    3.402 --   143 C    1.229   146 C    1.209   129 Ni   0.664
   163   6 C    3.987 --   171 C    1.385   164 C    1.383   136 C    1.034
   164   6 C    3.987 --   165 C    1.464   163 C    1.383   185 H    0.972
                           170 C    0.102
   165   6 C    3.990 --   164 C    1.464   166 C    1.385   186 H    0.968
                           171 C    0.102
   166   6 C    3.982 --   170 C    1.389   165 C    1.385   167 C    1.008
   167   6 C    3.836 --   169 O    1.690   168 O    1.089   166 C    1.008
   168   8 O    2.097 --   167 C    1.089   187 H    0.838   169 O    0.129
   169   8 O    1.958 --   167 C    1.690   168 O    0.129
   170   6 C    3.991 --   171 C    1.462   166 C    1.389   188 H    0.969
                           164 C    0.102
   171   6 C    3.987 --   170 C    1.462   163 C    1.385   189 H    0.972
                           165 C    0.102
   172   1 H    1.001 --   132 C    0.973
   173   1 H    1.003 --   133 C    0.973
   174   1 H    1.003 --   138 C    0.973
   175   1 H    1.001 --   139 C    0.973
   176   1 H    1.001 --   144 C    0.973
   177   1 H    1.003 --   145 C    0.973
   178   1 H    1.004 --   149 C    0.972
   179   1 H    1.005 --   150 C    0.968
   180   1 H    0.873 --   153 O    0.838
   181   1 H    1.005 --   155 C    0.970
   182   1 H    1.004 --   156 C    0.972
   183   1 H    1.004 --   158 C    0.973
   184   1 H    1.001 --   159 C    0.973
   185   1 H    1.004 --   164 C    0.972
   186   1 H    1.005 --   165 C    0.968
   187   1 H    0.873 --   168 O    0.838
   188   1 H    1.005 --   170 C    0.969
   189   1 H    1.004 --   171 C    0.972
 ---------------------------------------------------------------------------

           -------------------------------------------------
          | TOTAL ENERGY             -361.424614201758 Eh   |
          | GRADIENT NORM               0.000965633612 Eh/α |
          | HOMO-LUMO GAP               1.301849155842 eV   |
           -------------------------------------------------

 * finished run on 2022/07/30 at 06:09:34.602
