   * xtb version 6.5.1 (b24c23e) compiled by 'conda@728c89f4b128' on 2022-07-12
          program call               : xtb Cu_C2Py_C6_2.xyz --gfn 1 --opt -T 48

   ID    Z sym.   atoms
    1   29 Cu     1, 59
    2    6 C      2-6, 8-13, 15-19, 21-26, 28-33, 35-40, 60-64, 66-71, 73-77,
                  79-84, 86-91, 93-98, 117-122
    3    7 N      7, 14, 20, 27, 34, 41, 65, 72, 78, 85, 92, 99
    4    1 H      42-58, 100-116
########################################################################
[WARNING] Please study the warnings concerning your input carefully
-1- prog_main_parseArguments: Unknown option '-T' provided
########################################################################

          :  Hamiltonian                  GFN1-xTB          :
 * total energy  :  -221.4815579 Eh     change       -0.2369802E-09 Eh
 * total energy  :  -221.5707041 Eh     change       -0.8914619E-01 Eh
 * total energy  :  -221.6159039 Eh     change       -0.4519974E-01 Eh
 * total energy  :  -221.6268635 Eh     change       -0.1095960E-01 Eh
 * total energy  :  -221.6336746 Eh     change       -0.6811126E-02 Eh
 * total energy  :  -221.6371279 Eh     change       -0.3453362E-02 Eh
 * total energy  :  -221.6406996 Eh     change       -0.3571660E-02 Eh
 * total energy  :  -221.6426724 Eh     change       -0.1972747E-02 Eh
 * total energy  :  -221.6440952 Eh     change       -0.1422849E-02 Eh
 * total energy  :  -221.6449528 Eh     change       -0.8576113E-03 Eh
 * total energy  :  -221.6479068 Eh     change       -0.1393524E-04 Eh
 * total energy  :  -221.6479170 Eh     change       -0.1017818E-04 Eh
 * total energy  :  -221.6479243 Eh     change       -0.7290666E-05 Eh
 * total energy  :  -221.6479318 Eh     change       -0.7460004E-05 Eh
 * total energy  :  -221.6479423 Eh     change       -0.1053591E-04 Eh
 * total energy  :  -221.6479525 Eh     change       -0.1020161E-04 Eh
 * total energy  :  -221.6479638 Eh     change       -0.1131893E-04 Eh
 * total energy  :  -221.6479766 Eh     change       -0.1281996E-04 Eh
 * total energy  :  -221.6479800 Eh     change       -0.3359985E-05 Eh
   *** GEOMETRY OPTIMIZATION CONVERGED AFTER 44 ITERATIONS ***

 final structure:
================
122
 xtb: 6.5.1 (b24c23e)
Cu          14.86590785094083        0.06175939450441        0.02326144281047
C           11.44974290503890        0.09020368149964        0.04561938978433
C           12.08656364657634        0.96780777313284        0.91004711259955
C           11.41807968329255        1.87306589688186        1.80056807883436
C           12.38324666828661        2.55179840188826        2.47098857073345
C           13.64555477096906        2.06526712880776        1.99283503657183
N           13.44025386820710        1.10737984465073        1.04961202325353
C           14.89805089334818        2.51925042809482        2.43611505558196
C           14.91219169855065        3.52657530585823        3.42688763172180
C           14.93114805429821        4.38834256250610        4.28097740926953
C           14.94720485944909        5.39734050052430        5.27102517017051
C           16.15094917881629        5.94085415041397        5.73489390001008
C           16.11167684375669        6.92717415354026        6.70420541378952
N           14.97835149091240        7.39098228970989        7.22495417459920
C           13.82984759043611        6.87885166405528        6.78987145482374
C           13.75971340982566        5.89067314588442        5.82423351041946
C           16.13693401890122        2.05222065304771        1.97061555649977
C           17.40797703000976        2.52703282408484        2.42975111101745
C           18.35781788113025        1.83562673586950        1.74812473169212
N           16.32340408766552        1.08697480785348        1.02380634010673
C           17.66957940034632        0.93654159453255        0.87134136982800
C           18.30399343926480        0.03701578864275       -0.00336416557222
C           17.64396623675107       -0.85424303475912       -0.86729026606431
C           18.30560379204855       -1.76435682555292       -1.75310435943959
C           17.33546113943259       -2.44425482900431       -2.41758844233777
C           16.07858584003191       -1.95099788503040       -1.93916686665496
N           16.29356499159035       -0.98630883828457       -0.99789998512372
C           14.82602203749606       -2.40158864075527       -2.38351211745465
C           14.80921141878290       -3.41451405135718       -3.36856404984476
C           14.78843185838015       -4.28636719195406       -4.21230918669746
C           14.76779507573526       -5.30503853503381       -5.19233683763279
C           15.95283419582019       -5.87563268108139       -5.67157348397591
C           15.87796814298992       -6.87347567030893       -6.62685965915356
N           14.72704841667937       -7.32374471564022       -7.12020306773269
C           13.59613364593376       -6.78550697504517       -6.67079556525188
C           13.56160242061852       -5.78394358452210       -5.71706209835437
C           13.58712960631748       -1.92631586211394       -1.92419581741655
C           12.31071179466614       -2.39360346250687       -2.38380715614298
C           11.36581224880652       -1.69584963414440       -1.70414162407367
C           12.06078961789719       -0.79904233850510       -0.82546958837876
N           13.41010038649429       -0.96169776479467       -0.98207024934959
H           10.36458239156544        0.09955333167329        0.05220930183375
H           10.34730267841504        1.96649037777199        1.89067578493916
H           12.26472487647258        3.31549328554645        3.22324585762415
H           17.09686909903897        5.59241113415450        5.33813338023849
H           17.03051921242495        7.36675606363462        7.08157518231336
H           12.92412101079978        7.27919935322535        7.23631633930397
H           12.80230975666393        5.50179109612331        5.49907150807544
H           17.54558155045448        3.29135337700450        3.17784743862017
H           19.43001887116713        1.91921216470213        1.82552042898242
H           19.37519909594488       -1.86280855833340       -1.84756780454656
H           17.45037899221137       -3.21187153369879       -3.16617624889230
H           16.91200850843174       -5.53910683208356       -5.29697354587866
H           16.78164707762251       -7.33421975901140       -7.01545133064153
H           12.67525948963938       -7.17563550013510       -7.09474543237205
H           12.61742037148369       -5.37421790023016       -5.37904275570508
H           12.16951085569871       -3.15837675956873       -3.13101969832903
H           10.29255629617987       -1.77159486770542       -1.78027827010618
Cu          30.92018712062604       -0.05176107974229       -0.04247568429997
C           34.33632859965486       -0.08604004924551       -0.05352118483319
C           33.69968799476380       -1.27826310238556       -0.36382273727447
C           34.36824366977916       -2.50702480516982       -0.68415914068360
C           33.40311926150323       -3.43073283754193       -0.92293785255683
C           32.14076738568907       -2.77075634560511       -0.75065678324456
N           32.34603842113614       -1.46973809442165       -0.41213559536006
C           30.88816505404278       -3.38399569333926       -0.91274558516637
C           30.87318081544283       -4.75140629172093       -1.26843645905847
C           30.85130078791660       -5.92574560673780       -1.57323254458141
C           30.83604074003934       -7.29397845586808       -1.92855499161952
C           29.63307882255292       -7.97153674380155       -2.15945997916282
C           29.67347721991642       -9.31066076435991       -2.50450306242911
N           30.80716844799048       -9.99614419215759       -2.62920534745618
C           31.95499538563131       -9.35926749615815       -2.41115751625537
C           32.02399411716530       -8.02232711130537       -2.06235522030678
C           29.64935768440511       -2.74476401236330       -0.75009319709220
C           28.37834128344461       -3.38294289540791       -0.92068555592903
C           27.42842167023634       -2.44298648596177       -0.67781852354791
N           29.46280073164942       -1.43656163406650       -0.40851993710888
C           28.11654418318918       -1.22864492388898       -0.35750449838394
C           27.48209699414673       -0.01616716594945       -0.03500546322407
C           28.14208412354216        1.18283210980407        0.28624395494838
C           27.48034997866380        2.40994900901416        0.61342510389625
C           28.45042847638442        3.32930917521409        0.85565064006510
C           29.70734063947150        2.66579793254668        0.67713837099720
N           29.49241995134883        1.36292999376352        0.33198997936847
C           30.95992335012708        3.27834475249264        0.83571025149233
C           30.97664197619299        4.64384354405106        1.19868940363750
C           30.99776110205002        5.81532458493353        1.51435098726840
C           31.01818591702464        7.17890784453686        1.88689009899018
C           29.83304879920556        7.88168568787289        2.13407133341284
C           29.90746538459911        9.21354628591866        2.50075556432288
N           31.05802749766275        9.86921527144340        2.63127849083041
C           32.18902679636988        9.20868415074447        2.39635257431707
C           32.22400027076493        7.87634510715769        2.02542236914158
C           32.19877093027615        2.63992506982712        0.66431552427752
C           33.47516762204984        3.27388592293598        0.83074859658808
C           34.42007996639146        2.33212162320075        0.58202810394268
C           33.72512463837140        1.11792597070434        0.26249138231902
N           32.37580321804183        1.33616029080803        0.32030102010645
H           35.42149226454571       -0.09644697441383       -0.05747143438739
H           35.43903408994905       -2.63220188654195       -0.71823203238282
H           33.52174175071198       -4.46821704343708       -1.19262751672124
H           28.68681363910303       -7.45194099646785       -2.06890638183423
H           28.75523202569409       -9.86066346624165       -2.68958928149131
H           32.86106136835526       -9.94826598656244       -2.52085677069683
H           32.98080833003080       -7.54308712158323       -1.89379110880056
H           28.24087192353508       -4.41767256339745       -1.19126953530226
H           26.35622842250217       -2.55248635484148       -0.70947941714659
H           26.41075210036242        2.54128092163294        0.65023839830282
H           28.33539713786344        4.36556192701454        1.13089625107695
H           28.87414399890513        7.38650914215528        2.03974773701653
H           29.00370272900608        9.78233716084450        2.69978078779149
H           33.10960353054148        9.77368413155027        2.51150426077121
H           33.16822482707103        7.37713536431870        1.84420756751674
H           33.61630329469916        4.30767543497163        1.10369421844073
H           35.49333578740771        2.43594599494080        0.60947739657853
C           23.50697215710514        0.01255442844399       -0.02695743666030
C           22.27913317452843        0.01544319185402       -0.02238735005108
C           20.93394468019638        0.02138582123558       -0.01510836441502
C           19.71048741051775        0.02800263131841       -0.01308983650850
C           24.85216449997935        0.00406342746529       -0.02872586575344
C           26.07560655800254       -0.00255340116151       -0.03175720721607

          :  Hamiltonian                  GFN1-xTB          :
         :: total energy            -221.647979988461 Eh    ::
         :: gradient norm              0.000743961191 Eh/a0 ::
         :: HOMO-LUMO gap              0.000021635774 eV    ::
         :: SCC energy              -225.398025659454 Eh    ::
         :: repulsion energy           3.850878724263 Eh    ::

    * Orbital Energies and Occupations

         #    Occupation            Energy/Eh            Energy/eV
      -------------------------------------------------------------
         1        2.0000           -0.7723889             -21.0178
       ...           ...                  ...                  ...
       194        2.0000           -0.4193524             -11.4112
       195        2.0000           -0.4193494             -11.4111
       196        2.0000           -0.4163022             -11.3282
       197        2.0000           -0.4162999             -11.3281
       198        2.0000           -0.4160201             -11.3205
       199        2.0000           -0.4159045             -11.3173
       200        2.0000           -0.4157836             -11.3140
       201        2.0000           -0.4157811             -11.3140
       202        2.0000           -0.4033625             -10.9761
       203        2.0000           -0.4033605             -10.9760
       204        2.0000           -0.3952698             -10.7558
       205        2.0000           -0.3879312             -10.5561
       206        1.0002           -0.3639935              -9.9048 (HOMO)
       207        0.9998           -0.3639927              -9.9047 (LUMO)
       208                         -0.3452134              -9.3937
       209                         -0.3440014              -9.3608
       210                         -0.3439984              -9.3607
       211                         -0.3346814              -9.1071
       212                         -0.3163339              -8.6079
       213                         -0.3130706              -8.5191
       214                         -0.2899721              -7.8905
       215                         -0.2884984              -7.8504
       216                         -0.2884971              -7.8504
       217                         -0.2868242              -7.8049
       ...                                ...                  ...
       430                          1.5737491              42.8239
      -------------------------------------------------------------
                  HL-Gap            0.0000008 Eh            0.0000 eV

Wiberg/Mayer (AO) data.
largest (>0.10) Wiberg bond orders for each atom

     #   Z sym  total        # sym  WBO       # sym  WBO       # sym  WBO
 ---------------------------------------------------------------------------
     1  29 Cu   2.173 --    41 N    0.502     7 N    0.501    20 N    0.500
                            27 N    0.500
     2   6 C    3.930 --    40 C    1.364     3 C    1.364    42 H    0.971
     3   6 C    3.908 --     2 C    1.364     7 N    1.220     4 C    1.173
     4   6 C    3.955 --     5 C    1.650     3 C    1.173    43 H    0.976
     5   6 C    3.957 --     4 C    1.650     6 C    1.180    44 H    0.974
     6   6 C    3.904 --     8 C    1.270     7 N    1.258     5 C    1.180
     7   7 N    3.242 --     6 C    1.258     3 C    1.220     1 Cu   0.501
     8   6 C    3.932 --    17 C    1.276     6 C    1.270     9 C    1.159
     9   6 C    3.958 --    10 C    2.625     8 C    1.159
    10   6 C    3.933 --     9 C    2.625    11 C    1.141
    11   6 C    3.987 --    12 C    1.350    16 C    1.350    10 C    1.141
    12   6 C    3.973 --    13 C    1.457    11 C    1.350    45 H    0.974
                            15 C    0.104
    13   6 C    3.973 --    12 C    1.457    14 N    1.407    46 H    0.972
                            16 C    0.104
    14   7 N    2.994 --    15 C    1.407    13 C    1.407
    15   6 C    3.973 --    16 C    1.457    14 N    1.407    47 H    0.972
                            12 C    0.104
    16   6 C    3.973 --    15 C    1.457    11 C    1.350    48 H    0.974
                            13 C    0.104
    17   6 C    3.897 --     8 C    1.276    20 N    1.240    18 C    1.188
    18   6 C    3.954 --    19 C    1.637    17 C    1.188    49 H    0.974
    19   6 C    3.956 --    18 C    1.637    21 C    1.189    50 H    0.974
    20   7 N    3.246 --    21 C    1.247    17 C    1.240     1 Cu   0.500
    21   6 C    3.888 --    22 C    1.262    20 N    1.247    19 C    1.189
    22   6 C    3.937 --    23 C    1.262    21 C    1.262   120 C    1.185
    23   6 C    3.888 --    22 C    1.262    27 N    1.247    24 C    1.189
    24   6 C    3.956 --    25 C    1.637    23 C    1.189    51 H    0.974
    25   6 C    3.954 --    24 C    1.637    26 C    1.187    52 H    0.974
    26   6 C    3.898 --    28 C    1.276    27 N    1.240    25 C    1.187
    27   7 N    3.245 --    23 C    1.247    26 C    1.240     1 Cu   0.500
    28   6 C    3.932 --    26 C    1.276    37 C    1.269    29 C    1.159
    29   6 C    3.958 --    30 C    2.625    28 C    1.159
    30   6 C    3.933 --    29 C    2.625    31 C    1.141
    31   6 C    3.987 --    36 C    1.350    32 C    1.350    30 C    1.141
    32   6 C    3.973 --    33 C    1.457    31 C    1.350    53 H    0.974
                            35 C    0.104
    33   6 C    3.973 --    32 C    1.457    34 N    1.407    54 H    0.972
                            36 C    0.104
    34   7 N    2.994 --    35 C    1.407    33 C    1.407
    35   6 C    3.973 --    36 C    1.457    34 N    1.407    55 H    0.972
                            32 C    0.104
    36   6 C    3.973 --    35 C    1.457    31 C    1.350    56 H    0.974
                            33 C    0.104
    37   6 C    3.904 --    28 C    1.269    41 N    1.258    38 C    1.180
    38   6 C    3.957 --    39 C    1.650    37 C    1.180    57 H    0.974
    39   6 C    3.955 --    38 C    1.650    40 C    1.173    58 H    0.976
    40   6 C    3.908 --     2 C    1.364    41 N    1.220    39 C    1.173
    41   7 N    3.242 --    37 C    1.258    40 C    1.220     1 Cu   0.502
    42   1 H    1.001 --     2 C    0.971
    43   1 H    0.998 --     4 C    0.976
    44   1 H    1.002 --     5 C    0.974
    45   1 H    1.002 --    12 C    0.974
    46   1 H    1.013 --    13 C    0.972
    47   1 H    1.013 --    15 C    0.972
    48   1 H    1.002 --    16 C    0.974
    49   1 H    1.002 --    18 C    0.974
    50   1 H    1.002 --    19 C    0.974
    51   1 H    1.002 --    24 C    0.974
    52   1 H    1.002 --    25 C    0.974
    53   1 H    1.002 --    32 C    0.974
    54   1 H    1.013 --    33 C    0.972
    55   1 H    1.013 --    35 C    0.972
    56   1 H    1.002 --    36 C    0.974
    57   1 H    1.002 --    38 C    0.974
    58   1 H    0.998 --    39 C    0.976
    59  29 Cu   2.173 --    99 N    0.502    65 N    0.501    78 N    0.500
                            85 N    0.499
    60   6 C    3.930 --    98 C    1.364    61 C    1.364   100 H    0.971
    61   6 C    3.908 --    60 C    1.364    65 N    1.220    62 C    1.173
    62   6 C    3.955 --    63 C    1.650    61 C    1.173   101 H    0.976
    63   6 C    3.957 --    62 C    1.650    64 C    1.180   102 H    0.974
    64   6 C    3.904 --    66 C    1.270    65 N    1.258    63 C    1.180
    65   7 N    3.242 --    64 C    1.258    61 C    1.220    59 Cu   0.501
    66   6 C    3.932 --    75 C    1.276    64 C    1.270    67 C    1.159
    67   6 C    3.958 --    68 C    2.625    66 C    1.159
    68   6 C    3.933 --    67 C    2.625    69 C    1.141
    69   6 C    3.987 --    70 C    1.350    74 C    1.350    68 C    1.141
    70   6 C    3.973 --    71 C    1.457    69 C    1.350   103 H    0.974
                            73 C    0.104
    71   6 C    3.973 --    70 C    1.457    72 N    1.407   104 H    0.972
                            74 C    0.104
    72   7 N    2.994 --    71 C    1.407    73 C    1.407
    73   6 C    3.973 --    74 C    1.457    72 N    1.407   105 H    0.972
                            70 C    0.104
    74   6 C    3.973 --    73 C    1.457    69 C    1.350   106 H    0.974
                            71 C    0.104
    75   6 C    3.897 --    66 C    1.276    78 N    1.240    76 C    1.188
    76   6 C    3.954 --    77 C    1.637    75 C    1.188   107 H    0.974
    77   6 C    3.956 --    76 C    1.637    79 C    1.189   108 H    0.974
    78   7 N    3.246 --    79 C    1.246    75 C    1.240    59 Cu   0.500
    79   6 C    3.888 --    80 C    1.262    78 N    1.246    77 C    1.189
    80   6 C    3.937 --    81 C    1.262    79 C    1.262   122 C    1.185
    81   6 C    3.888 --    80 C    1.262    85 N    1.247    82 C    1.189
    82   6 C    3.956 --    83 C    1.637    81 C    1.189   109 H    0.974
    83   6 C    3.954 --    82 C    1.637    84 C    1.187   110 H    0.974
    84   6 C    3.898 --    86 C    1.276    85 N    1.240    83 C    1.187
    85   7 N    3.245 --    81 C    1.247    84 C    1.240    59 Cu   0.499
    86   6 C    3.932 --    84 C    1.276    95 C    1.269    87 C    1.159
    87   6 C    3.958 --    88 C    2.625    86 C    1.159
    88   6 C    3.933 --    87 C    2.625    89 C    1.141
    89   6 C    3.987 --    94 C    1.350    90 C    1.350    88 C    1.141
    90   6 C    3.973 --    91 C    1.457    89 C    1.350   111 H    0.974
                            93 C    0.104
    91   6 C    3.973 --    90 C    1.457    92 N    1.407   112 H    0.972
                            94 C    0.104
    92   7 N    2.994 --    93 C    1.407    91 C    1.407
    93   6 C    3.973 --    94 C    1.457    92 N    1.407   113 H    0.972
                            90 C    0.104
    94   6 C    3.973 --    93 C    1.457    89 C    1.350   114 H    0.974
                            91 C    0.104
    95   6 C    3.904 --    86 C    1.269    99 N    1.258    96 C    1.180
    96   6 C    3.957 --    97 C    1.650    95 C    1.180   115 H    0.974
    97   6 C    3.955 --    96 C    1.650    98 C    1.173   116 H    0.976
    98   6 C    3.908 --    60 C    1.364    99 N    1.220    97 C    1.173
    99   7 N    3.242 --    95 C    1.258    98 C    1.220    59 Cu   0.502
   100   1 H    1.001 --    60 C    0.971
   101   1 H    0.998 --    62 C    0.976
   102   1 H    1.002 --    63 C    0.974
   103   1 H    1.002 --    70 C    0.974
   104   1 H    1.013 --    71 C    0.972
   105   1 H    1.013 --    73 C    0.972
   106   1 H    1.002 --    74 C    0.974
   107   1 H    1.003 --    76 C    0.974
   108   1 H    1.002 --    77 C    0.974
   109   1 H    1.002 --    82 C    0.974
   110   1 H    1.002 --    83 C    0.974
   111   1 H    1.002 --    90 C    0.974
   112   1 H    1.013 --    91 C    0.972
   113   1 H    1.013 --    93 C    0.972
   114   1 H    1.002 --    94 C    0.974
   115   1 H    1.002 --    96 C    0.974
   116   1 H    0.998 --    97 C    0.976
   117   6 C    3.927 --   118 C    2.375   121 C    1.330   120 C    0.191
   118   6 C    3.927 --   117 C    2.375   119 C    1.330   122 C    0.191
   119   6 C    3.936 --   120 C    2.456   118 C    1.330
   120   6 C    3.891 --   119 C    2.456    22 C    1.185   117 C    0.191
   121   6 C    3.936 --   122 C    2.456   117 C    1.330
   122   6 C    3.891 --   121 C    2.456    80 C    1.185   118 C    0.191
 ---------------------------------------------------------------------------

           -------------------------------------------------
          | TOTAL ENERGY             -221.647979988461 Eh   |
          | GRADIENT NORM               0.000743961191 Eh/α |
          | HOMO-LUMO GAP               0.000021635774 eV   |
           -------------------------------------------------

 * finished run on 2022/07/30 at 07:49:02.073
