   * xtb version 6.5.1 (b24c23e) compiled by 'conda@728c89f4b128' on 2022-07-12
          program call               : xtb Py_C6_3.xyz --gfn 1 --opt -T 48

   ID    Z sym.   atoms
    1    6 C      1-5, 7-10, 12-16, 18-23, 25-28, 30-35, 56-60, 62-65, 67-71,
                  73-78, 80-83, 85-90, 111-127, 129-132, 134-138, 140-145,
                  147-150, 152-157
    2    7 N      6, 11, 17, 24, 29, 36, 61, 66, 72, 79, 84, 91, 128, 133,
                  139, 146, 151, 158
    3    1 H      37-55, 92-110, 159-176

          :  Hamiltonian                  GFN1-xTB          :
 * total energy  :  -301.1320736 Eh     change        0.5399670E-08 Eh
 * total energy  :  -302.0860564 Eh     change       -0.9539828E+00 Eh
 * total energy  :  -302.2774619 Eh     change       -0.1914054E+00 Eh
 * total energy  :  -302.3947524 Eh     change       -0.1172905E+00 Eh
 * total energy  :  -302.4758096 Eh     change       -0.8105727E-01 Eh
 * total energy  :  -302.5515317 Eh     change       -0.7572202E-01 Eh
 * total energy  :  -302.6006237 Eh     change       -0.4909204E-01 Eh
 * total energy  :  -302.6316656 Eh     change       -0.3104193E-01 Eh
 * total energy  :  -302.6564503 Eh     change       -0.2478469E-01 Eh
 * total energy  :  -302.6730584 Eh     change       -0.1660810E-01 Eh
 * total energy  :  -302.7562797 Eh     change       -0.5208444E-04 Eh
 * total energy  :  -302.7563319 Eh     change       -0.5219168E-04 Eh
 * total energy  :  -302.7563824 Eh     change       -0.5055186E-04 Eh
 * total energy  :  -302.7564146 Eh     change       -0.3215801E-04 Eh
 * total energy  :  -302.7564370 Eh     change       -0.2246047E-04 Eh
 * total energy  :  -302.7564506 Eh     change       -0.1358121E-04 Eh
 * total energy  :  -302.7564642 Eh     change       -0.1356776E-04 Eh
 * total energy  :  -302.7564697 Eh     change       -0.5533213E-05 Eh
 * total energy  :  -302.7564742 Eh     change       -0.4454297E-05 Eh
   *** GEOMETRY OPTIMIZATION CONVERGED AFTER 60 ITERATIONS ***

 final structure:
================
176
 xtb: 6.5.1 (b24c23e)
C           20.57118714057291        0.07963089668953        0.00154301893126
C           21.18628022110661        1.30157458018440        0.24125323679714
C           20.54089185369571        2.55313574219296        0.44849264809244
C           21.50737205548008        3.49629850521799        0.65653059337988
C           22.77456041154935        2.84927631693009        0.59226586351613
N           22.53020576158862        1.53096904969727        0.33161599233501
C           24.04074052642647        3.42726706306957        0.73741393166566
C           24.07940043485601        4.87863628673261        1.03510521044378
C           24.69800766634334        5.77875571672892        0.16798312225991
C           24.70575232023048        7.12750322944213        0.48614672103043
N           24.15029695554779        7.61438123538649        1.59129186767380
C           23.56102599862587        6.76320800468175        2.42461865372296
C           23.49729085123056        5.39851253581018        2.19067683810628
C           25.25321253726424        2.74335927534833        0.62238326185698
C           26.55273871629196        3.35551275619279        0.83370334888397
C           27.46878914738792        2.38553243258595        0.63463193826546
N           25.40138659285447        1.42347399732354        0.32271339929789
C           26.72747027062237        1.18129699353714        0.31281848383108
C           27.35901948071318       -0.04816938777380        0.03509651619848
C           26.71796704118626       -1.27146870251239       -0.23745216961230
C           27.35712490408839       -2.50461123113599       -0.53325937245002
C           26.38601010739031       -3.44770693184850       -0.72582052375947
C           25.12266500041217       -2.81916395924831       -0.54573363105125
N           25.37535148222331       -1.50353947947756       -0.25998928057299
C           23.85742619187242       -3.40366619880136       -0.66506043351297
C           23.82039487769247       -4.85543696602714       -0.95832481529320
C           24.38284162180393       -5.78552861675665       -0.08431545869770
C           24.32378047997674       -7.13333264135709       -0.40139467054956
N           23.75679843795923       -7.59188393391893       -1.51267751756365
C           23.22003561318807       -6.71221607862856       -2.35215582434289
C           23.22464006620670       -5.34590779853436       -2.11989582244679
C           22.64356188006519       -2.72202900372701       -0.52884876826427
C           21.33567906862544       -3.35389119855278       -0.61058586542976
C           20.42677665120501       -2.37549618499689       -0.42650498342631
C           21.17802779824031       -1.14940305444356       -0.22102474779929
N           22.50937313602032       -1.39755496908588       -0.28174058504022
H           19.48600808359719        0.09627174037767       -0.00906049241351
H           19.47277499042181        2.70017185238849        0.43218643962742
H           21.36174625886601        4.54999288968854        0.83086266322136
H           23.25213813574338        0.82741478647380        0.21724216469755
H           25.15281895159365        5.42862814612275       -0.75090216243857
H           25.17757129107375        7.84775603662987       -0.17574639349104
H           23.11984089301579        7.19027986941012        3.32047410828812
H           23.01781960878182        4.74131780964133        2.90638345615505
H           26.71927608294093        4.38379548484726        1.11059030541093
H           28.54288788327459        2.45022965075955        0.70216721311996
H           28.42471531304832       -2.64136128428433       -0.59429431254129
H           26.52874976646980       -4.48512518001489       -0.98062133458456
H           24.65616540998474       -0.80621749222312       -0.09822521871462
H           24.84411063937373       -5.45917646980037        0.84028123994041
H           24.75052513866149       -7.87623823657826        0.26615226169745
H           22.76668323865021       -7.11704333969381       -3.25226323434344
H           22.78670178751661       -4.66514558959894       -2.84005913695394
H           21.16222739288100       -4.40529174255476       -0.77407363861994
H           19.35042441971581       -2.44638239917674       -0.41661443525822
C           59.35245047701505       -0.07091455331222       -0.03084363847269
C           58.73378669895524       -1.26562594368160       -0.37562027480181
C           59.37543455691069       -2.47558505720303       -0.76311009092101
C           58.40617712350766       -3.40753642108931       -1.00591490541898
C           57.14100652626745       -2.79958621654427       -0.76455305411632
N           57.38922274540866       -1.50763170134440       -0.39742010956448
C           55.87313395603161       -3.37854796730447       -0.89010664663591
C           55.82907733288089       -4.80685996975734       -1.28269388173494
C           55.19699519571714       -5.21450101296373       -2.45711553393273
C           55.18451103546370       -6.56055620626097       -2.78622959040937
N           55.74780325507121       -7.49673915632904       -2.02913020858017
C           56.34971518356270       -7.11743444450290       -0.90665545573862
C           56.41894971540596       -5.79545977089476       -0.49580596024352
C           54.66313340507548       -2.71434003598453       -0.67588360935868
C           53.36230061305991       -3.35487769052498       -0.75060494864423
C           52.44924798798200       -2.39665865100469       -0.49023766441423
N           54.51889608027950       -1.39926566534830       -0.35395288547296
C           53.19374303295570       -1.17601737831943       -0.24748829142391
C           52.56505923330820        0.05231645259393        0.04206960157741
C           53.20936669106367        1.26913316492328        0.33501826706034
C           52.57454860361336        2.50848206633365        0.61357736222036
C           53.54860359815746        3.43288666446072        0.87135416820225
C           54.80933540535614        2.78286792636715        0.76402858862095
N           54.55247246969097        1.47991705216665        0.42853711805045
C           56.07619995404261        3.35097491910425        0.93504570500789
C           56.11682781271902        4.77716864317942        1.33407970703388
C           55.54237693788802        5.21019792181129        2.52906104108758
C           55.60562260543238        6.55392675061300        2.86203296060642
N           56.18766795613910        7.46508485113675        2.08889444694148
C           56.73573976370196        7.06144357152712        0.94726460609202
C           56.72814700488681        5.73949230753818        0.53104192756691
C           57.28806855409731        2.67477198035507        0.75977163415658
C           58.59736001223919        3.26791292408068        0.98436323290313
C           59.50348159043148        2.30847217576605        0.70927466766248
C           58.74902452339539        1.12688011358324        0.32909012000797
N           57.41855723860595        1.38187333701097        0.37921492453463
H           60.43762209644721       -0.08489394041784       -0.04521395201903
H           60.44306680819172       -2.60154248798693       -0.84705764836328
H           58.54869597621424       -4.42505102758268       -1.33179655745630
H           56.66937830996121       -0.82753563111282       -0.17707048454460
H           54.73546091989244       -4.48484415147959       -3.11162110197295
H           54.70223059760927       -6.90118260449101       -3.69773294851879
H           56.79703345990005       -7.90516853381723       -0.30751574869346
H           56.90860132441786       -5.53558930245781        0.43517303802140
H           53.19302269043843       -4.39869699589061       -0.95934874381831
H           51.37528753470389       -2.48335152994307       -0.45123992595025
H           51.50776286751548        2.66389351373012        0.61074099588164
H           53.40965767805816        4.47573146753699        1.10527413924768
H           55.26922237428254        0.77941330846043        0.26977021047885
H           55.06860161618938        4.50104709085294        3.19750431034224
H           55.16979021337241        6.91346929840760        3.78962278400544
H           57.20126284864398        7.82927975411031        0.33626098074893
H           57.17583704192595        5.45926854883577       -0.41495057646560
H           58.77359016833783        4.27763919513149        1.31850328666306
H           60.57979450365495        2.36175983263602        0.75798132815042
C           32.56058315560797       -0.08931020926112       -0.00608117338295
C           31.33213242436626       -0.08936513719016        0.00530902003477
C           29.98825954978552       -0.08246754345167        0.01755360472888
C           28.76439679294842       -0.06843268724835        0.02804912489578
C           33.90429191928406       -0.08322768197600       -0.01964404350614
C           35.12830803333355       -0.06848435070459       -0.03116905848129
C           48.59213820835055        0.10253546317280        0.02955671037393
C           47.36371107935320        0.10261034366850        0.01468745738739
C           46.02007437179280        0.09436120093927        0.00270351296302
C           44.79610527297594        0.07570188147929       -0.01247948226403
C           49.93593566179144        0.09382937448598        0.03852222722643
C           51.15983457372371        0.07593523636545        0.04199224916138
C           36.53271273373684       -0.05194680630765       -0.04045123880534
C           37.17559753291682       -1.27935137942263        0.21046451028063
C           36.54330223483024       -2.51843928296288        0.49018596394199
C           37.52067811633172       -3.46040723893471        0.66078426613158
C           38.77893950703525       -2.82354371612616        0.48182301893431
N           38.51954885943910       -1.50495151898463        0.21994628923152
C           40.04693946708571       -3.40946127330223        0.57594446983481
C           40.07944939005167       -4.86712175630092        0.84622970230524
C           40.66721094411385       -5.37509755268339        2.00412664605296
C           40.66750754837679       -6.74459722377061        2.21672829255857
N           40.13401207378085       -7.61055389544613        1.36109081224818
C           39.57533757006297       -7.13500282805384        0.25291534738069
C           39.52065859658502       -5.78246442923848       -0.04494632683944
C           41.26373574231239       -2.73985314840604        0.43920600281752
C           42.55825148078328       -3.39564630390672        0.49000420215786
C           43.48334758688387       -2.42836031271482        0.32212948229875
N           41.42351222809580       -1.40483016341994        0.22432863197182
C           42.75241071728568       -1.18693356601362        0.16002055713927
C           43.39188087914957        0.05527942095666       -0.02673646655734
C           42.74858946773963        1.29087838765762       -0.23251679504185
C           43.38023020792593        2.54872986731103       -0.41185707692015
C           42.40290891464717        3.48641016109550       -0.60518667333384
C           41.14550848969334        2.82515337173167       -0.55604098550031
N           41.40503082809867        1.50191647518961       -0.31902475548893
C           39.87792443510029        3.40273695913625       -0.69676798609130
C           39.84697699745034        4.85736355225671       -0.98349049139326
C           39.24984964688114        5.75773801410374       -0.10215676339270
C           39.25090383081159        7.10845439265190       -0.41274535144550
N           39.79445894266559        7.59602283232565       -1.52332882804716
C           40.36267745596696        6.74414967115786       -2.37055987324428
C           40.41671165349140        5.37771535128218       -2.14499939276701
C           38.66109636747264        2.72777744520325       -0.59148706477692
C           37.36707946111465        3.35557489789712       -0.79096814963520
C           36.44191763905707        2.39210837107292       -0.60281721108014
C           37.17246909488145        1.17684451911584       -0.30066127556545
N           38.50102649217229        1.40516456371968       -0.30954386979931
H           35.47676306390017       -2.66100806200614        0.55575710071680
H           37.38415712790853       -4.50265572507650        0.89862182951166
H           39.23125731030657       -0.79902410793843        0.06364410841569
H           41.10369426954763       -4.70525175385042        2.73526137583404
H           41.11457366000543       -7.16359962134223        3.11344391943027
H           39.15157631424118       -7.86730510583459       -0.42805524531674
H           39.06518276059313       -5.44132635333628       -0.96703919606388
H           42.71528946449271       -4.45371596596208        0.62263713764714
H           44.55733490864238       -2.52030185084514        0.29829362908683
H           44.44629126197945        2.70749156789183       -0.39073290598451
H           42.53875984045960        4.54436754626766       -0.75939082997693
H           40.69374461446436        0.78532050985512       -0.21976670595992
H           38.80497874860069        5.40645616471676        0.82111496868213
H           38.79637843788016        7.82959737838564        0.26021015637653
H           40.79474320586636        7.17217658467931       -3.27037231430491
H           40.88022267901293        4.71942477256658       -2.87020273622909
H           37.21028249701532        4.38959119663131       -1.05169420642243
H           35.36822316481323        2.46773547672115       -0.66556623766377

          :  Hamiltonian                  GFN1-xTB          :
         :: total energy            -302.756474168352 Eh    ::
         :: gradient norm              0.000541584245 Eh/a0 ::
         :: HOMO-LUMO gap              0.880896989907 eV    ::
         :: SCC energy              -307.866131968761 Eh    ::
         :: repulsion energy           5.259758667051 Eh    ::

    * Orbital Energies and Occupations

         #    Occupation            Energy/Eh            Energy/eV
      -------------------------------------------------------------
         1        2.0000           -0.8116234             -22.0854
       ...           ...                  ...                  ...
       265        2.0000           -0.4213304             -11.4650
       266        2.0000           -0.4213038             -11.4643
       267        2.0000           -0.4208874             -11.4529
       268        2.0000           -0.4207308             -11.4487
       269        2.0000           -0.4200538             -11.4302
       270        2.0000           -0.4191684             -11.4062
       271        2.0000           -0.4186817             -11.3929
       272        2.0000           -0.4060961             -11.0504
       273        2.0000           -0.4051044             -11.0235
       274        2.0000           -0.4050337             -11.0215
       275        2.0000           -0.3946591             -10.7392
       276        2.0000           -0.3895589             -10.6004
       277        2.0000           -0.3831264             -10.4254 (HOMO)
       278                         -0.3507541              -9.5445 (LUMO)
       279                         -0.3424465              -9.3184
       280                         -0.3389361              -9.2229
       281                         -0.3384186              -9.2088
       282                         -0.3380913              -9.1999
       283                         -0.3362203              -9.1490
       284                         -0.3134305              -8.5289
       285                         -0.3057094              -8.3188
       286                         -0.3035839              -8.2609
       287                         -0.2901571              -7.8956
       288                         -0.2891948              -7.8694
       ...                                ...                  ...
       592                          1.5740469              42.8320
      -------------------------------------------------------------
                  HL-Gap            0.0323724 Eh            0.8809 eV

Wiberg/Mayer (AO) data.
largest (>0.10) Wiberg bond orders for each atom

     #   Z sym  total        # sym  WBO       # sym  WBO       # sym  WBO
 ---------------------------------------------------------------------------
     1   6 C    3.926 --    35 C    1.366     2 C    1.347    37 H    0.971
     2   6 C    3.902 --     1 C    1.347     3 C    1.229     6 N    1.169
     3   6 C    3.954 --     4 C    1.596     2 C    1.229    38 H    0.976
     4   6 C    3.959 --     3 C    1.596     5 C    1.234    39 H    0.974
     5   6 C    3.897 --     7 C    1.302     4 C    1.234     6 N    1.178
     6   7 N    3.470 --     5 C    1.178     2 C    1.169    40 H    0.873
     7   6 C    3.939 --    14 C    1.335     5 C    1.302     8 C    1.030
     8   6 C    3.986 --    13 C    1.393     9 C    1.392     7 C    1.030
                            11 N    0.106
     9   6 C    3.987 --    10 C    1.443     8 C    1.392    41 H    0.973
                            12 C    0.108
    10   6 C    3.972 --     9 C    1.443    11 N    1.415    42 H    0.972
                            13 C    0.108
    11   7 N    3.029 --    12 C    1.416    10 C    1.415     8 C    0.106
    12   6 C    3.972 --    13 C    1.442    11 N    1.416    43 H    0.972
                             9 C    0.108
    13   6 C    3.986 --    12 C    1.442     8 C    1.393    44 H    0.973
                            10 C    0.108
    14   6 C    3.915 --     7 C    1.335    17 N    1.285    15 C    1.124
    15   6 C    3.966 --    16 C    1.711    14 C    1.124    45 H    0.973
    16   6 C    3.964 --    15 C    1.711    18 C    1.127    46 H    0.974
    17   7 N    3.022 --    18 C    1.345    14 C    1.285
    18   6 C    3.907 --    17 N    1.345    19 C    1.254    16 C    1.127
    19   6 C    3.937 --    18 C    1.254    20 C    1.252   114 C    1.191
    20   6 C    3.884 --    19 C    1.252    21 C    1.248    24 N    1.189
    21   6 C    3.959 --    22 C    1.584    20 C    1.248    47 H    0.975
    22   6 C    3.954 --    21 C    1.584    23 C    1.240    48 H    0.974
    23   6 C    3.899 --    25 C    1.309    22 C    1.240    24 N    1.166
    24   7 N    3.474 --    20 C    1.189    23 C    1.166    49 H    0.873
    25   6 C    3.925 --    32 C    1.320    23 C    1.309    26 C    1.031
    26   6 C    3.986 --    31 C    1.392    27 C    1.391    25 C    1.031
                            29 N    0.106
    27   6 C    3.986 --    28 C    1.442    26 C    1.391    50 H    0.973
                            30 C    0.108
    28   6 C    3.972 --    27 C    1.442    29 N    1.415    51 H    0.972
                            31 C    0.108
    29   7 N    3.029 --    30 C    1.415    28 C    1.415    26 C    0.106
    30   6 C    3.972 --    31 C    1.442    29 N    1.415    52 H    0.972
                            27 C    0.108
    31   6 C    3.986 --    30 C    1.442    26 C    1.392    53 H    0.973
                            28 C    0.108
    32   6 C    3.929 --    25 C    1.320    36 N    1.317    33 C    1.117
    33   6 C    3.967 --    34 C    1.724    32 C    1.117    54 H    0.973
    34   6 C    3.966 --    33 C    1.724    35 C    1.116    55 H    0.976
    35   6 C    3.928 --     1 C    1.366    36 N    1.300    34 C    1.116
    36   7 N    3.012 --    32 C    1.317    35 C    1.300
    37   1 H    1.002 --     1 C    0.971
    38   1 H    0.997 --     3 C    0.976
    39   1 H    1.004 --     4 C    0.974
    40   1 H    0.986 --     6 N    0.873
    41   1 H    1.004 --     9 C    0.973
    42   1 H    1.013 --    10 C    0.972
    43   1 H    1.013 --    12 C    0.972
    44   1 H    1.004 --    13 C    0.973
    45   1 H    1.004 --    15 C    0.973
    46   1 H    1.003 --    16 C    0.974
    47   1 H    1.002 --    21 C    0.975
    48   1 H    1.004 --    22 C    0.974
    49   1 H    0.987 --    24 N    0.873
    50   1 H    1.004 --    27 C    0.973
    51   1 H    1.013 --    28 C    0.972
    52   1 H    1.013 --    30 C    0.972
    53   1 H    1.004 --    31 C    0.973
    54   1 H    1.005 --    33 C    0.973
    55   1 H    0.998 --    34 C    0.976
    56   6 C    3.926 --    90 C    1.366    57 C    1.347    92 H    0.971
    57   6 C    3.902 --    56 C    1.347    58 C    1.229    61 N    1.169
    58   6 C    3.954 --    59 C    1.596    57 C    1.229    93 H    0.976
    59   6 C    3.959 --    58 C    1.596    60 C    1.234    94 H    0.974
    60   6 C    3.897 --    62 C    1.302    59 C    1.234    61 N    1.178
    61   7 N    3.470 --    60 C    1.178    57 C    1.169    95 H    0.873
    62   6 C    3.939 --    69 C    1.335    60 C    1.302    63 C    1.031
    63   6 C    3.986 --    68 C    1.393    64 C    1.391    62 C    1.031
                            66 N    0.106
    64   6 C    3.987 --    65 C    1.443    63 C    1.391    96 H    0.973
                            67 C    0.108
    65   6 C    3.972 --    64 C    1.443    66 N    1.415    97 H    0.972
                            68 C    0.108
    66   7 N    3.029 --    67 C    1.416    65 C    1.415    63 C    0.106
    67   6 C    3.972 --    68 C    1.442    66 N    1.416    98 H    0.972
                            64 C    0.108
    68   6 C    3.986 --    67 C    1.442    63 C    1.393    99 H    0.973
                            65 C    0.108
    69   6 C    3.915 --    62 C    1.335    72 N    1.285    70 C    1.124
    70   6 C    3.966 --    71 C    1.711    69 C    1.124   100 H    0.973
    71   6 C    3.964 --    70 C    1.711    73 C    1.127   101 H    0.974
    72   7 N    3.022 --    73 C    1.345    69 C    1.285
    73   6 C    3.907 --    72 N    1.345    74 C    1.253    71 C    1.127
    74   6 C    3.937 --    73 C    1.253    75 C    1.252   122 C    1.192
    75   6 C    3.884 --    74 C    1.252    76 C    1.248    79 N    1.189
    76   6 C    3.959 --    77 C    1.584    75 C    1.248   102 H    0.975
    77   6 C    3.954 --    76 C    1.584    78 C    1.240   103 H    0.974
    78   6 C    3.899 --    80 C    1.309    77 C    1.240    79 N    1.166
    79   7 N    3.474 --    75 C    1.189    78 C    1.166   104 H    0.873
    80   6 C    3.925 --    87 C    1.320    78 C    1.309    81 C    1.031
    81   6 C    3.986 --    86 C    1.392    82 C    1.391    80 C    1.031
                            84 N    0.106
    82   6 C    3.985 --    83 C    1.443    81 C    1.391   105 H    0.973
                            85 C    0.108
    83   6 C    3.972 --    82 C    1.443    84 N    1.415   106 H    0.972
                            86 C    0.108
    84   7 N    3.029 --    85 C    1.415    83 C    1.415    81 C    0.106
    85   6 C    3.972 --    86 C    1.442    84 N    1.415   107 H    0.972
                            82 C    0.108
    86   6 C    3.986 --    85 C    1.442    81 C    1.392   108 H    0.973
                            83 C    0.108
    87   6 C    3.929 --    80 C    1.320    91 N    1.317    88 C    1.117
    88   6 C    3.967 --    89 C    1.724    87 C    1.117   109 H    0.973
    89   6 C    3.966 --    88 C    1.724    90 C    1.116   110 H    0.976
    90   6 C    3.928 --    56 C    1.366    91 N    1.300    89 C    1.116
    91   7 N    3.012 --    87 C    1.317    90 C    1.300
    92   1 H    1.002 --    56 C    0.971
    93   1 H    0.997 --    58 C    0.976
    94   1 H    1.004 --    59 C    0.974
    95   1 H    0.986 --    61 N    0.873
    96   1 H    1.004 --    64 C    0.973
    97   1 H    1.013 --    65 C    0.972
    98   1 H    1.013 --    67 C    0.972
    99   1 H    1.004 --    68 C    0.973
   100   1 H    1.004 --    70 C    0.973
   101   1 H    1.003 --    71 C    0.974
   102   1 H    1.002 --    76 C    0.975
   103   1 H    1.004 --    77 C    0.974
   104   1 H    0.987 --    79 N    0.873
   105   1 H    1.004 --    82 C    0.973
   106   1 H    1.013 --    83 C    0.972
   107   1 H    1.013 --    85 C    0.972
   108   1 H    1.004 --    86 C    0.973
   109   1 H    1.005 --    88 C    0.973
   110   1 H    0.998 --    89 C    0.976
   111   6 C    3.924 --   112 C    2.365   115 C    1.337   114 C    0.190
   112   6 C    3.923 --   111 C    2.365   113 C    1.336   116 C    0.190
   113   6 C    3.932 --   114 C    2.447   112 C    1.336
   114   6 C    3.889 --   113 C    2.447    19 C    1.191   111 C    0.190
   115   6 C    3.929 --   116 C    2.445   111 C    1.337
   116   6 C    3.890 --   115 C    2.445   123 C    1.194   112 C    0.190
   117   6 C    3.923 --   118 C    2.365   121 C    1.337   120 C    0.190
   118   6 C    3.924 --   117 C    2.365   119 C    1.337   122 C    0.190
   119   6 C    3.929 --   120 C    2.444   118 C    1.337
   120   6 C    3.890 --   119 C    2.444   141 C    1.195   117 C    0.190
   121   6 C    3.932 --   122 C    2.447   117 C    1.337
   122   6 C    3.889 --   121 C    2.447    74 C    1.192   118 C    0.190
   123   6 C    3.925 --   157 C    1.253   124 C    1.247   116 C    1.194
   124   6 C    3.885 --   125 C    1.253   123 C    1.247   128 N    1.189
   125   6 C    3.955 --   126 C    1.578   124 C    1.253   159 H    0.975
   126   6 C    3.955 --   125 C    1.578   127 C    1.245   160 H    0.974
   127   6 C    3.894 --   129 C    1.299   126 C    1.245   128 N    1.167
   128   7 N    3.471 --   124 C    1.189   127 C    1.167   161 H    0.874
   129   6 C    3.928 --   136 C    1.338   127 C    1.299   130 C    1.028
   130   6 C    3.986 --   135 C    1.393   131 C    1.392   129 C    1.028
                           133 N    0.107
   131   6 C    3.987 --   132 C    1.442   130 C    1.392   162 H    0.973
                           134 C    0.109
   132   6 C    3.972 --   131 C    1.442   133 N    1.415   163 H    0.972
                           135 C    0.108
   133   7 N    3.030 --   134 C    1.416   132 C    1.415   130 C    0.107
   134   6 C    3.972 --   135 C    1.442   133 N    1.416   164 H    0.972
                           131 C    0.109
   135   6 C    3.986 --   134 C    1.442   130 C    1.393   165 H    0.973
                           132 C    0.108
   136   6 C    3.916 --   129 C    1.338   139 N    1.283   137 C    1.124
   137   6 C    3.966 --   138 C    1.711   136 C    1.124   166 H    0.973
   138   6 C    3.964 --   137 C    1.711   140 C    1.128   167 H    0.974
   139   7 N    3.009 --   140 C    1.345   136 C    1.283
   140   6 C    3.908 --   139 N    1.345   141 C    1.253   138 C    1.128
   141   6 C    3.925 --   140 C    1.253   142 C    1.247   120 C    1.195
   142   6 C    3.885 --   143 C    1.253   141 C    1.247   146 N    1.189
   143   6 C    3.955 --   144 C    1.578   142 C    1.253   168 H    0.975
   144   6 C    3.955 --   143 C    1.578   145 C    1.246   169 H    0.974
   145   6 C    3.894 --   147 C    1.299   144 C    1.246   146 N    1.167
   146   7 N    3.471 --   142 C    1.189   145 C    1.167   170 H    0.874
   147   6 C    3.928 --   154 C    1.339   145 C    1.299   148 C    1.028
   148   6 C    3.986 --   149 C    1.393   153 C    1.393   147 C    1.028
                           151 N    0.107
   149   6 C    3.987 --   150 C    1.442   148 C    1.393   171 H    0.973
                           152 C    0.109
   150   6 C    3.972 --   149 C    1.442   151 N    1.416   172 H    0.972
                           153 C    0.109
   151   7 N    3.030 --   152 C    1.416   150 C    1.416   148 C    0.107
   152   6 C    3.972 --   153 C    1.442   151 N    1.416   173 H    0.972
                           149 C    0.109
   153   6 C    3.986 --   152 C    1.442   148 C    1.393   174 H    0.973
                           150 C    0.109
   154   6 C    3.917 --   147 C    1.339   158 N    1.283   155 C    1.124
   155   6 C    3.966 --   156 C    1.711   154 C    1.124   175 H    0.973
   156   6 C    3.964 --   155 C    1.711   157 C    1.128   176 H    0.974
   157   6 C    3.908 --   158 N    1.345   123 C    1.253   156 C    1.128
   158   7 N    3.009 --   157 C    1.345   154 C    1.283
   159   1 H    1.002 --   125 C    0.975
   160   1 H    1.004 --   126 C    0.974
   161   1 H    0.987 --   128 N    0.874
   162   1 H    1.004 --   131 C    0.973
   163   1 H    1.013 --   132 C    0.972
   164   1 H    1.013 --   134 C    0.972
   165   1 H    1.004 --   135 C    0.973
   166   1 H    1.004 --   137 C    0.973
   167   1 H    1.002 --   138 C    0.974
   168   1 H    1.002 --   143 C    0.975
   169   1 H    1.004 --   144 C    0.974
   170   1 H    0.987 --   146 N    0.874
   171   1 H    1.004 --   149 C    0.973
   172   1 H    1.013 --   150 C    0.972
   173   1 H    1.013 --   152 C    0.972
   174   1 H    1.004 --   153 C    0.973
   175   1 H    1.004 --   155 C    0.973
   176   1 H    1.002 --   156 C    0.974
 ---------------------------------------------------------------------------

           -------------------------------------------------
          | TOTAL ENERGY             -302.756474168352 Eh   |
          | GRADIENT NORM               0.000541584245 Eh/α |
          | HOMO-LUMO GAP               0.880896989907 eV   |
           -------------------------------------------------

 * finished run on 2022/07/27 at 08:02:45.560
