   * xtb version 6.5.1 (b24c23e) compiled by 'conda@728c89f4b128' on 2022-07-12
          program call               : xtb Ni_m-CP_C4_2.xyz --gfn 1 --opt -T 48

   ID    Z sym.   atoms
    1   28 Ni     1, 63
    2    6 C      2-6, 8-12, 15-20, 22-27, 29-35, 38-42, 64-68, 70-74, 77-82,
                  84-89, 91-97, 100-104, 125-128
    3    7 N      7, 21, 28, 43, 69, 83, 90, 105
    4    8 O      13, 14, 36, 37, 75, 76, 98, 99
    5    1 H      44-62, 106-124
########################################################################
[WARNING] Please study the warnings concerning your input carefully
-1- prog_main_parseArguments: Unknown option '-T' provided
########################################################################

          :  Hamiltonian                  GFN1-xTB          :
 * total energy  :  -242.7004690 Eh     change       -0.1108475E-08 Eh
 * total energy  :  -243.8087320 Eh     change       -0.1108263E+01 Eh
 * total energy  :  -243.9409218 Eh     change       -0.1321898E+00 Eh
 * total energy  :  -244.0148829 Eh     change       -0.7396110E-01 Eh
 * total energy  :  -244.0429759 Eh     change       -0.2809302E-01 Eh
 * total energy  :  -244.0576197 Eh     change       -0.1464381E-01 Eh
 * total energy  :  -244.0659153 Eh     change       -0.8295550E-02 Eh
 * total energy  :  -244.0708711 Eh     change       -0.4955865E-02 Eh
 * total energy  :  -244.0745033 Eh     change       -0.3632130E-02 Eh
 * total energy  :  -244.0770075 Eh     change       -0.2504260E-02 Eh
 * total energy  :  -244.0838622 Eh     change       -0.6567534E-04 Eh
 * total energy  :  -244.0838967 Eh     change       -0.3447511E-04 Eh
 * total energy  :  -244.0839192 Eh     change       -0.2248837E-04 Eh
 * total energy  :  -244.0839354 Eh     change       -0.1617598E-04 Eh
 * total energy  :  -244.0839539 Eh     change       -0.1856211E-04 Eh
 * total energy  :  -244.0839623 Eh     change       -0.8378068E-05 Eh
 * total energy  :  -244.0839693 Eh     change       -0.6976457E-05 Eh
 * total energy  :  -244.0839744 Eh     change       -0.5075148E-05 Eh
 * total energy  :  -244.0839792 Eh     change       -0.4778249E-05 Eh
   *** GEOMETRY OPTIMIZATION CONVERGED AFTER 39 ITERATIONS ***

 final structure:
================
128
 xtb: 6.5.1 (b24c23e)
Ni          15.75425557804471        0.01810360192569        0.00988117150053
C           12.36347134249868        0.00657148810522        0.18315876641529
C           13.00889600462725        1.22485297427244        0.20941830892219
C           12.32396567947730        2.47986873509722        0.27759344521299
C           13.27630925544784        3.43763254828051        0.35757739914297
C           14.54283457736337        2.76494601022633        0.35045382081596
N           14.36885759375420        1.40920638172608        0.22704528942684
C           15.76314109407800        3.41236602263899        0.48751342055844
C           15.76861526985118        4.88083874934869        0.69868695332895
C           15.18651999967817        5.43108978777741        1.83673437801966
C           15.19713397467832        6.81058078577237        2.03931879014107
C           14.56708430148681        7.33562303180955        3.27699728215122
O           14.64114986837724        8.66948543301793        3.39220128534829
O           14.03385676365836        6.65009613577321        4.11122170087271
C           15.78800527290543        7.65105453447394        1.09603412964833
C           16.36485574645085        7.10515920375892       -0.03998529464029
C           16.35921911003788        5.73158378702439       -0.23826473656345
C           16.97898416099106        2.74381498355149        0.44636170758872
C           18.24399582218104        3.38353081379242        0.64601036952146
C           19.19378488254440        2.43273129333279        0.47733396720216
N           17.15204415941997        1.40267956560057        0.18949603929184
C           18.50712413355037        1.21562306031959        0.18190047318592
C           19.16719431224230        0.02381742506730       -0.12784905664968
C           18.48823029421802       -1.16763954902659       -0.39565236874358
C           19.15248533028831       -2.37895262387259       -0.75690910438296
C           18.19454416617458       -3.33112627788079       -0.86170373166687
C           16.94814151186797       -2.69890252141973       -0.55197445921354
N           17.13719961130387       -1.35916292495882       -0.29878269552858
C           15.73706846452491       -3.37447120232768       -0.48529958087877
C           15.72916365127438       -4.84296936394781       -0.69659148032741
C           16.41599862333230       -5.68672486557827        0.17886748118253
C           16.40480119825668       -7.06169489359095       -0.01038658832199
C           15.71169552088766       -7.61001450541560       -1.07648644014547
C           15.02330593897632       -6.77675011535273       -1.95950741954077
C           14.29362959829096       -7.40429878572166       -3.08999352312985
O           13.65142293779263       -6.52315193470944       -3.87036832800109
O           14.26560828527146       -8.58898773925220       -3.30549584442970
C           15.03163018360037       -5.39657043791924       -1.76778622813680
C           14.53237993118072       -2.73561659566362       -0.22346410343282
C           13.27626137078901       -3.41692610525276       -0.10356713077788
C           12.33124657077113       -2.46630237346681        0.08216833970715
C           13.01136896757699       -1.20707269840325        0.08606839388114
N           14.36301837414215       -1.38167248825006       -0.07497469993226
H           11.28127770806196        0.00254018227670        0.24050319869634
H           11.25152248894300        2.59149293911746        0.26342803393827
H           13.14717775518611        4.50618235149206        0.41454557337766
H           14.73234856371727        4.79168405014109        2.58578632779442
H           14.21010924637026        8.93156590770422        4.22194742616835
H           15.79341410698077        8.72272313322582        1.25393966305943
H           16.82282226382878        7.75299414783909       -0.77885491571493
H           16.80432537269040        5.31114740973073       -1.13315276366533
H           18.37722251626008        4.42454832894772        0.89091472246498
H           20.26533036954964        2.53046730167439        0.54332243651996
H           20.21559283040410       -2.47248897490946       -0.90927587518645
H           18.31087071374859       -4.36867561801083       -1.12888268122519
H           16.94918886556871       -5.25918862599623        1.02063141761722
H           16.93831488094342       -7.70494255526417        0.68002742514557
H           15.69211159740635       -8.68165272220425       -1.23937042177903
H           13.20343091688706       -7.00996856167604       -4.58117041281831
H           14.50606421500068       -4.75052146589944       -2.46095877110114
H           13.14847794949712       -4.48607555669076       -0.15226944069279
H           11.26693299650340       -2.58610462522523        0.20745953767001
Ni          29.18481110155550       -0.02009986037006        0.00440151944909
C           32.57586177031234       -0.06360126929765        0.16756580705936
C           31.93078058338334       -1.22443512242261       -0.20365486998748
C           32.61607330769083       -2.43294575160260       -0.54820535222587
C           31.66401676321116       -3.36520719379585       -0.78311137949999
C           30.39734487846639       -2.72749143689407       -0.56990169355364
N           30.57090331394818       -1.40533242437623       -0.24549397246708
C           29.17719769589096       -3.38470674802704       -0.65055026350378
C           29.17212287318667       -4.84184486487700       -0.92942080314675
C           29.75538822635527       -5.73289477147968       -0.03353316879081
C           29.74527311057626       -7.10303605618598       -0.29199700673130
C           30.37669719839280       -8.00287460855560        0.70604474355656
O           30.30311780136491       -9.30134953040170        0.37959927208036
O           30.91070253750686       -7.62689482623340        1.71781573114809
C           29.15366879093886       -7.59020458783350       -1.45731955346054
C           28.57558419521036       -6.70394609373069       -2.35267181836576
C           28.58081487074373       -5.34082205822758       -2.09212086921719
C           27.96124543613729       -2.73942702144126       -0.47179072484790
C           26.69631891505456       -3.40943549232708       -0.49166020697201
C           25.74638797128193       -2.45574033711528       -0.34139042717905
N           27.78793576180422       -1.38773543222654       -0.27751740073156
C           26.43284849662395       -1.20867014233101       -0.22375752839120
C           25.77196432015144        0.01852797643442       -0.12788902295446
C           26.45007536644719        1.23260009600112        0.00751119964272
C           25.78556757725962        2.49533332788908        0.06108795958768
C           26.74336290394507        3.42978280157779        0.27265201431699
C           27.98987588517374        2.73134801146718        0.35911548025281
N           27.80109502384465        1.38229686242392        0.16140609583263
C           29.20074710732283        3.34843041151671        0.64289350278719
C           29.20796837121942        4.80538576657708        0.92292335875913
C           28.52166716456011        5.31647676459756        2.02647823568409
C           28.53218757023640        6.67788492800119        2.29660957505036
C           29.22398082926575        7.54477857556542        1.46742734063202
C           29.91172123206156        7.04605064711331        0.36007951802523
C           30.63983272354124        8.00873190375875       -0.50439450038964
O           31.28118945277233        7.43090067999466       -1.53036953105944
O           30.66745184545636        9.19886763208643       -0.32138243186294
C           29.90415401474785        5.67892158769393        0.09063402778515
C           30.40574952489967        2.65965612999100        0.68113681245331
C           31.66182503043850        3.26517730827391        1.01581634200413
C           32.60732167575935        2.30670516469603        0.87947020039176
C           31.92750478891530        1.11486387283997        0.47252253547905
N           30.57558705743699        1.33156822949802        0.37897983552850
H           33.65813437661403       -0.07771410449912        0.22172881142423
H           33.68852272898106       -2.53330376747976       -0.59891948188111
H           31.79345947381112       -4.39410586982425       -1.07694013378171
H           30.21012369371384       -5.37262506629299        0.88277665034682
H           30.73512001267951       -9.81970092220381        1.07792661625697
H           29.14867747161273       -8.65476445249551       -1.65759865743367
H           28.11702238648470       -7.07558481944715       -3.26204259573179
H           28.13484826065067       -4.65174292422431       -2.80063222573131
H           26.56324137761404       -4.47342348590901       -0.59956199095360
H           24.67482105829424       -2.56954744228239       -0.31089549176083
H           24.72245163305292        2.63339720939163       -0.05232555470255
H           26.62687360984483        4.49773455197559        0.35846491259440
H           27.98938624042471        4.63714287617541        2.68285142511257
H           27.99911529549476        7.06001204314028        3.15968240498360
H           29.24294414177702        8.61087082013719        1.66343121431831
H           31.72827654531780        8.12319860094539       -2.04391337432876
H           30.42920966606678        5.29493904552239       -0.77593732351728
H           31.78917832324650        4.29162068131488        1.31908641815965
H           33.67176992122037        2.37967205134387        1.03579252650878
C           21.79410505057745        0.03318762572325       -0.17892455651588
C           20.57288889517265        0.02299526342481       -0.16381783346015
C           23.14490267473940        0.03229573127011       -0.17778383701919
C           24.36611730610379        0.02947090885204       -0.16142908391848

          :  Hamiltonian                  GFN1-xTB          :
         :: total energy            -244.083979154184 Eh    ::
         :: gradient norm              0.000895223784 Eh/a0 ::
         :: HOMO-LUMO gap              1.222771548111 eV    ::
         :: SCC energy              -247.573204403904 Eh    ::
         :: repulsion energy           3.603745166828 Eh    ::

    * Orbital Energies and Occupations

         #    Occupation            Energy/Eh            Energy/eV
      -------------------------------------------------------------
         1        2.0000           -0.8345735             -22.7099
       ...           ...                  ...                  ...
       205        2.0000           -0.4313582             -11.7379
       206        2.0000           -0.4052621             -11.0277
       207        2.0000           -0.4052504             -11.0274
       208        2.0000           -0.4049541             -11.0194
       209        2.0000           -0.4049530             -11.0193
       210        2.0000           -0.4040497             -10.9948
       211        2.0000           -0.4040490             -10.9947
       212        2.0000           -0.4036329             -10.9834
       213        2.0000           -0.4030093             -10.9664
       214        2.0000           -0.4030039             -10.9663
       215        2.0000           -0.4029299             -10.9643
       216        2.0000           -0.4029298             -10.9643
       217        2.0000           -0.3914919             -10.6530 (HOMO)
       218                         -0.3465559              -9.4303 (LUMO)
       219                         -0.3370175              -9.1707
       220                         -0.3370160              -9.1707
       221                         -0.3356203              -9.1327
       222                         -0.3356088              -9.1324
       223                         -0.3327891              -9.0557
       224                         -0.3134848              -8.5304
       225                         -0.3130727              -8.5191
       226                         -0.3123830              -8.5004
       227                         -0.3123431              -8.4993
       228                         -0.3048310              -8.2949
       ...                                ...                  ...
       446                          1.5115216              41.1306
      -------------------------------------------------------------
                  HL-Gap            0.0449360 Eh            1.2228 eV

Wiberg/Mayer (AO) data.
largest (>0.10) Wiberg bond orders for each atom

     #   Z sym  total        # sym  WBO       # sym  WBO       # sym  WBO
 ---------------------------------------------------------------------------
     1  28 Ni   3.009 --     7 N    0.664    43 N    0.664    21 N    0.660
                            28 N    0.660
     2   6 C    3.935 --     3 C    1.365    42 C    1.364    44 H    0.970
     3   6 C    3.922 --     2 C    1.365     7 N    1.213     4 C    1.173
     4   6 C    3.960 --     5 C    1.651     3 C    1.173    45 H    0.975
     5   6 C    3.963 --     4 C    1.651     6 C    1.175    46 H    0.973
     6   6 C    3.920 --     8 C    1.325     7 N    1.221     5 C    1.175
     7   7 N    3.403 --     6 C    1.221     3 C    1.213     1 Ni   0.664
     8   6 C    3.938 --    18 C    1.328     6 C    1.325     9 C    1.023
     9   6 C    3.988 --    10 C    1.409    17 C    1.389     8 C    1.023
                            15 C    0.103
    10   6 C    3.985 --     9 C    1.409    11 C    1.396    47 H    0.968
                            16 C    0.104
    11   6 C    3.988 --    10 C    1.396    15 C    1.392    12 C    1.004
                            17 C    0.100
    12   6 C    3.836 --    14 O    1.693    13 O    1.090    11 C    1.004
    13   8 O    2.099 --    12 C    1.090    48 H    0.838    14 O    0.129
    14   8 O    1.962 --    12 C    1.693    13 O    0.129
    15   6 C    3.988 --    16 C    1.448    11 C    1.392    49 H    0.970
                             9 C    0.103
    16   6 C    3.994 --    15 C    1.448    17 C    1.441    50 H    0.972
                            10 C    0.104
    17   6 C    3.988 --    16 C    1.441     9 C    1.389    51 H    0.973
                            11 C    0.100
    18   6 C    3.916 --     8 C    1.328    21 N    1.207    19 C    1.183
    19   6 C    3.959 --    20 C    1.636    18 C    1.183    52 H    0.973
    20   6 C    3.961 --    19 C    1.636    22 C    1.191    53 H    0.973
    21   7 N    3.406 --    22 C    1.238    18 C    1.207     1 Ni   0.660
    22   6 C    3.904 --    23 C    1.265    21 N    1.238    20 C    1.191
    23   6 C    3.944 --    22 C    1.265    24 C    1.264   126 C    1.180
    24   6 C    3.905 --    23 C    1.264    28 N    1.238    25 C    1.192
    25   6 C    3.961 --    26 C    1.635    24 C    1.192    54 H    0.973
    26   6 C    3.959 --    25 C    1.635    27 C    1.184    55 H    0.973
    27   6 C    3.916 --    29 C    1.328    28 N    1.207    26 C    1.184
    28   7 N    3.406 --    24 C    1.238    27 C    1.207     1 Ni   0.660
    29   6 C    3.938 --    27 C    1.328    39 C    1.324    30 C    1.024
    30   6 C    3.988 --    38 C    1.407    31 C    1.390    29 C    1.024
                            33 C    0.103
    31   6 C    3.988 --    32 C    1.439    30 C    1.390    56 H    0.973
                            34 C    0.100
    32   6 C    3.994 --    33 C    1.451    31 C    1.439    57 H    0.972
                            38 C    0.104
    33   6 C    3.986 --    32 C    1.451    34 C    1.388    58 H    0.969
                            30 C    0.103
    34   6 C    3.988 --    38 C    1.399    33 C    1.388    35 C    1.005
                            31 C    0.100
    35   6 C    3.836 --    37 O    1.692    36 O    1.090    34 C    1.005
    36   8 O    2.099 --    35 C    1.090    59 H    0.838    37 O    0.129
    37   8 O    1.961 --    35 C    1.692    36 O    0.129
    38   6 C    3.986 --    30 C    1.407    34 C    1.399    60 H    0.969
                            32 C    0.104
    39   6 C    3.920 --    29 C    1.324    43 N    1.221    40 C    1.176
    40   6 C    3.963 --    41 C    1.650    39 C    1.176    61 H    0.973
    41   6 C    3.960 --    40 C    1.650    42 C    1.174    62 H    0.975
    42   6 C    3.922 --     2 C    1.364    43 N    1.214    41 C    1.174
    43   7 N    3.402 --    39 C    1.221    42 C    1.214     1 Ni   0.664
    44   1 H    1.000 --     2 C    0.970
    45   1 H    0.997 --     4 C    0.975
    46   1 H    1.003 --     5 C    0.973
    47   1 H    1.007 --    10 C    0.968
    48   1 H    0.873 --    13 O    0.838
    49   1 H    1.005 --    15 C    0.970
    50   1 H    1.002 --    16 C    0.972
    51   1 H    1.004 --    17 C    0.973
    52   1 H    1.004 --    19 C    0.973
    53   1 H    1.002 --    20 C    0.973
    54   1 H    1.002 --    25 C    0.973
    55   1 H    1.004 --    26 C    0.973
    56   1 H    1.004 --    31 C    0.973
    57   1 H    1.001 --    32 C    0.972
    58   1 H    1.005 --    33 C    0.969
    59   1 H    0.873 --    36 O    0.838
    60   1 H    1.007 --    38 C    0.969
    61   1 H    1.004 --    40 C    0.973
    62   1 H    0.997 --    41 C    0.975
    63  28 Ni   3.009 --    69 N    0.664   105 N    0.664    83 N    0.660
                            90 N    0.660
    64   6 C    3.935 --    65 C    1.365   104 C    1.364   106 H    0.970
    65   6 C    3.922 --    64 C    1.365    69 N    1.213    66 C    1.173
    66   6 C    3.960 --    67 C    1.651    65 C    1.173   107 H    0.975
    67   6 C    3.963 --    66 C    1.651    68 C    1.175   108 H    0.973
    68   6 C    3.920 --    70 C    1.325    69 N    1.221    67 C    1.175
    69   7 N    3.403 --    68 C    1.221    65 C    1.213    63 Ni   0.664
    70   6 C    3.938 --    80 C    1.328    68 C    1.325    71 C    1.023
    71   6 C    3.988 --    72 C    1.409    79 C    1.389    70 C    1.023
                            77 C    0.103
    72   6 C    3.985 --    71 C    1.409    73 C    1.396   109 H    0.968
                            78 C    0.104
    73   6 C    3.988 --    72 C    1.396    77 C    1.392    74 C    1.004
                            79 C    0.100
    74   6 C    3.836 --    76 O    1.693    75 O    1.090    73 C    1.004
    75   8 O    2.099 --    74 C    1.090   110 H    0.838    76 O    0.129
    76   8 O    1.962 --    74 C    1.693    75 O    0.129
    77   6 C    3.988 --    78 C    1.448    73 C    1.392   111 H    0.970
                            71 C    0.103
    78   6 C    3.994 --    77 C    1.448    79 C    1.441   112 H    0.972
                            72 C    0.104
    79   6 C    3.988 --    78 C    1.441    71 C    1.389   113 H    0.973
                            73 C    0.100
    80   6 C    3.916 --    70 C    1.328    83 N    1.207    81 C    1.183
    81   6 C    3.959 --    82 C    1.636    80 C    1.183   114 H    0.973
    82   6 C    3.961 --    81 C    1.636    84 C    1.191   115 H    0.973
    83   7 N    3.406 --    84 C    1.238    80 C    1.207    63 Ni   0.660
    84   6 C    3.904 --    85 C    1.265    83 N    1.238    82 C    1.191
    85   6 C    3.944 --    84 C    1.265    86 C    1.264   128 C    1.180
    86   6 C    3.905 --    85 C    1.264    90 N    1.238    87 C    1.192
    87   6 C    3.961 --    88 C    1.635    86 C    1.192   116 H    0.973
    88   6 C    3.959 --    87 C    1.635    89 C    1.184   117 H    0.973
    89   6 C    3.916 --    91 C    1.328    90 N    1.207    88 C    1.184
    90   7 N    3.406 --    86 C    1.238    89 C    1.207    63 Ni   0.660
    91   6 C    3.938 --    89 C    1.328   101 C    1.324    92 C    1.024
    92   6 C    3.988 --   100 C    1.407    93 C    1.390    91 C    1.024
                            95 C    0.103
    93   6 C    3.988 --    94 C    1.439    92 C    1.390   118 H    0.973
                            96 C    0.100
    94   6 C    3.994 --    95 C    1.451    93 C    1.439   119 H    0.972
                           100 C    0.104
    95   6 C    3.986 --    94 C    1.451    96 C    1.388   120 H    0.969
                            92 C    0.103
    96   6 C    3.988 --   100 C    1.399    95 C    1.388    97 C    1.005
                            93 C    0.100
    97   6 C    3.836 --    99 O    1.692    98 O    1.090    96 C    1.005
    98   8 O    2.099 --    97 C    1.090   121 H    0.838    99 O    0.129
    99   8 O    1.961 --    97 C    1.692    98 O    0.129
   100   6 C    3.986 --    92 C    1.407    96 C    1.399   122 H    0.969
                            94 C    0.104
   101   6 C    3.920 --    91 C    1.324   105 N    1.221   102 C    1.176
   102   6 C    3.963 --   103 C    1.650   101 C    1.176   123 H    0.973
   103   6 C    3.960 --   102 C    1.650   104 C    1.174   124 H    0.975
   104   6 C    3.922 --    64 C    1.364   105 N    1.214   103 C    1.174
   105   7 N    3.402 --   101 C    1.221   104 C    1.214    63 Ni   0.664
   106   1 H    1.000 --    64 C    0.970
   107   1 H    0.997 --    66 C    0.975
   108   1 H    1.003 --    67 C    0.973
   109   1 H    1.007 --    72 C    0.968
   110   1 H    0.873 --    75 O    0.838
   111   1 H    1.005 --    77 C    0.970
   112   1 H    1.002 --    78 C    0.972
   113   1 H    1.004 --    79 C    0.973
   114   1 H    1.004 --    81 C    0.973
   115   1 H    1.002 --    82 C    0.973
   116   1 H    1.002 --    87 C    0.973
   117   1 H    1.004 --    88 C    0.973
   118   1 H    1.004 --    93 C    0.973
   119   1 H    1.001 --    94 C    0.972
   120   1 H    1.005 --    95 C    0.969
   121   1 H    0.873 --    98 O    0.838
   122   1 H    1.007 --   100 C    0.969
   123   1 H    1.004 --   102 C    0.973
   124   1 H    0.997 --   103 C    0.975
   125   6 C    3.938 --   126 C    2.486   127 C    1.302
   126   6 C    3.928 --   125 C    2.486    23 C    1.180   128 C    0.200
   127   6 C    3.938 --   128 C    2.486   125 C    1.302
   128   6 C    3.928 --   127 C    2.486    85 C    1.180   126 C    0.200
 ---------------------------------------------------------------------------

           -------------------------------------------------
          | TOTAL ENERGY             -244.083979154184 Eh   |
          | GRADIENT NORM               0.000895223784 Eh/α |
          | HOMO-LUMO GAP               1.222771548111 eV   |
           -------------------------------------------------

 * finished run on 2022/07/30 at 04:55:10.520
