   * xtb version 6.5.1 (b24c23e) compiled by 'conda@728c89f4b128' on 2022-07-12
          program call               : xtb Ni_H_C4_3.xyz --gfn 1 --opt -T 48

   ID    Z sym.   atoms
    1   28 Ni     1, 37, 81
    2    6 C      2-6, 8-11, 13-18, 20-24, 38-42, 44-47, 49-54, 56-60, 73-80,
                  82-86, 88-91, 93-98, 100-104
    3    7 N      7, 12, 19, 25, 43, 48, 55, 61, 87, 92, 99, 105
    4    1 H      26-36, 62-72, 106-115

          :  Hamiltonian                  GFN1-xTB          :
 * total energy  :  -209.2833633 Eh     change        0.4353353E-09 Eh
 * total energy  :  -210.8412146 Eh     change       -0.1557851E+01 Eh
 * total energy  :  -211.0754934 Eh     change       -0.2342788E+00 Eh
 * total energy  :  -211.1987942 Eh     change       -0.1233009E+00 Eh
 * total energy  :  -211.2939320 Eh     change       -0.9513772E-01 Eh
 * total energy  :  -211.3750379 Eh     change       -0.8110592E-01 Eh
 * total energy  :  -211.4327290 Eh     change       -0.5769112E-01 Eh
 * total energy  :  -211.4607111 Eh     change       -0.2798208E-01 Eh
 * total energy  :  -211.4774907 Eh     change       -0.1677963E-01 Eh
 * total energy  :  -211.4839884 Eh     change       -0.6497653E-02 Eh
 * total energy  :  -211.5420685 Eh     change       -0.1519241E-03 Eh
 * total energy  :  -211.5422302 Eh     change       -0.1616788E-03 Eh
 * total energy  :  -211.5423354 Eh     change       -0.1051700E-03 Eh
 * total energy  :  -211.5423941 Eh     change       -0.5870766E-04 Eh
 * total energy  :  -211.5424284 Eh     change       -0.3428862E-04 Eh
 * total energy  :  -211.5424496 Eh     change       -0.2123233E-04 Eh
 * total energy  :  -211.5424664 Eh     change       -0.1682403E-04 Eh
 * total energy  :  -211.5424748 Eh     change       -0.8334910E-05 Eh
 * total energy  :  -211.5424769 Eh     change       -0.2120361E-05 Eh
   *** GEOMETRY OPTIMIZATION CONVERGED AFTER 41 ITERATIONS ***

 final structure:
================
115
 xtb: 6.5.1 (b24c23e)
Ni          16.16387225198266       -0.01529962163628       -0.02275576675601
C           12.75507034350982       -0.10581554716578        0.01696037699867
C           13.41733291418869       -0.93728282875291       -0.86261921700329
C           12.75145903974499       -1.82959675359305       -1.76517504514276
C           13.71780463042274       -2.45822729844035       -2.47414767873321
C           14.97162414293907       -1.95399731157583       -1.99764561422380
N           14.77831600605472       -1.02079740430613       -1.01128190899362
C           16.19578623996787       -2.37837601933538       -2.47139213560835
C           17.40746659487866       -1.92308486292845       -1.99604152505881
C           18.67121953543941       -2.39640301483714       -2.47178337315702
C           19.62201002354982       -1.73999829340892       -1.76493576025631
N           17.58082318035630       -0.98052620991716       -1.00907142467485
C           18.93500193023443       -0.86433890460318       -0.86613352488186
C           19.59324049456006       -0.00293426486119        0.01596502809364
C           18.90911957385662        0.87152362206596        0.86464676015967
C           19.56952964691081        1.78240844220834        1.74820950236785
C           18.59854272126690        2.47312097320202        2.39210774699349
C           17.34914951844061        1.97554795477743        1.90319992269029
N           17.55124622950744        0.99193514590867        0.96283998580386
C           16.12399562900064        2.42849090932824        2.34513690463437
C           14.91336715668993        1.93456147016904        1.90517203593345
C           13.64534063464557        2.38803226391896        2.39496290554342
C           12.69913133242931        1.66621834789215        1.75049451717200
C           13.39143960829399        0.77885040126734        0.86308455912945
N           14.74858394862794        0.94888706270761        0.96588817080211
H           11.67198873825277       -0.13995445232300        0.03452525649501
H           11.68081635950286       -1.94106814127173       -1.83256393565065
H           13.61477156599517       -3.20055992609774       -3.24977486638388
H           16.20668158087097       -3.12544345362408       -3.25662666541826
H           18.79407429265127       -3.13793605779963       -3.24506627108286
H           20.69461692374628       -1.82514463006083       -1.83414229530880
H           20.63968747232896        1.86948511616107        1.84683500821238
H           18.69856197097863        3.24847356226341        3.13491064011124
H           16.11237758028028        3.21217707425485        3.09382202122512
H           13.51973408602050        3.15857445409522        3.13911705570433
H           11.62614377869902        1.71569143274784        1.84797539519481
Ni          43.10106830804475        0.00651571730850       -0.00923973545703
C           46.51135783113687        0.04630904095989       -0.01354337574307
C           45.84695046164730        1.25364356236697       -0.07963389415998
C           46.51095257148815        2.52188224346640       -0.15038705653927
C           45.54245481256942        3.46654650452388       -0.18411235832897
C           44.28937999355678        2.77310765599795       -0.13407496116566
N           44.48508722143986        1.41686157200609       -0.07477992123322
C           43.06437359455239        3.40731512563425       -0.13422537948694
C           41.85389942877102        2.74845924117927       -0.08634818792758
C           40.58937037690485        3.41838462039999       -0.08491644305509
C           39.63961579709974        2.45357266095444       -0.04813080821338
N           41.68233702855450        1.38432502929050       -0.04619662998934
C           40.32796758139214        1.19946520881216       -0.02781562467486
C           39.67191024096007       -0.03377887101460       -0.01333800307606
C           40.35724426087782       -1.25084062099379        0.00474300129363
C           39.69845077756101       -2.52066650828146        0.02708603563773
C           40.67044912394154       -3.46273844765002        0.07054309169516
C           41.91890957232863       -2.76330663315792        0.07294729846469
N           41.71557486607231       -1.40364188383623        0.02771501759603
C           43.14425589026432       -3.39374340670163        0.12447611337040
C           44.35425954726147       -2.73133699281740        0.12072837878276
C           45.62326330903136       -3.39525241307785        0.16971614719768
C           46.56941809176885       -2.42847181581853        0.12890292528712
C           45.87587652097205       -1.17626310581422        0.05624946925212
N           44.51816929745340       -1.37118513410735        0.05631933296194
H           47.59504166396959        0.05919246036637       -0.01545370039180
H           47.58185567644913        2.64865882015496       -0.16908653531395
H           45.64364749266301        4.53905358468286       -0.23670936599097
H           43.05169090444004        4.49040211730259       -0.17407314261189
H           40.46550346344205        4.48933296208824       -0.11089427655727
H           38.56687994452512        2.56152535940259       -0.03760827859316
H           38.62853779426551       -2.65342529474746        0.01363912231378
H           40.57180204314053       -4.53621198647268        0.09997422849201
H           43.15661377348282       -4.47666528037465        0.16849707046134
H           45.74949996847550       -4.46491592007137        0.22595000623932
H           47.64303186929779       -2.53028302192848        0.14450619961236
C           22.21996611606680       -0.00310157669884        0.04428008851072
C           20.99872688411188       -0.00384518290394        0.03543651516342
C           23.57026685174320       -0.00462192390435        0.04639616200554
C           24.79157313870476       -0.00606546375023        0.03828144838791
C           35.69272644487151       -0.07044093671500       -0.01515363679515
C           34.47186962299238       -0.07079204897979       -0.01327871562441
C           37.04413956553185       -0.06310554211208       -0.01748100695197
C           38.26491254536520       -0.05006727375563       -0.01467669110655
Ni          29.63127868741307       -0.02600499197354       -0.00232505746499
C           26.19669152786897       -0.00993876771041        0.02574450152813
C           26.88001975752655        0.89699607888901        0.84057098696506
C           26.21817342679531        1.83893008785161        1.68937189839096
C           27.18813896470042        2.55963797382923        2.30158812575822
C           28.43735992849420        2.05188294715364        1.82451063452072
N           28.23750602073742        1.02661316180131        0.92945832026302
C           29.66162059322600        2.54807101815609        2.21932460743366
C           30.87445479318109        2.06516957609996        1.77555527005974
C           32.13610032324586        2.58909240895979        2.19966106068823
C           33.08909049047348        1.85786429656991        1.57364096386772
N           31.04980241253201        1.02454929149966        0.89347303118012
C           32.40463036021475        0.89176325514087        0.77092893627737
C           33.06531190707916       -0.06081880193871       -0.00904400730045
C           32.38247450023044       -0.99735174847484       -0.78906255409599
C           33.04411047189351       -1.97194684260156       -1.60051458322219
C           32.07421096984910       -2.67450392655384       -2.23343366005161
C           30.82510937048091       -2.12604984856392       -1.80314217721622
N           31.02476004292885       -1.09878083035588       -0.91062971229564
C           29.60116916599451       -2.57872452499909       -2.24840254536878
C           28.38831152330097       -2.06979373657840       -1.83510026370414
C           27.12680642217712       -2.55869640606455       -2.29933413530477
C           26.17367965489580       -1.84136483498118       -1.65742047956524
C           26.85802109683750       -0.91695680853516       -0.80717462652635
N           28.21254863494348       -1.05608453929437       -0.92198091179600
H           25.14799448789688        1.92466230354009        1.78857042262647
H           27.08717004117421        3.36440056745120        3.01225627242488
H           29.67136181188140        3.36947209219220        2.92656062808642
H           32.25630904225731        3.40901289469308        2.88970795900562
H           34.16149268216677        1.94799321546940        1.63889234748598
H           34.11417580176693       -2.08621482010549       -1.66667585054423
H           32.17498568997765       -3.49071412709285       -2.93096682723140
H           29.59186062047313       -3.39037862861413       -2.96682349687290
H           27.00661424254357       -3.35072426992552       -3.02122829005768
H           25.10128058683215       -1.91723915256375       -1.73910249659167

          :  Hamiltonian                  GFN1-xTB          :
         :: total energy            -211.542476892834 Eh    ::
         :: gradient norm              0.000349901825 Eh/a0 ::
         :: HOMO-LUMO gap              1.117451660000 eV    ::
         :: SCC energy              -214.910351347410 Eh    ::
         :: repulsion energy           3.468412267503 Eh    ::

    * Orbital Energies and Occupations

         #    Occupation            Energy/Eh            Energy/eV
      -------------------------------------------------------------
         1        2.0000           -0.7827593             -21.3000
       ...           ...                  ...                  ...
       185        2.0000           -0.3991457             -10.8613
       186        2.0000           -0.3990171             -10.8578
       187        2.0000           -0.3989407             -10.8557
       188        2.0000           -0.3985550             -10.8452
       189        2.0000           -0.3982571             -10.8371
       190        2.0000           -0.3980690             -10.8320
       191        2.0000           -0.3979947             -10.8300
       192        2.0000           -0.3971498             -10.8070
       193        2.0000           -0.3970744             -10.8049
       194        2.0000           -0.3970284             -10.8037
       195        2.0000           -0.3969566             -10.8017
       196        2.0000           -0.3931799             -10.6990
       197        2.0000           -0.3850749             -10.4784 (HOMO)
       198                         -0.3440093              -9.3610 (LUMO)
       199                         -0.3345361              -9.1032
       200                         -0.3318082              -9.0290
       201                         -0.3311430              -9.0109
       202                         -0.3302951              -8.9878
       203                         -0.3302214              -8.9858
       204                         -0.3298952              -8.9769
       205                         -0.3298461              -8.9756
       206                         -0.3273197              -8.9068
       207                         -0.3029147              -8.2427
       208                         -0.2945737              -8.0158
       ...                                ...                  ...
       411                          1.5180011              41.3069
      -------------------------------------------------------------
                  HL-Gap            0.0410656 Eh            1.1175 eV

Wiberg/Mayer (AO) data.
largest (>0.10) Wiberg bond orders for each atom

     #   Z sym  total        # sym  WBO       # sym  WBO       # sym  WBO
 ---------------------------------------------------------------------------
     1  28 Ni   3.011 --     7 N    0.665    25 N    0.665    19 N    0.661
                            12 N    0.661
     2   6 C    3.939 --    24 C    1.365     3 C    1.365    26 H    0.970
     3   6 C    3.923 --     2 C    1.365     7 N    1.218     4 C    1.171
     4   6 C    3.960 --     5 C    1.655     3 C    1.171    27 H    0.975
     5   6 C    3.962 --     4 C    1.655     6 C    1.171    28 H    0.975
     6   6 C    3.921 --     8 C    1.363     7 N    1.217     5 C    1.171
     7   7 N    3.406 --     3 C    1.218     6 C    1.217     1 Ni   0.665
     8   6 C    3.944 --     9 C    1.369     6 C    1.363    29 H    0.970
     9   6 C    3.916 --     8 C    1.369    12 N    1.202    10 C    1.178
    10   6 C    3.958 --    11 C    1.643     9 C    1.178    30 H    0.975
    11   6 C    3.961 --    10 C    1.643    13 C    1.186    31 H    0.973
    12   7 N    3.410 --    13 C    1.244     9 C    1.202     1 Ni   0.661
    13   6 C    3.905 --    14 C    1.265    12 N    1.244    11 C    1.186
    14   6 C    3.948 --    15 C    1.265    13 C    1.265    74 C    1.181
    15   6 C    3.905 --    14 C    1.265    19 N    1.244    16 C    1.186
    16   6 C    3.961 --    17 C    1.643    15 C    1.186    32 H    0.973
    17   6 C    3.958 --    16 C    1.643    18 C    1.178    33 H    0.975
    18   6 C    3.916 --    20 C    1.369    19 N    1.202    17 C    1.178
    19   7 N    3.410 --    15 C    1.244    18 C    1.202     1 Ni   0.661
    20   6 C    3.944 --    18 C    1.369    21 C    1.363    34 H    0.970
    21   6 C    3.921 --    20 C    1.363    25 N    1.217    22 C    1.171
    22   6 C    3.962 --    23 C    1.655    21 C    1.171    35 H    0.975
    23   6 C    3.960 --    22 C    1.655    24 C    1.170    36 H    0.975
    24   6 C    3.923 --     2 C    1.365    25 N    1.218    23 C    1.170
    25   7 N    3.406 --    24 C    1.218    21 C    1.217     1 Ni   0.665
    26   1 H    1.000 --     2 C    0.970
    27   1 H    0.998 --     4 C    0.975
    28   1 H    0.998 --     5 C    0.975
    29   1 H    1.000 --     8 C    0.970
    30   1 H    0.997 --    10 C    0.975
    31   1 H    1.002 --    11 C    0.973
    32   1 H    1.002 --    16 C    0.973
    33   1 H    0.997 --    17 C    0.975
    34   1 H    1.000 --    20 C    0.970
    35   1 H    0.998 --    22 C    0.975
    36   1 H    0.998 --    23 C    0.975
    37  28 Ni   3.013 --    43 N    0.665    61 N    0.665    55 N    0.662
                            48 N    0.661
    38   6 C    3.940 --    60 C    1.365    39 C    1.365    62 H    0.970
    39   6 C    3.923 --    38 C    1.365    43 N    1.218    40 C    1.170
    40   6 C    3.960 --    41 C    1.655    39 C    1.170    63 H    0.975
    41   6 C    3.962 --    40 C    1.655    42 C    1.171    64 H    0.975
    42   6 C    3.921 --    44 C    1.363    43 N    1.217    41 C    1.171
    43   7 N    3.406 --    39 C    1.218    42 C    1.217    37 Ni   0.665
    44   6 C    3.945 --    45 C    1.369    42 C    1.363    65 H    0.970
    45   6 C    3.916 --    44 C    1.369    48 N    1.203    46 C    1.177
    46   6 C    3.959 --    47 C    1.643    45 C    1.177    66 H    0.975
    47   6 C    3.961 --    46 C    1.643    49 C    1.185    67 H    0.973
    48   7 N    3.410 --    49 C    1.242    45 C    1.203    37 Ni   0.661
    49   6 C    3.906 --    50 C    1.268    48 N    1.242    47 C    1.185
    50   6 C    3.949 --    51 C    1.268    49 C    1.268    80 C    1.175
    51   6 C    3.906 --    50 C    1.268    55 N    1.242    52 C    1.185
    52   6 C    3.961 --    53 C    1.643    51 C    1.185    68 H    0.973
    53   6 C    3.959 --    52 C    1.643    54 C    1.177    69 H    0.975
    54   6 C    3.916 --    56 C    1.369    55 N    1.203    53 C    1.177
    55   7 N    3.410 --    51 C    1.242    54 C    1.203    37 Ni   0.662
    56   6 C    3.945 --    54 C    1.369    57 C    1.363    70 H    0.970
    57   6 C    3.921 --    56 C    1.363    61 N    1.217    58 C    1.171
    58   6 C    3.962 --    59 C    1.655    57 C    1.171    71 H    0.975
    59   6 C    3.960 --    58 C    1.655    60 C    1.170    72 H    0.975
    60   6 C    3.923 --    38 C    1.365    61 N    1.218    59 C    1.170
    61   7 N    3.406 --    60 C    1.218    57 C    1.217    37 Ni   0.665
    62   1 H    1.000 --    38 C    0.970
    63   1 H    0.998 --    40 C    0.975
    64   1 H    0.998 --    41 C    0.975
    65   1 H    1.000 --    44 C    0.970
    66   1 H    0.997 --    46 C    0.975
    67   1 H    1.002 --    47 C    0.973
    68   1 H    1.002 --    52 C    0.973
    69   1 H    0.997 --    53 C    0.975
    70   1 H    1.000 --    56 C    0.970
    71   1 H    0.998 --    58 C    0.975
    72   1 H    0.998 --    59 C    0.975
    73   6 C    3.939 --    74 C    2.485    75 C    1.303
    74   6 C    3.927 --    73 C    2.485    14 C    1.181    76 C    0.200
    75   6 C    3.937 --    76 C    2.484    73 C    1.303
    76   6 C    3.928 --    75 C    2.484    82 C    1.183    74 C    0.200
    77   6 C    3.936 --    78 C    2.489    79 C    1.297
    78   6 C    3.925 --    77 C    2.489    94 C    1.177    80 C    0.199
    79   6 C    3.939 --    80 C    2.491    77 C    1.297
    80   6 C    3.924 --    79 C    2.491    50 C    1.175    78 C    0.199
    81  28 Ni   2.998 --    99 N    0.661    92 N    0.661    87 N    0.661
                           105 N    0.660
    82   6 C    3.939 --    83 C    1.264   104 C    1.263    76 C    1.183
    83   6 C    3.905 --    82 C    1.264    87 N    1.245    84 C    1.187
    84   6 C    3.960 --    85 C    1.641    83 C    1.187   106 H    0.973
    85   6 C    3.959 --    84 C    1.641    86 C    1.179   107 H    0.975
    86   6 C    3.914 --    88 C    1.367    87 N    1.201    85 C    1.179
    87   7 N    3.404 --    83 C    1.245    86 C    1.201    81 Ni   0.661
    88   6 C    3.940 --    86 C    1.367    89 C    1.366   108 H    0.970
    89   6 C    3.914 --    88 C    1.366    92 N    1.202    90 C    1.179
    90   6 C    3.959 --    91 C    1.641    89 C    1.179   109 H    0.975
    91   6 C    3.960 --    90 C    1.641    93 C    1.186   110 H    0.973
    92   7 N    3.404 --    93 C    1.243    89 C    1.202    81 Ni   0.661
    93   6 C    3.906 --    94 C    1.266    92 N    1.243    91 C    1.186
    94   6 C    3.939 --    95 C    1.266    93 C    1.266    78 C    1.177
    95   6 C    3.906 --    94 C    1.266    99 N    1.243    96 C    1.186
    96   6 C    3.960 --    97 C    1.641    95 C    1.186   111 H    0.973
    97   6 C    3.959 --    96 C    1.641    98 C    1.179   112 H    0.975
    98   6 C    3.914 --   100 C    1.366    99 N    1.202    97 C    1.179
    99   7 N    3.404 --    95 C    1.243    98 C    1.202    81 Ni   0.661
   100   6 C    3.940 --   101 C    1.367    98 C    1.366   113 H    0.970
   101   6 C    3.914 --   100 C    1.367   105 N    1.201   102 C    1.179
   102   6 C    3.959 --   103 C    1.641   101 C    1.179   114 H    0.975
   103   6 C    3.960 --   102 C    1.641   104 C    1.187   115 H    0.973
   104   6 C    3.905 --    82 C    1.263   105 N    1.245   103 C    1.187
   105   7 N    3.404 --   104 C    1.245   101 C    1.201    81 Ni   0.660
   106   1 H    1.002 --    84 C    0.973
   107   1 H    0.997 --    85 C    0.975
   108   1 H    1.000 --    88 C    0.970
   109   1 H    0.997 --    90 C    0.975
   110   1 H    1.002 --    91 C    0.973
   111   1 H    1.002 --    96 C    0.973
   112   1 H    0.997 --    97 C    0.975
   113   1 H    1.000 --   100 C    0.970
   114   1 H    0.997 --   102 C    0.975
   115   1 H    1.002 --   103 C    0.973
 ---------------------------------------------------------------------------

           -------------------------------------------------
          | TOTAL ENERGY             -211.542476892834 Eh   |
          | GRADIENT NORM               0.000349901825 Eh/α |
          | HOMO-LUMO GAP               1.117451660000 eV   |
           -------------------------------------------------

 * finished run on 2022/07/30 at 02:08:58.855
