   * xtb version 6.5.1 (b24c23e) compiled by 'conda@728c89f4b128' on 2022-07-12
          program call               : xtb Py_C4_4.xyz --gfn 1 --opt -T 48

   ID    Z sym.   atoms
    1    6 C      1-5, 7-10, 12-16, 18-23, 25-28, 30-35, 56-60, 62-65, 67-71,
                  73-78, 80-83, 85-90, 111-127, 129-132, 134-138, 140-145,
                  147-150, 152-157, 177-181, 183-186, 188-192, 194-199,
                  201-204, 206-211
    2    7 N      6, 11, 17, 24, 29, 36, 61, 66, 72, 79, 84, 91, 128, 133,
                  139, 146, 151, 158, 182, 187, 193, 200, 205, 212
    3    1 H      37-55, 92-110, 159-176, 213-230

          :  Hamiltonian                  GFN1-xTB          :
 * total energy  :  -393.9569018 Eh     change       -0.2701938E-08 Eh
 * total energy  :  -394.2361935 Eh     change       -0.2792917E+00 Eh
 * total energy  :  -394.3813816 Eh     change       -0.1451882E+00 Eh
 * total energy  :  -394.4294009 Eh     change       -0.4801925E-01 Eh
 * total energy  :  -394.4574657 Eh     change       -0.2806482E-01 Eh
 * total energy  :  -394.4792100 Eh     change       -0.2174428E-01 Eh
 * total energy  :  -394.4958291 Eh     change       -0.1661911E-01 Eh
 * total energy  :  -394.5108440 Eh     change       -0.1501490E-01 Eh
 * total energy  :  -394.5272664 Eh     change       -0.1642240E-01 Eh
 * total energy  :  -394.5484728 Eh     change       -0.2120639E-01 Eh
 * total energy  :  -394.9765369 Eh     change       -0.2909646E-04 Eh
 * total energy  :  -394.9765811 Eh     change       -0.4413176E-04 Eh
 * total energy  :  -394.9765957 Eh     change       -0.1462028E-04 Eh
 * total energy  :  -394.9766110 Eh     change       -0.1528668E-04 Eh
 * total energy  :  -394.9766168 Eh     change       -0.5846675E-05 Eh
 * total energy  :  -394.9766257 Eh     change       -0.8872110E-05 Eh
 * total energy  :  -394.9766379 Eh     change       -0.1220708E-04 Eh
 * total energy  :  -394.9766446 Eh     change       -0.6720727E-05 Eh
 * total energy  :  -394.9766493 Eh     change       -0.4641074E-05 Eh
   *** GEOMETRY OPTIMIZATION CONVERGED AFTER 106 ITERATIONS ***

 final structure:
================
230
 xtb: 6.5.1 (b24c23e)
C           36.37669668690863        0.05706756576839        0.08305826192989
C           36.99125503585137        1.28626589148072        0.28358842799230
C           36.34543407525716        2.53845376604486        0.48509790889817
C           37.31259986140299        3.49030705814977        0.64461289648164
C           38.58085278845340        2.84821119443694        0.55564227338279
N           38.33607145003949        1.52374251467838        0.32915269519267
C           39.84702918301978        3.43622384420236        0.65156606637341
C           39.88277756457077        4.89372061710024        0.91932241228045
C           40.46158604928042        5.78366960358938        0.01531113874405
C           40.46637144670153        7.13802038793992        0.30947223473189
N           39.94479276930546        7.63922163454427        1.42461446488030
C           39.39388376277721        6.79752137903762        2.29321161111029
C           39.33615424309106        5.42843613500240        2.08550698042865
C           41.06085851762494        2.75746626936277        0.52255554464170
C           42.36075452628825        3.38366536394179        0.68547143016336
C           43.27847793601305        2.41199931375196        0.50315022433875
N           41.21107689037529        1.42961064942042        0.26181937431620
C           42.53821878545853        1.19342821439447        0.23726180542215
C           43.17056038086679       -0.04299664205850       -0.00485103351032
C           42.52932331530662       -1.27292367163590       -0.24501135077688
C           43.16757247201755       -2.50885626543363       -0.53071584539513
C           42.19596235052003       -3.45462098709728       -0.70770669294592
C           40.93318414979736       -2.82589466154658       -0.52403290854824
N           41.18669116634968       -1.50687721657241       -0.25481638889738
C           39.66778769562755       -3.41452813615247       -0.62128393329096
C           39.62786130850290       -4.86759055037028       -0.90696350825841
C           40.21069280444200       -5.79436355700590       -0.04295619392002
C           40.14415502777414       -7.14342373215289       -0.35348859911317
N           39.55070889215559       -7.60637937257604       -1.44893151778865
C           38.99421617501153       -6.72988335450809       -2.27896044855375
C           39.00477505361151       -5.36278849597830       -2.05229510356417
C           38.45347324564571       -2.73723936006314       -0.46691558040409
C           37.14797026761147       -3.37810962842260       -0.50974918572096
C           36.23756440857873       -2.40402908781916       -0.31099364973095
C           36.98557234990245       -1.17104990288465       -0.13842779138913
N           38.31674597323043       -1.41124541450712       -0.23013920627713
H           35.29158728617686        0.06711213582836        0.10282594717581
H           35.27651561749688        2.67986296616174        0.49797191593245
H           37.16664365765691        4.54662496181534        0.80198473205309
H           39.05748610346028        0.82065768536087        0.20896830762695
H           40.88780726477388        5.42163209347708       -0.91266545761922
H           40.90709584193171        7.85092655856915       -0.38125578718331
H           38.97971245363307        7.23626788994765        3.19632718405919
H           38.88851254016033        4.77909556716287        2.82856448670685
H           42.52650357934080        4.42223558489876        0.92149230541095
H           44.35332878861600        2.48519993844091        0.54660726968683
H           44.23488325275392       -2.64517485128957       -0.59807401188042
H           42.33824244590710       -4.49412430071692       -0.95409089219946
H           40.46832660740859       -0.80826076298432       -0.09500534204189
H           40.69280035555031       -5.46486361897100        0.86979127419875
H           40.58662336947614       -7.88369703497682        0.30669606224910
H           38.51848323711963       -7.13828084984805       -3.16581845937297
H           38.54945453646132       -4.68476599243586       -2.76424882292219
H           36.97702600276138       -4.43222863956618       -0.65755781921536
H           35.16234890681472       -2.48189690464663       -0.27209339175488
C           83.50295379461062       -0.07127957905456        0.03010617979095
C           82.89222314136497       -1.27106653284423       -0.31098643351271
C           83.54167501924825       -2.48550570057041       -0.67016840458800
C           82.57750506336625       -3.42074653374707       -0.92035996635561
C           81.30762586055916       -2.81046111435441       -0.71132180578537
N           81.54829971949711       -1.51368994264641       -0.35643258320124
C           80.04314954730582       -3.39323472160072       -0.85220165198990
C           80.01134259521524       -4.82720459771463       -1.22563459047305
C           79.40917162554140       -5.25419474305281       -2.40872545053954
C           79.41056719404912       -6.60497844520004       -2.71861463463638
N           79.95969242810654       -7.52760279647449       -1.93497865788695
C           80.53248251839564       -7.12971152501351       -0.80360075406434
C           80.58600919355713       -5.80176996913843       -0.41033255293558
C           78.82751779611681       -2.73097750413045       -0.66569429180606
C           77.53044255584805       -3.37773990392740       -0.75329281433701
C           76.60973761613198       -2.42187773769275       -0.51157083380432
N           78.67308875829485       -1.41363074222980       -0.35853072947110
C           77.34549813703721       -1.19550486237545       -0.27052176789816
C           76.70917824434265        0.03399959020714       -0.00484862186073
C           77.34708796535932        1.25903430370352        0.26753135158207
C           76.70597802507001        2.50288540929105        0.50873680078612
C           77.67464077571950        3.43615564559983        0.75495992781854
C           78.93815720624308        2.78693794227409        0.68052624080347
N           78.68854085241841        1.47584088527038        0.37233991779099
C           80.20103199407633        3.36135747581706        0.86094258991027
C           80.23392815220568        4.79651405203345        1.22650814387804
C           79.63162486033767        5.26010597543803        2.39600630076401
C           79.69155705605718        6.61135864795633        2.69796798484234
N           80.29660385005096        7.50172654209568        1.91837741001512
C           80.87143565254451        7.06892982402790        0.80074119772093
C           80.86853971798793        5.73752869901843        0.41606885034784
C           81.41734848840501        2.68367713644555        0.72599385334383
C           82.72041280412171        3.28318025972655        0.96972383179060
C           83.63394519233022        2.32026827907293        0.73415629232690
C           82.89008616534254        1.13086858609046        0.35788008418829
N           81.55833435015676        1.38411861192051        0.37317121904394
H           84.58817866741657       -0.08402894867200        0.03930041831114
H           84.61078179775389       -2.61205907773734       -0.73143721733044
H           82.72662057930414       -4.44226592572184       -1.23041140908096
H           80.82474851551882       -0.83092239262117       -0.15770994121851
H           78.96049760810136       -4.53606664744741       -3.08466904938060
H           78.95256153762892       -6.96073291264476       -3.63692116956853
H           80.96846680829452       -7.90678967736267       -0.18250853649749
H           81.05219383765986       -5.52596204655250        0.52816250731972
H           77.36881761422154       -4.42369828048483       -0.95748771455312
H           75.53565417520987       -2.51309032722605       -0.48681263121515
H           75.63892229861746        2.65543748928578        0.48915496294570
H           77.53011640800440        4.48418540215114        0.96055233141149
H           79.40838998175434        0.77298698722950        0.24024683784879
H           79.13949098515000        4.56886814267030        3.06990751591810
H           79.23456373668454        6.99435543179124        3.60576344031735
H           81.35525011044056        7.82027914833460        0.18349481781280
H           81.33840406566887        5.43312898183038       -0.51153630542799
H           82.88784069158210        4.29891619472243        1.28983947548842
H           84.70874040987705        2.37620293701924        0.80731734590231
C           45.79893755618194       -0.07004848158562       -0.01198214413263
C           44.57678251903427       -0.06225151846103       -0.01125878903197
C           47.14839905895253       -0.07499928760436       -0.01276792032497
C           48.37082027064001       -0.06429435714795       -0.01086169889914
C           59.26612596844118       -0.01079336961628       -0.04711615033242
C           58.04336819055661       -0.02011756762982       -0.05027083331146
C           60.61453214201649       -0.00359049141572       -0.04160296157344
C           61.83720547446153        0.00744484747019       -0.03110561134998
C           72.73146187624626        0.07432793275146       -0.01478264119940
C           71.50909040266160        0.07178250376284       -0.01919074550492
C           74.08081295829133        0.06764380057987       -0.01080980622781
C           75.30305274951172        0.05247127056381       -0.00860606024957
C           49.77630057630090       -0.05875517933798       -0.01280231871844
C           50.40800050417868       -1.29646131701726        0.21515884558850
C           49.76408175504742       -2.53210624930718        0.48257144276000
C           50.73274451823981       -3.48351868754542        0.65152528807312
C           51.99706245711319       -2.85674452549477        0.48084565595062
N           51.75000251470325       -1.53419533751859        0.22684399058738
C           53.25985983589387       -3.45477100791191        0.57443450533921
C           53.27888780335640       -4.91287465241536        0.84348106900223
C           53.86683463699529       -5.42721262085472        1.99856079745864
C           53.85502178334914       -6.79674812398159        2.21062330179069
N           53.30904576773764       -7.65726159347145        1.35733739923083
C           52.74977241519364       -7.17574227018572        0.25204819800937
C           52.70733674140726       -5.82265632558360       -0.04535974125512
C           54.48313944133037       -2.79750307773625        0.43624625601875
C           55.77079566983446       -3.46724836309175        0.47942463153392
C           56.70541464810600       -2.51027956124812        0.30439550738727
N           54.65664079329606       -1.46399406506468        0.22101685902021
C           55.98719663052307       -1.26087452947271        0.14713732980266
C           56.63896544740614       -0.02624780313113       -0.04842761292421
C           56.00716159272076        1.21777267333910       -0.24118823109453
C           56.65140010787609        2.46935504101405       -0.41886321372164
C           55.68264048926424        3.42230283775799       -0.57817535150878
C           54.41797027401459        2.77698353993069       -0.51013302274708
N           54.66513866436566        1.44689135153864       -0.29847940264241
C           53.15543777700803        3.37369651885845       -0.60975352446844
C           53.13723588235182        4.83571390396046       -0.85877413979543
C           52.57976399396536        5.72046313890005        0.06339669379772
C           52.59061733107061        7.07876028942822       -0.21195749992445
N           53.10681528255073        7.58800760613563       -1.32588053154239
C           53.63705638057900        6.75116992590596       -2.21177233130833
C           53.67895223835026        5.37863579865370       -2.02322345181545
C           51.93174471194173        2.71212170188208       -0.49807641808553
C           50.64323634756244        3.36179176332786       -0.65978531625977
C           49.70849177248250        2.40356776195825       -0.49321998205554
C           50.42730212481432        1.17064160927698       -0.23814182176928
N           51.75862962517317        1.38383157421988       -0.25380917256744
H           48.69612037210873       -2.66577052891145        0.54380625378526
H           50.58589197734939       -4.52566356419806        0.88350154263165
H           52.46846587316020       -0.83351430165665        0.07803777507529
H           54.31303046260082       -4.76217730445520        2.72827749354121
H           54.30244185827295       -7.22033343049099        3.10501437034690
H           52.31549192164438       -7.90351111397773       -0.42715678291853
H           52.25149007192139       -5.47717430299409       -0.96563555101725
H           55.91743088908996       -4.52696924401321        0.61096163688342
H           57.77819445705050       -2.61429564834713        0.27308678506348
H           57.71965511167315        2.61408691478638       -0.41841082317905
H           55.82920650725490        4.48033687619930       -0.72145364993261
H           53.94657547128798        0.73862368243717       -0.19224882498425
H           52.15758851016579        5.35099695771510        0.99024405324056
H           52.16666679523826        7.78791725094637        0.49290745896636
H           54.04765219290254        7.19682467131680       -3.11308436314467
H           54.11136016517799        4.73370299306579       -2.77896109146246
H           50.49624108216715        4.40590083635564       -0.88340281848435
H           48.63512490301729        2.49432095066534       -0.54013232839327
C           63.24155166260245        0.01667645110727       -0.02595005115461
C           63.87517754177118       -1.21582523211335        0.22591845260626
C           63.23321157113539       -2.44922224926026        0.50810751728393
C           64.20320549888136       -3.39892870205428        0.67917071749288
C           65.46622544766454       -2.77322056081905        0.49539279189046
N           65.21712546674549       -1.45228633983065        0.23414336444264
C           66.72957158970488       -3.37118378541202        0.57677789743179
C           66.75282890196478       -4.82947437230725        0.84400308212080
C           67.35612326134107       -5.34390163730390        1.99116069474528
C           67.35020655919509       -6.71369652854199        2.20152730885619
N           66.79646066057535       -7.57438950197252        1.35342553472541
C           66.22235623210430       -7.09277640359165        0.25582916979486
C           66.17228349746135       -5.73932383062868       -0.03887404112209
C           67.95151744029840       -2.71317228046633        0.42779055952664
C           69.23929385157065       -3.38365315629640        0.45216835047354
C           70.17273256873275       -2.42476411155542        0.28186793295899
N           68.12314730756324       -1.37770097862901        0.22597150536132
C           69.45369424244092       -1.17318227839949        0.14732214566792
C           70.10376965232771        0.06607713015149       -0.01935490217503
C           69.47031454394838        1.31230498202628       -0.18869750701945
C           70.11178986901837        2.56912316296814       -0.33625696588338
C           69.14169564641438        3.51985970377752       -0.50152123847787
C           67.87909831902927        2.86788293233241       -0.46814522265348
N           68.12822025169172        1.53690332535909       -0.26598153787503
C           66.61586567661675        3.45842479919987       -0.59693449035877
C           66.59507675061208        4.92012794891640       -0.84578113867781
C           65.99646687893954        5.80001754308689        0.05515910681105
C           66.00457824738697        7.15830265608289       -0.22023770637990
N           66.55672322300563        7.67238632960052       -1.31452291388248
C           67.12693179707895        6.84039450362098       -2.17996956378179
C           67.17395424555917        5.46830123745151       -1.98984958397805
C           65.39367808439223        2.78995598534883       -0.51484663948132
C           64.10570142040118        3.43075368999610       -0.71217392427859
C           63.17235093501688        2.46966924473372       -0.55362942287057
C           63.89175264057076        1.24385056980118       -0.26828410573361
N           65.22176572384933        1.46289212169065       -0.26160404889029
H           62.16564547999813       -2.58278398547533        0.57591588403277
H           64.05834672862827       -4.43935836021361        0.91995551133196
H           65.93447255466202       -0.75262793823837        0.07558609363105
H           67.81000641086037       -4.67865696410541        2.71592698642199
H           67.81011460344838       -7.13744551151724        3.08947721773652
H           65.78163919326460       -7.82074976772796       -0.41899038209173
H           65.70405761066607       -5.39371701472276       -0.95286388190152
H           69.38651098907629       -4.44500153532343        0.56899225900154
H           71.24517167025051       -2.52860096045064        0.24140080829229
H           71.17920108495112        2.71844250439243       -0.31359775469884
H           69.28614473515434        4.58039345291050       -0.62747135247667
H           67.41120289722102        0.82382961337750       -0.18416242948346
H           65.54462033676410        5.42693919001501        0.96648263092984
H           65.54916845308588        7.86354876114763        0.46883403476579
H           67.56548483093370        7.28969336827377       -3.06622422848315
H           67.63858213876925        4.82736330071472       -2.72973949530791
H           63.95796468348504        4.47110384975737       -0.95227007282467
H           62.09974386674499        2.55435972135800       -0.62431604222963

          :  Hamiltonian                  GFN1-xTB          :
         :: total energy            -394.976649271705 Eh    ::
         :: gradient norm              0.000691726024 Eh/a0 ::
         :: HOMO-LUMO gap              0.771072391541 eV    ::
         :: SCC energy              -401.513190468639 Eh    ::
         :: repulsion energy           6.736797691444 Eh    ::

    * Orbital Energies and Occupations

         #    Occupation            Energy/Eh            Energy/eV
      -------------------------------------------------------------
         1        2.0000           -0.8117605             -22.0891
       ...           ...                  ...                  ...
       349        2.0000           -0.4214362             -11.4679
       350        2.0000           -0.4212552             -11.4629
       351        2.0000           -0.4211158             -11.4591
       352        2.0000           -0.4207603             -11.4495
       353        2.0000           -0.4206718             -11.4471
       354        2.0000           -0.4063964             -11.0586
       355        2.0000           -0.4062242             -11.0539
       356        2.0000           -0.4052516             -11.0275
       357        2.0000           -0.4052179             -11.0265
       358        2.0000           -0.3978555             -10.8262
       359        2.0000           -0.3932226             -10.7001
       360        2.0000           -0.3873478             -10.5403
       361        2.0000           -0.3815393             -10.3822 (HOMO)
       362        0.0000           -0.3532029              -9.6111 (LUMO)
       363                         -0.3459594              -9.4140
       364                         -0.3395059              -9.2384
       365                         -0.3389807              -9.2241
       366                         -0.3387387              -9.2176
       367                         -0.3383782              -9.2077
       368                         -0.3375532              -9.1853
       369                         -0.3330795              -9.0636
       370                         -0.3131911              -8.5224
       371                         -0.3069838              -8.3535
       372                         -0.3029143              -8.2427
       ...                                ...                  ...
       772                          1.5094482              41.0742
      -------------------------------------------------------------
                  HL-Gap            0.0283364 Eh            0.7711 eV

Wiberg/Mayer (AO) data.
largest (>0.10) Wiberg bond orders for each atom

     #   Z sym  total        # sym  WBO       # sym  WBO       # sym  WBO
 ---------------------------------------------------------------------------
     1   6 C    3.925 --    35 C    1.367     2 C    1.347    37 H    0.971
     2   6 C    3.902 --     1 C    1.347     3 C    1.229     6 N    1.169
     3   6 C    3.954 --     4 C    1.596     2 C    1.229    38 H    0.976
     4   6 C    3.959 --     3 C    1.596     5 C    1.234    39 H    0.974
     5   6 C    3.897 --     7 C    1.302     4 C    1.234     6 N    1.178
     6   7 N    3.470 --     5 C    1.178     2 C    1.169    40 H    0.873
     7   6 C    3.939 --    14 C    1.336     5 C    1.302     8 C    1.029
     8   6 C    3.986 --    13 C    1.392     9 C    1.392     7 C    1.029
                            11 N    0.106
     9   6 C    3.987 --    10 C    1.442     8 C    1.392    41 H    0.973
                            12 C    0.109
    10   6 C    3.972 --     9 C    1.442    11 N    1.415    42 H    0.972
                            13 C    0.108
    11   7 N    3.029 --    12 C    1.416    10 C    1.415     8 C    0.106
    12   6 C    3.972 --    13 C    1.442    11 N    1.416    43 H    0.972
                             9 C    0.109
    13   6 C    3.986 --    12 C    1.442     8 C    1.392    44 H    0.973
                            10 C    0.108
    14   6 C    3.915 --     7 C    1.336    17 N    1.285    15 C    1.124
    15   6 C    3.966 --    16 C    1.711    14 C    1.124    45 H    0.973
    16   6 C    3.964 --    15 C    1.711    18 C    1.127    46 H    0.974
    17   7 N    3.021 --    18 C    1.344    14 C    1.285
    18   6 C    3.909 --    17 N    1.344    19 C    1.255    16 C    1.127
    19   6 C    3.936 --    18 C    1.255    20 C    1.253   112 C    1.189
    20   6 C    3.885 --    19 C    1.253    21 C    1.249    24 N    1.189
    21   6 C    3.959 --    22 C    1.583    20 C    1.249    47 H    0.975
    22   6 C    3.954 --    21 C    1.583    23 C    1.240    48 H    0.974
    23   6 C    3.899 --    25 C    1.308    22 C    1.240    24 N    1.166
    24   7 N    3.474 --    20 C    1.189    23 C    1.166    49 H    0.873
    25   6 C    3.925 --    32 C    1.320    23 C    1.308    26 C    1.032
    26   6 C    3.986 --    27 C    1.392    31 C    1.391    25 C    1.032
                            29 N    0.106
    27   6 C    3.985 --    28 C    1.442    26 C    1.392    50 H    0.973
                            30 C    0.108
    28   6 C    3.972 --    27 C    1.442    29 N    1.415    51 H    0.972
                            31 C    0.108
    29   7 N    3.029 --    28 C    1.415    30 C    1.415    26 C    0.106
    30   6 C    3.972 --    31 C    1.443    29 N    1.415    52 H    0.972
                            27 C    0.108
    31   6 C    3.986 --    30 C    1.443    26 C    1.391    53 H    0.973
                            28 C    0.108
    32   6 C    3.929 --    25 C    1.320    36 N    1.318    33 C    1.117
    33   6 C    3.967 --    34 C    1.724    32 C    1.117    54 H    0.973
    34   6 C    3.966 --    33 C    1.724    35 C    1.116    55 H    0.976
    35   6 C    3.928 --     1 C    1.367    36 N    1.299    34 C    1.116
    36   7 N    3.012 --    32 C    1.318    35 C    1.299
    37   1 H    1.002 --     1 C    0.971
    38   1 H    0.997 --     3 C    0.976
    39   1 H    1.004 --     4 C    0.974
    40   1 H    0.986 --     6 N    0.873
    41   1 H    1.004 --     9 C    0.973
    42   1 H    1.013 --    10 C    0.972
    43   1 H    1.013 --    12 C    0.972
    44   1 H    1.004 --    13 C    0.973
    45   1 H    1.004 --    15 C    0.973
    46   1 H    1.003 --    16 C    0.974
    47   1 H    1.002 --    21 C    0.975
    48   1 H    1.004 --    22 C    0.974
    49   1 H    0.987 --    24 N    0.873
    50   1 H    1.004 --    27 C    0.973
    51   1 H    1.013 --    28 C    0.972
    52   1 H    1.013 --    30 C    0.972
    53   1 H    1.004 --    31 C    0.973
    54   1 H    1.005 --    33 C    0.973
    55   1 H    0.998 --    34 C    0.976
    56   6 C    3.925 --    90 C    1.366    57 C    1.347    92 H    0.971
    57   6 C    3.902 --    56 C    1.347    58 C    1.229    61 N    1.169
    58   6 C    3.954 --    59 C    1.596    57 C    1.229    93 H    0.976
    59   6 C    3.959 --    58 C    1.596    60 C    1.234    94 H    0.974
    60   6 C    3.897 --    62 C    1.302    59 C    1.234    61 N    1.178
    61   7 N    3.470 --    60 C    1.178    57 C    1.169    95 H    0.873
    62   6 C    3.939 --    69 C    1.335    60 C    1.302    63 C    1.030
    63   6 C    3.986 --    68 C    1.392    64 C    1.392    62 C    1.030
                            66 N    0.106
    64   6 C    3.987 --    65 C    1.442    63 C    1.392    96 H    0.973
                            67 C    0.108
    65   6 C    3.972 --    64 C    1.442    66 N    1.415    97 H    0.972
                            68 C    0.108
    66   7 N    3.029 --    67 C    1.416    65 C    1.415    63 C    0.106
    67   6 C    3.972 --    68 C    1.442    66 N    1.416    98 H    0.972
                            64 C    0.108
    68   6 C    3.986 --    67 C    1.442    63 C    1.392    99 H    0.973
                            65 C    0.108
    69   6 C    3.915 --    62 C    1.335    72 N    1.286    70 C    1.124
    70   6 C    3.966 --    71 C    1.711    69 C    1.124   100 H    0.973
    71   6 C    3.964 --    70 C    1.711    73 C    1.127   101 H    0.974
    72   7 N    3.021 --    73 C    1.344    69 C    1.286
    73   6 C    3.909 --    72 N    1.344    74 C    1.255    71 C    1.127
    74   6 C    3.936 --    73 C    1.255    75 C    1.252   122 C    1.189
    75   6 C    3.885 --    74 C    1.252    76 C    1.249    79 N    1.189
    76   6 C    3.959 --    77 C    1.583    75 C    1.249   102 H    0.975
    77   6 C    3.954 --    76 C    1.583    78 C    1.241   103 H    0.974
    78   6 C    3.899 --    80 C    1.308    77 C    1.241    79 N    1.166
    79   7 N    3.474 --    75 C    1.189    78 C    1.166   104 H    0.873
    80   6 C    3.925 --    87 C    1.320    78 C    1.308    81 C    1.032
    81   6 C    3.986 --    82 C    1.391    86 C    1.391    80 C    1.032
                            84 N    0.106
    82   6 C    3.985 --    83 C    1.442    81 C    1.391   105 H    0.973
                            85 C    0.108
    83   6 C    3.972 --    82 C    1.442    84 N    1.415   106 H    0.972
                            86 C    0.108
    84   7 N    3.029 --    83 C    1.415    85 C    1.415    81 C    0.106
    85   6 C    3.972 --    86 C    1.442    84 N    1.415   107 H    0.972
                            82 C    0.108
    86   6 C    3.986 --    85 C    1.442    81 C    1.391   108 H    0.973
                            83 C    0.108
    87   6 C    3.929 --    80 C    1.320    91 N    1.317    88 C    1.117
    88   6 C    3.967 --    89 C    1.724    87 C    1.117   109 H    0.973
    89   6 C    3.966 --    88 C    1.724    90 C    1.116   110 H    0.976
    90   6 C    3.928 --    56 C    1.366    91 N    1.300    89 C    1.116
    91   7 N    3.011 --    87 C    1.317    90 C    1.300
    92   1 H    1.002 --    56 C    0.971
    93   1 H    0.997 --    58 C    0.976
    94   1 H    1.004 --    59 C    0.974
    95   1 H    0.986 --    61 N    0.873
    96   1 H    1.004 --    64 C    0.973
    97   1 H    1.013 --    65 C    0.972
    98   1 H    1.013 --    67 C    0.972
    99   1 H    1.004 --    68 C    0.973
   100   1 H    1.004 --    70 C    0.973
   101   1 H    1.003 --    71 C    0.974
   102   1 H    1.002 --    76 C    0.975
   103   1 H    1.004 --    77 C    0.974
   104   1 H    0.987 --    79 N    0.873
   105   1 H    1.004 --    82 C    0.973
   106   1 H    1.013 --    83 C    0.972
   107   1 H    1.013 --    85 C    0.972
   108   1 H    1.004 --    86 C    0.973
   109   1 H    1.005 --    88 C    0.973
   110   1 H    0.998 --    89 C    0.976
   111   6 C    3.932 --   112 C    2.474   113 C    1.309
   112   6 C    3.923 --   111 C    2.474    19 C    1.189   114 C    0.198
   113   6 C    3.929 --   114 C    2.472   111 C    1.309
   114   6 C    3.924 --   113 C    2.472   123 C    1.191   112 C    0.198
   115   6 C    3.929 --   116 C    2.466   117 C    1.314
   116   6 C    3.924 --   115 C    2.466   141 C    1.196   118 C    0.198
   117   6 C    3.929 --   118 C    2.466   115 C    1.314
   118   6 C    3.924 --   117 C    2.466   177 C    1.196   116 C    0.198
   119   6 C    3.929 --   120 C    2.471   121 C    1.310
   120   6 C    3.924 --   119 C    2.471   195 C    1.192   122 C    0.198
   121   6 C    3.932 --   122 C    2.473   119 C    1.310
   122   6 C    3.923 --   121 C    2.473    74 C    1.189   120 C    0.198
   123   6 C    3.923 --   157 C    1.255   124 C    1.248   114 C    1.191
   124   6 C    3.886 --   125 C    1.253   123 C    1.248   128 N    1.189
   125   6 C    3.955 --   126 C    1.577   124 C    1.253   159 H    0.975
   126   6 C    3.955 --   125 C    1.577   127 C    1.246   160 H    0.974
   127   6 C    3.894 --   129 C    1.298   126 C    1.246   128 N    1.167
   128   7 N    3.471 --   124 C    1.189   127 C    1.167   161 H    0.874
   129   6 C    3.927 --   136 C    1.339   127 C    1.298   130 C    1.029
   130   6 C    3.986 --   135 C    1.393   131 C    1.392   129 C    1.029
                           133 N    0.107
   131   6 C    3.987 --   132 C    1.442   130 C    1.392   162 H    0.973
                           134 C    0.109
   132   6 C    3.972 --   131 C    1.442   133 N    1.415   163 H    0.972
                           135 C    0.108
   133   7 N    3.030 --   134 C    1.416   132 C    1.415   130 C    0.107
   134   6 C    3.972 --   135 C    1.442   133 N    1.416   164 H    0.972
                           131 C    0.109
   135   6 C    3.986 --   134 C    1.442   130 C    1.393   165 H    0.973
                           132 C    0.108
   136   6 C    3.917 --   129 C    1.339   139 N    1.282   137 C    1.125
   137   6 C    3.966 --   138 C    1.710   136 C    1.125   166 H    0.973
   138   6 C    3.963 --   137 C    1.710   140 C    1.129   167 H    0.974
   139   7 N    3.008 --   140 C    1.346   136 C    1.282
   140   6 C    3.909 --   139 N    1.346   141 C    1.252   138 C    1.129
   141   6 C    3.923 --   140 C    1.252   142 C    1.246   116 C    1.196
   142   6 C    3.885 --   143 C    1.253   141 C    1.246   146 N    1.190
   143   6 C    3.955 --   144 C    1.577   142 C    1.253   168 H    0.975
   144   6 C    3.955 --   143 C    1.577   145 C    1.246   169 H    0.974
   145   6 C    3.894 --   147 C    1.299   144 C    1.246   146 N    1.166
   146   7 N    3.471 --   142 C    1.190   145 C    1.166   170 H    0.874
   147   6 C    3.927 --   154 C    1.338   145 C    1.299   148 C    1.027
   148   6 C    3.986 --   153 C    1.393   149 C    1.393   147 C    1.027
                           151 N    0.107
   149   6 C    3.987 --   150 C    1.442   148 C    1.393   171 H    0.973
                           152 C    0.109
   150   6 C    3.972 --   149 C    1.442   151 N    1.416   172 H    0.972
                           153 C    0.109
   151   7 N    3.030 --   152 C    1.416   150 C    1.416   148 C    0.107
   152   6 C    3.972 --   153 C    1.441   151 N    1.416   173 H    0.972
                           149 C    0.109
   153   6 C    3.986 --   152 C    1.441   148 C    1.393   174 H    0.973
                           150 C    0.109
   154   6 C    3.917 --   147 C    1.338   158 N    1.283   155 C    1.124
   155   6 C    3.966 --   156 C    1.711   154 C    1.124   175 H    0.973
   156   6 C    3.964 --   155 C    1.711   157 C    1.128   176 H    0.974
   157   6 C    3.909 --   158 N    1.344   123 C    1.255   156 C    1.128
   158   7 N    3.008 --   157 C    1.344   154 C    1.283
   159   1 H    1.002 --   125 C    0.975
   160   1 H    1.004 --   126 C    0.974
   161   1 H    0.987 --   128 N    0.874
   162   1 H    1.004 --   131 C    0.973
   163   1 H    1.013 --   132 C    0.972
   164   1 H    1.013 --   134 C    0.972
   165   1 H    1.004 --   135 C    0.973
   166   1 H    1.005 --   137 C    0.973
   167   1 H    1.003 --   138 C    0.974
   168   1 H    1.002 --   143 C    0.975
   169   1 H    1.004 --   144 C    0.974
   170   1 H    0.987 --   146 N    0.874
   171   1 H    1.004 --   149 C    0.973
   172   1 H    1.013 --   150 C    0.972
   173   1 H    1.013 --   152 C    0.972
   174   1 H    1.004 --   153 C    0.973
   175   1 H    1.004 --   155 C    0.973
   176   1 H    1.003 --   156 C    0.974
   177   6 C    3.923 --   211 C    1.252   178 C    1.246   118 C    1.196
   178   6 C    3.885 --   179 C    1.253   177 C    1.246   182 N    1.190
   179   6 C    3.955 --   180 C    1.577   178 C    1.253   213 H    0.975
   180   6 C    3.955 --   179 C    1.577   181 C    1.246   214 H    0.974
   181   6 C    3.894 --   183 C    1.299   180 C    1.246   182 N    1.166
   182   7 N    3.471 --   178 C    1.190   181 C    1.166   215 H    0.874
   183   6 C    3.927 --   190 C    1.337   181 C    1.299   184 C    1.029
   184   6 C    3.986 --   189 C    1.393   185 C    1.392   183 C    1.029
                           187 N    0.106
   185   6 C    3.987 --   186 C    1.442   184 C    1.392   216 H    0.973
                           188 C    0.109
   186   6 C    3.972 --   185 C    1.442   187 N    1.415   217 H    0.972
                           189 C    0.108
   187   7 N    3.030 --   188 C    1.416   186 C    1.415   184 C    0.106
   188   6 C    3.972 --   189 C    1.442   187 N    1.416   218 H    0.972
                           185 C    0.109
   189   6 C    3.986 --   188 C    1.442   184 C    1.393   219 H    0.973
                           186 C    0.108
   190   6 C    3.917 --   183 C    1.337   193 N    1.284   191 C    1.125
   191   6 C    3.966 --   192 C    1.710   190 C    1.125   220 H    0.973
   192   6 C    3.964 --   191 C    1.710   194 C    1.129   221 H    0.974
   193   7 N    3.008 --   194 C    1.344   190 C    1.284
   194   6 C    3.909 --   193 N    1.344   195 C    1.255   192 C    1.129
   195   6 C    3.923 --   194 C    1.255   196 C    1.248   120 C    1.192
   196   6 C    3.886 --   197 C    1.254   195 C    1.248   200 N    1.189
   197   6 C    3.955 --   198 C    1.577   196 C    1.254   222 H    0.975
   198   6 C    3.955 --   197 C    1.577   199 C    1.246   223 H    0.974
   199   6 C    3.894 --   201 C    1.298   198 C    1.246   200 N    1.167
   200   7 N    3.471 --   196 C    1.189   199 C    1.167   224 H    0.874
   201   6 C    3.927 --   208 C    1.339   199 C    1.298   202 C    1.029
   202   6 C    3.986 --   207 C    1.393   203 C    1.392   201 C    1.029
                           205 N    0.107
   203   6 C    3.987 --   204 C    1.442   202 C    1.392   225 H    0.973
                           206 C    0.109
   204   6 C    3.972 --   203 C    1.442   205 N    1.415   226 H    0.972
                           207 C    0.108
   205   7 N    3.030 --   206 C    1.416   204 C    1.415   202 C    0.107
   206   6 C    3.972 --   207 C    1.442   205 N    1.416   227 H    0.972
                           203 C    0.109
   207   6 C    3.986 --   206 C    1.442   202 C    1.393   228 H    0.973
                           204 C    0.108
   208   6 C    3.917 --   201 C    1.339   212 N    1.282   209 C    1.125
   209   6 C    3.966 --   210 C    1.710   208 C    1.125   229 H    0.973
   210   6 C    3.963 --   209 C    1.710   211 C    1.129   230 H    0.974
   211   6 C    3.909 --   212 N    1.346   177 C    1.252   210 C    1.129
   212   7 N    3.008 --   211 C    1.346   208 C    1.282
   213   1 H    1.002 --   179 C    0.975
   214   1 H    1.004 --   180 C    0.974
   215   1 H    0.987 --   182 N    0.874
   216   1 H    1.004 --   185 C    0.973
   217   1 H    1.013 --   186 C    0.972
   218   1 H    1.013 --   188 C    0.972
   219   1 H    1.004 --   189 C    0.973
   220   1 H    1.004 --   191 C    0.973
   221   1 H    1.003 --   192 C    0.974
   222   1 H    1.002 --   197 C    0.975
   223   1 H    1.004 --   198 C    0.974
   224   1 H    0.987 --   200 N    0.874
   225   1 H    1.004 --   203 C    0.973
   226   1 H    1.013 --   204 C    0.972
   227   1 H    1.013 --   206 C    0.972
   228   1 H    1.004 --   207 C    0.973
   229   1 H    1.005 --   209 C    0.973
   230   1 H    1.003 --   210 C    0.974
 ---------------------------------------------------------------------------

           -------------------------------------------------
          | TOTAL ENERGY             -394.976649271705 Eh   |
          | GRADIENT NORM               0.000691726024 Eh/α |
          | HOMO-LUMO GAP               0.771072391541 eV   |
           -------------------------------------------------

 * finished run on 2022/07/27 at 05:31:26.635
