   * xtb version 6.5.1 (b24c23e) compiled by 'conda@728c89f4b128' on 2022-07-12
          program call               : xtb Zn_Ph3OH_C2_2.xyz --gfn 1 --opt -T 48

   ID    Z sym.   atoms
    1   30 Zn     1, 63
    2    6 C      2-6, 8-11, 13, 15, 17-20, 22-27, 29-32, 34, 36, 38-42,
                  64-68, 70-73, 75, 77, 79-82, 84-89, 91-94, 96, 98, 100-104,
                  125, 126
    3    7 N      7, 21, 28, 43, 69, 83, 90, 105
    4    8 O      12, 14, 16, 33, 35, 37, 74, 76, 78, 95, 97, 99
    5    1 H      44-62, 106-124
########################################################################
[WARNING] Please study the warnings concerning your input carefully
-1- prog_main_parseArguments: Unknown option '-T' provided
########################################################################

          :  Hamiltonian                  GFN1-xTB          :
 * total energy  :  -243.2431086 Eh     change       -0.9140422E-10 Eh
 * total energy  :  -243.4116655 Eh     change       -0.1685568E+00 Eh
 * total energy  :  -243.4911131 Eh     change       -0.7944761E-01 Eh
 * total energy  :  -243.5182066 Eh     change       -0.2709354E-01 Eh
 * total energy  :  -243.5300868 Eh     change       -0.1188017E-01 Eh
 * total energy  :  -243.5355318 Eh     change       -0.5445013E-02 Eh
 * total energy  :  -243.5383429 Eh     change       -0.2811088E-02 Eh
 * total energy  :  -243.5398738 Eh     change       -0.1530847E-02 Eh
 * total energy  :  -243.5407558 Eh     change       -0.8820694E-03 Eh
 * total energy  :  -243.5413201 Eh     change       -0.5643143E-03 Eh
 * total energy  :  -243.5462575 Eh     change       -0.1055027E-04 Eh
 * total energy  :  -243.5462715 Eh     change       -0.1395494E-04 Eh
 * total energy  :  -243.5462874 Eh     change       -0.1595120E-04 Eh
 * total energy  :  -243.5463015 Eh     change       -0.1405202E-04 Eh
 * total energy  :  -243.5463123 Eh     change       -0.1087244E-04 Eh
 * total energy  :  -243.5463216 Eh     change       -0.9258075E-05 Eh
 * total energy  :  -243.5463315 Eh     change       -0.9899989E-05 Eh
 * total energy  :  -243.5463439 Eh     change       -0.1241354E-04 Eh
 * total energy  :  -243.5463470 Eh     change       -0.3065604E-05 Eh
   *** GEOMETRY OPTIMIZATION CONVERGED AFTER 68 ITERATIONS ***

 final structure:
================
126
 xtb: 6.5.1 (b24c23e)
Zn          17.24585692644426        0.05354929610533       -0.02329241647989
C           13.83352114719293        0.09390888817191       -0.11400465815541
C           14.46687958894492        1.33058070371129       -0.09145620490708
C           13.79621503039917        2.60019447724916       -0.05627244699673
C           14.75765352135717        3.55638266756775       -0.02588586132992
C           16.02886083088548        2.88226649842583       -0.05549165963117
N           15.81680985739391        1.53461387937613       -0.08477092724871
C           17.28243955884655        3.50407906207906       -0.04250794700964
C           17.30675684053964        4.98919704108112       -0.01709852543348
C           16.75276071129923        5.72550194533214       -1.06420805156160
C           16.77938750488666        7.11494347525432       -1.02977272678558
O           16.25151817549422        7.84107433130017       -2.04617433448499
C           17.35384311485443        7.77326208675601        0.05853655525227
O           17.36120520396703        9.14417842412185        0.06752522839479
C           17.90499032936828        7.03824442960294        1.10482433297643
O           18.44758384834613        7.75350270551849        2.14049174295288
C           17.88752073615744        5.64975005903669        1.06922681649573
C           18.51926154227704        2.84846477891337       -0.04417378967846
C           19.79608561207729        3.50002624871863       -0.12875618536649
C           20.74191093326692        2.52670876912598       -0.11372116064129
N           18.71497462601363        1.49406957221747        0.00774155475860
C           20.05805690340172        1.27188471452994       -0.01720439202381
C           20.69228758932189        0.01374027990251        0.04779560634209
C           20.02867152743159       -1.22966460566697        0.09808979018603
C           20.68299521279599       -2.50228143139952        0.16523810764738
C           19.71544817992239       -3.45364996636545        0.14913627349942
C           18.45353151955828       -2.77087035369452        0.08798219666389
N           18.68101718211751       -1.42017967037456        0.05940657106133
C           17.20250722328085       -3.39464120961847        0.02765197698696
C           17.18209744143631       -4.88105720317989        0.03630769979026
C           17.64835716423789       -5.58761603132911        1.14465395584504
C           17.62540395570755       -6.97754947044462        1.14538323495748
O           18.06997765937894       -7.67517372729620        2.22006637024917
C           17.14142973563001       -7.66601348791123        0.03207634756099
O           17.13509875041320       -9.03687910230939        0.05954766719871
C           16.67771512015025       -6.96046902618345       -1.07494016914323
O           16.22085195235216       -7.70433170958744       -2.13193605872610
C           16.69229122630505       -5.57122894094892       -1.07561856364551
C           15.96602784497754       -2.74287310682109       -0.04517098609577
C           14.68017302963406       -3.38893987359962       -0.05371427757880
C           13.74044669847202       -2.41133900226983       -0.09422733802614
C           14.43925696747340       -1.15684781688043       -0.10352143592484
N           15.78403738025190       -1.39102843146071       -0.07323053987674
H           12.74801861238071        0.10591765127423       -0.12739434003034
H           12.72534856927999        2.73081360487092       -0.04802511748189
H           14.62269447158613        4.62507755161563        0.02148384642634
H           16.31706855125822        5.22569178095853       -1.91969571067375
H           16.36764846937848        8.78294672868871       -1.83862210574141
H           17.79197105763999        9.43374235545070        0.88751145303252
H           18.81075595995408        7.16187471913559        2.81250892879198
H           18.30769318402534        5.08347860197742        1.89224463507636
H           19.94837158146638        4.56425342744062       -0.21009341198765
H           21.81062839821546        2.64495805470976       -0.17688339981082
H           21.74895348721028       -2.64695465799986        0.21997024201143
H           19.84500021948348       -4.52364343318960        0.17002294337153
H           18.01407844911520       -5.06376217671378        2.01832190823550
H           17.97007219646986       -8.62244086316281        2.02927114413943
H           16.77355697405677       -9.34952162493338       -0.78495871194606
H           15.92469238420498       -7.13137937475069       -2.85124642110125
H           16.34099392654029       -5.02834112495681       -1.94535271300806
H           14.52106475411754       -4.45496497980344       -0.01832319216379
H           12.66698708905900       -2.51850646788381       -0.10797411444632
Zn          28.17966344931370       -0.05056421620039       -0.02919760369975
C           31.59199888875311       -0.08022340386162       -0.12395227100518
C           30.95869202659962       -1.31150949160757       -0.24170627056321
C           31.62941258834338       -2.57689786058186       -0.35067084530143
C           30.66801677823669       -3.53041325767342       -0.42882962120065
C           29.39677889304399       -2.85734428636020       -0.38182100214179
N           29.60877050563067       -1.51504694569215       -0.25817377677603
C           28.14322861597866       -3.47668222386503       -0.43937911428000
C           28.11898644508764       -4.95510961026707       -0.58247496736880
C           28.67301000388987       -5.56794582038921       -1.70630119412326
C           28.64646303013160       -6.95233701041642       -1.82958300032326
O           29.17436254517467       -7.55854654391123       -2.92174432883974
C           28.07205849838104       -7.72980745099682       -0.82290584163031
O           28.06477574147907       -9.09290749391527       -0.96936990939929
C           27.52088255192544       -7.11815702413517        0.29995710932704
O           26.97834235847756       -7.94623104395068        1.24787735969789
C           27.53827330032225       -5.73457554970811        0.42197740968412
C           26.90637550365460       -2.82516518198939       -0.36670048286448
C           25.62957691753136       -3.46300112128453       -0.52455685379986
C           24.68370916854391       -2.49770210145156       -0.39929036804732
N           26.71060461146943       -1.48539028230851       -0.16161270581795
C           25.36751204107578       -1.26187247475651       -0.16118311111598
C           24.73323277630950       -0.01922873234885        0.04600104181171
C           25.39680041783572        1.21048754250967        0.23691711473175
C           24.74242331800927        2.46726118812788        0.44789363299210
C           25.70992824505677        3.41436672649699        0.53973195293448
C           26.97187264319243        2.74297994939483        0.40154197403073
N           26.74444553225062        1.40422351248514        0.22004586879265
C           28.22286658033526        3.36963019012082        0.41227989660119
C           28.24320601979575        4.84548837503098        0.58934410301747
C           27.77692235622426        5.42186324075604        1.77062597638301
C           27.79979922712421        6.80276113622125        1.92886768156519
O           27.35519921445346        7.37407531929965        3.07568952413751
C           28.28372254466497        7.61298513152146        0.90075218896152
O           28.28997715997658        8.97190644631378        1.08340157557301
C           28.74746424305196        7.03746699819987       -0.27909207859972
O           29.20427396305212        7.89634949841946       -1.24498105884597
C           28.73296284425570        5.65725326465199       -0.43720540220273
C           29.45937335167323        2.73037597468355        0.26602482308639
C           30.74519959081609        3.37330674477354        0.33074576669967
C           31.68496735301520        2.40664371774332        0.17965270117108
C           30.98621144322052        1.16125742449946        0.02824636349953
N           29.64142173244170        1.39043371278952        0.08490629257444
H           32.67750113706527       -0.09058812892874       -0.13865413553928
H           32.70028494347856       -2.70756037906614       -0.35729975316229
H           30.80302445530474       -4.59758465167407       -0.50288651809766
H           29.10866380297623       -4.97436111441444       -2.49962331027911
H           29.05829073670103       -8.51788178789905       -2.82229086719450
H           27.63403356605789       -9.47357669282741       -0.18749012504874
H           26.61515309059358       -7.43461093959343        1.98263117732751
H           27.11808116786755       -5.26526858882700        1.30388218666879
H           25.47733536412630       -4.51116029268297       -0.72597966595172
H           23.61499354102743       -2.60808130634815       -0.47541044146888
H           23.67646143366312        2.60474784222174        0.51870706734664
H           25.58032812044220        4.47508862652374        0.68178310739040
H           27.41124049749829        4.80235359458536        2.57930098654829
H           27.45505055884759        8.33686781507723        2.99347446578282
H           28.65149304652103        9.37825965594902        0.27976459263179
H           29.50045911849064        7.40862236432908       -2.02458922131358
H           29.08427683296425        5.21644726046978       -1.36286342398747
H           30.90426178756816        4.42845627219248        0.48674772996325
H           32.75842180033472        2.51472869363452        0.17811880310136
C           22.10360018198551       -0.00040345781929        0.05195184392184
C           23.32191955689727       -0.00568369055428        0.05168171725694

          :  Hamiltonian                  GFN1-xTB          :
         :: total energy            -243.546346968477 Eh    ::
         :: gradient norm              0.000324932848 Eh/a0 ::
         :: HOMO-LUMO gap              1.071339177676 eV    ::
         :: SCC energy              -246.706166592114 Eh    ::
         :: repulsion energy           3.272857164702 Eh    ::

    * Orbital Energies and Occupations

         #    Occupation            Energy/Eh            Energy/eV
      -------------------------------------------------------------
         1        2.0000           -0.8103575             -22.0509
       ...           ...                  ...                  ...
       197        2.0000           -0.4189934             -11.4014
       198        2.0000           -0.4189496             -11.4002
       199        2.0000           -0.4187702             -11.3953
       200        2.0000           -0.4187481             -11.3947
       201        2.0000           -0.4177879             -11.3686
       202        2.0000           -0.4107133             -11.1761
       203        2.0000           -0.4093593             -11.1392
       204        2.0000           -0.4079166             -11.1000
       205        2.0000           -0.4079132             -11.0999
       206        2.0000           -0.3914462             -10.6518
       207        2.0000           -0.3914367             -10.6515
       208        2.0000           -0.3878358             -10.5535
       209        2.0000           -0.3736754             -10.1682 (HOMO)
       210                         -0.3343044              -9.0969 (LUMO)
       211                         -0.3239832              -8.8160
       212                         -0.3239824              -8.8160
       213                         -0.3172892              -8.6339
       214                         -0.2922971              -7.9538
       215                         -0.2832061              -7.7064
       216                         -0.2515838              -6.8459
       217                         -0.2515770              -6.8458
       218                         -0.2507003              -6.8219
       219                         -0.2502851              -6.8106
       220                         -0.2502324              -6.8092
       ...                                ...                  ...
       428                          1.3347318              36.3199
      -------------------------------------------------------------
                  HL-Gap            0.0393710 Eh            1.0713 eV

Wiberg/Mayer (AO) data.
largest (>0.10) Wiberg bond orders for each atom

     #   Z sym  total        # sym  WBO       # sym  WBO       # sym  WBO
 ---------------------------------------------------------------------------
     1  30 Zn   1.998 --    43 N    0.460     7 N    0.459    28 N    0.457
                            21 N    0.456
     2   6 C    3.927 --     3 C    1.357    42 C    1.356    44 H    0.971
     3   6 C    3.922 --     2 C    1.357     7 N    1.234     4 C    1.170
     4   6 C    3.960 --     5 C    1.659     3 C    1.170    45 H    0.976
     5   6 C    3.964 --     4 C    1.659     6 C    1.172    46 H    0.973
     6   6 C    3.918 --     8 C    1.317     7 N    1.243     5 C    1.172
     7   7 N    3.292 --     6 C    1.243     3 C    1.234     1 Zn   0.459
     8   6 C    3.933 --    18 C    1.320     6 C    1.317     9 C    1.027
     9   6 C    3.989 --    10 C    1.399    17 C    1.386     8 C    1.027
    10   6 C    3.977 --     9 C    1.399    11 C    1.380    47 H    0.970
    11   6 C    3.917 --    10 C    1.380    13 C    1.325    12 O    1.051
    12   8 O    2.047 --    11 C    1.051    48 H    0.848
    13   6 C    3.904 --    15 C    1.341    11 C    1.325    14 O    1.019
    14   8 O    2.019 --    13 C    1.019    49 H    0.846
    15   6 C    3.905 --    17 C    1.385    13 C    1.341    16 O    1.013
    16   8 O    2.024 --    15 C    1.013    50 H    0.861
    17   6 C    3.973 --     9 C    1.386    15 C    1.385    51 H    0.969
    18   6 C    3.913 --     8 C    1.320    21 N    1.227    19 C    1.181
    19   6 C    3.960 --    20 C    1.642    18 C    1.181    52 H    0.974
    20   6 C    3.962 --    19 C    1.642    22 C    1.189    53 H    0.966
    21   7 N    3.296 --    22 C    1.260    18 C    1.227     1 Zn   0.456
    22   6 C    3.907 --    21 N    1.260    23 C    1.257    20 C    1.189
    23   6 C    3.939 --    24 C    1.258    22 C    1.257   125 C    1.181
    24   6 C    3.907 --    28 N    1.260    23 C    1.258    25 C    1.188
    25   6 C    3.962 --    26 C    1.644    24 C    1.188    54 H    0.966
    26   6 C    3.959 --    25 C    1.644    27 C    1.180    55 H    0.973
    27   6 C    3.913 --    29 C    1.324    28 N    1.226    26 C    1.180
    28   7 N    3.296 --    24 C    1.260    27 C    1.226     1 Zn   0.457
    29   6 C    3.933 --    27 C    1.324    39 C    1.316    30 C    1.024
    30   6 C    3.989 --    31 C    1.401    38 C    1.388    29 C    1.024
    31   6 C    3.977 --    30 C    1.401    32 C    1.380    56 H    0.970
    32   6 C    3.917 --    31 C    1.380    34 C    1.325    33 O    1.051
    33   8 O    2.046 --    32 C    1.051    57 H    0.848
    34   6 C    3.904 --    36 C    1.342    32 C    1.325    35 O    1.019
    35   8 O    2.019 --    34 C    1.019    58 H    0.847
    36   6 C    3.905 --    38 C    1.384    34 C    1.342    37 O    1.012
    37   8 O    2.023 --    36 C    1.012    59 H    0.861
    38   6 C    3.973 --    30 C    1.388    36 C    1.384    60 H    0.970
    39   6 C    3.918 --    29 C    1.316    43 N    1.243    40 C    1.173
    40   6 C    3.963 --    41 C    1.658    39 C    1.173    61 H    0.974
    41   6 C    3.960 --    40 C    1.658    42 C    1.172    62 H    0.976
    42   6 C    3.922 --     2 C    1.356    43 N    1.233    41 C    1.172
    43   7 N    3.293 --    39 C    1.243    42 C    1.233     1 Zn   0.460
    44   1 H    1.002 --     2 C    0.971
    45   1 H    0.998 --     4 C    0.976
    46   1 H    1.006 --     5 C    0.973
    47   1 H    1.000 --    10 C    0.970
    48   1 H    0.878 --    12 O    0.848
    49   1 H    0.876 --    14 O    0.846
    50   1 H    0.881 --    16 O    0.861
    51   1 H    1.001 --    17 C    0.969
    52   1 H    1.006 --    19 C    0.974
    53   1 H    1.008 --    20 C    0.966
    54   1 H    1.008 --    25 C    0.966
    55   1 H    1.006 --    26 C    0.973
    56   1 H    1.000 --    31 C    0.970
    57   1 H    0.878 --    33 O    0.848
    58   1 H    0.876 --    35 O    0.847
    59   1 H    0.882 --    37 O    0.861
    60   1 H    1.001 --    38 C    0.970
    61   1 H    1.006 --    40 C    0.974
    62   1 H    0.998 --    41 C    0.976
    63  30 Zn   1.998 --   105 N    0.460    69 N    0.459    90 N    0.457
                            83 N    0.456
    64   6 C    3.927 --    65 C    1.357   104 C    1.356   106 H    0.971
    65   6 C    3.922 --    64 C    1.357    69 N    1.234    66 C    1.170
    66   6 C    3.960 --    67 C    1.659    65 C    1.170   107 H    0.976
    67   6 C    3.964 --    66 C    1.659    68 C    1.172   108 H    0.973
    68   6 C    3.918 --    70 C    1.317    69 N    1.243    67 C    1.172
    69   7 N    3.292 --    68 C    1.243    65 C    1.234    63 Zn   0.459
    70   6 C    3.933 --    80 C    1.320    68 C    1.317    71 C    1.027
    71   6 C    3.989 --    72 C    1.399    79 C    1.386    70 C    1.027
    72   6 C    3.977 --    71 C    1.399    73 C    1.380   109 H    0.970
    73   6 C    3.917 --    72 C    1.380    75 C    1.325    74 O    1.051
    74   8 O    2.047 --    73 C    1.051   110 H    0.848
    75   6 C    3.904 --    77 C    1.341    73 C    1.325    76 O    1.019
    76   8 O    2.019 --    75 C    1.019   111 H    0.846
    77   6 C    3.905 --    79 C    1.385    75 C    1.341    78 O    1.013
    78   8 O    2.024 --    77 C    1.013   112 H    0.861
    79   6 C    3.973 --    71 C    1.386    77 C    1.385   113 H    0.969
    80   6 C    3.913 --    70 C    1.320    83 N    1.227    81 C    1.181
    81   6 C    3.960 --    82 C    1.642    80 C    1.181   114 H    0.974
    82   6 C    3.962 --    81 C    1.642    84 C    1.189   115 H    0.966
    83   7 N    3.296 --    84 C    1.260    80 C    1.227    63 Zn   0.456
    84   6 C    3.907 --    83 N    1.260    85 C    1.257    82 C    1.189
    85   6 C    3.939 --    86 C    1.258    84 C    1.257   126 C    1.181
    86   6 C    3.907 --    90 N    1.260    85 C    1.258    87 C    1.188
    87   6 C    3.962 --    88 C    1.644    86 C    1.188   116 H    0.966
    88   6 C    3.959 --    87 C    1.644    89 C    1.180   117 H    0.973
    89   6 C    3.913 --    91 C    1.324    90 N    1.226    88 C    1.180
    90   7 N    3.296 --    86 C    1.260    89 C    1.226    63 Zn   0.457
    91   6 C    3.933 --    89 C    1.324   101 C    1.316    92 C    1.024
    92   6 C    3.989 --    93 C    1.401   100 C    1.388    91 C    1.024
    93   6 C    3.977 --    92 C    1.401    94 C    1.380   118 H    0.970
    94   6 C    3.917 --    93 C    1.380    96 C    1.325    95 O    1.051
    95   8 O    2.046 --    94 C    1.051   119 H    0.848
    96   6 C    3.904 --    98 C    1.342    94 C    1.325    97 O    1.019
    97   8 O    2.019 --    96 C    1.019   120 H    0.847
    98   6 C    3.905 --   100 C    1.384    96 C    1.342    99 O    1.012
    99   8 O    2.023 --    98 C    1.012   121 H    0.861
   100   6 C    3.973 --    92 C    1.388    98 C    1.384   122 H    0.970
   101   6 C    3.918 --    91 C    1.316   105 N    1.243   102 C    1.173
   102   6 C    3.963 --   103 C    1.658   101 C    1.173   123 H    0.974
   103   6 C    3.960 --   102 C    1.658   104 C    1.172   124 H    0.976
   104   6 C    3.922 --    64 C    1.356   105 N    1.233   103 C    1.172
   105   7 N    3.293 --   101 C    1.243   104 C    1.233    63 Zn   0.460
   106   1 H    1.002 --    64 C    0.971
   107   1 H    0.998 --    66 C    0.976
   108   1 H    1.006 --    67 C    0.973
   109   1 H    1.000 --    72 C    0.970
   110   1 H    0.878 --    74 O    0.848
   111   1 H    0.876 --    76 O    0.846
   112   1 H    0.881 --    78 O    0.861
   113   1 H    1.001 --    79 C    0.969
   114   1 H    1.006 --    81 C    0.974
   115   1 H    1.008 --    82 C    0.966
   116   1 H    1.008 --    87 C    0.966
   117   1 H    1.006 --    88 C    0.973
   118   1 H    1.000 --    93 C    0.970
   119   1 H    0.878 --    95 O    0.848
   120   1 H    0.876 --    97 O    0.847
   121   1 H    0.882 --    99 O    0.861
   122   1 H    1.001 --   100 C    0.970
   123   1 H    1.006 --   102 C    0.974
   124   1 H    0.998 --   103 C    0.976
   125   6 C    3.934 --   126 C    2.576    23 C    1.181
   126   6 C    3.934 --   125 C    2.576    85 C    1.181
 ---------------------------------------------------------------------------

           -------------------------------------------------
          | TOTAL ENERGY             -243.546346968477 Eh   |
          | GRADIENT NORM               0.000324932848 Eh/α |
          | HOMO-LUMO GAP               1.071339177676 eV   |
           -------------------------------------------------

 * finished run on 2022/07/30 at 12:00:44.016
