   * xtb version 6.5.1 (b24c23e) compiled by 'conda@728c89f4b128' on 2022-07-12
          program call               : xtb Co_m-CP_C2_2.xyz --gfn 1 --opt -T 48

   ID    Z sym.   atoms
    1   27 Co     1, 63
    2    6 C      2-6, 8-12, 15-20, 22-27, 29-35, 38-42, 64-68, 70-74, 77-82,
                  84-89, 91-97, 100-104, 125, 126
    3    7 N      7, 21, 28, 43, 69, 83, 90, 105
    4    8 O      13, 14, 36, 37, 75, 76, 98, 99
    5    1 H      44-62, 106-124
########################################################################
[WARNING] Please study the warnings concerning your input carefully
-1- prog_main_parseArguments: Unknown option '-T' provided
########################################################################

          :  Hamiltonian                  GFN1-xTB          :
 * total energy  :  -238.1046942 Eh     change       -0.5606552E-08 Eh
 * total energy  :  -238.4385770 Eh     change       -0.3338828E+00 Eh
 * total energy  :  -238.5433285 Eh     change       -0.1047515E+00 Eh
 * total energy  :  -238.5929001 Eh     change       -0.4957157E-01 Eh
 * total energy  :  -238.6143583 Eh     change       -0.2145816E-01 Eh
 * total energy  :  -238.6252461 Eh     change       -0.1088782E-01 Eh
 * total energy  :  -238.6313532 Eh     change       -0.6107128E-02 Eh
 * total energy  :  -238.6352682 Eh     change       -0.3914938E-02 Eh
 * total energy  :  -238.6379708 Eh     change       -0.2702682E-02 Eh
 * total energy  :  -238.6397286 Eh     change       -0.1757764E-02 Eh
 * total energy  :  -238.6448197 Eh     change       -0.1089366E-04 Eh
 * total energy  :  -238.6448312 Eh     change       -0.1147162E-04 Eh
 * total energy  :  -238.6448481 Eh     change       -0.1699464E-04 Eh
 * total energy  :  -238.6448674 Eh     change       -0.1920906E-04 Eh
 * total energy  :  -238.6448837 Eh     change       -0.1633643E-04 Eh
 * total energy  :  -238.6448971 Eh     change       -0.1340986E-04 Eh
 * total energy  :  -238.6449080 Eh     change       -0.1088721E-04 Eh
 * total energy  :  -238.6449142 Eh     change       -0.6176501E-05 Eh
 * total energy  :  -238.6449178 Eh     change       -0.3593185E-05 Eh
   *** GEOMETRY OPTIMIZATION CONVERGED AFTER 59 ITERATIONS ***

 final structure:
================
126
 xtb: 6.5.1 (b24c23e)
Co          17.06322236727962        0.01324004069005        0.05390888582781
C           13.69289056629028        0.00534135007331        0.21655277477859
C           14.34140894986501        1.21416932119625        0.07900192951301
C           13.67310835094606        2.47299415509648       -0.05314439662028
C           14.62938288155637        3.42902077786579        0.01003640190139
C           15.87913943606427        2.75262134015124        0.20248956051351
N           15.69806046973881        1.39315838540107        0.17703102290862
C           17.07338352166360        3.38818229439245        0.51332643349610
C           17.08489568349025        4.85888199354816        0.68903009167706
C           16.28931973852848        5.46390083296017        1.65782945485434
C           16.30615617962334        6.84831648540996        1.82244290042208
C           15.43948299145781        7.43356139635576        2.87670716360839
O           15.53637928128308        8.76745465859657        2.96996631215403
O           14.71115504544798        6.79307528651388        3.59053073580799
C           17.11946621202731        7.63928595341200        1.01115280159094
C           17.91102250937310        7.03917806434294        0.04434360139345
C           17.89808039299554        5.66092900138273       -0.11556204918717
C           18.25695085903586        2.68361515215208        0.67964016976942
C           19.49450390045822        3.27514286307426        1.09042433897627
C           20.44316014343911        2.31448196210837        0.97640293833698
N           18.43657298240700        1.35251723789370        0.38341611521311
C           19.78303974109028        1.14107034568957        0.49847552546107
C           20.45648552044759       -0.00525490744470        0.07365504596887
C           19.77339946010634       -1.13660613208447       -0.37779892973510
C           20.41891459877677       -2.29208332234186       -0.91425058120710
C           19.45631909080958       -3.23015840467407       -1.08844779203864
C           18.22731828698779       -2.64784190831216       -0.64050879628846
N           18.42604302309437       -1.33812757482674       -0.26803661784602
C           17.04294506440145       -3.35123304802703       -0.47639377916486
C           17.02750528711891       -4.80919512770811       -0.73731495269342
C           17.86953593562408       -5.66631611284286       -0.02497577129689
C           17.85458368415286       -7.03308878108832       -0.26558442004817
C           17.00276609845213       -7.56079991549115       -1.22143283974476
C           16.15677004368145       -6.71469206086428       -1.94011508110637
C           15.25920004896060       -7.31942611199769       -2.95655835580585
O           14.47386314316655       -6.42801275399466       -3.57783587342998
O           15.22101138691412       -8.49520960319282       -3.21459492984058
C           16.16869585070391       -5.34302964325830       -1.69607318910701
C           15.87221460398759       -2.72912996121247       -0.06308448704318
C           14.64157821685347       -3.41684543356525        0.19923437777083
C           13.69888754466872       -2.46754046257987        0.40530379457060
C           14.35482542120034       -1.20211611295795        0.27274700718895
N           15.69916949531654       -1.37377826174629        0.05319412312769
H           12.61058961286497        0.00317014496498        0.26781921680602
H           12.60799191620498        2.58929217865483       -0.17450994837528
H           14.51244869532111        4.49840429863367       -0.05792862403501
H           15.66116578338541        4.86389499924138        2.30715113906326
H           14.94493907195008        9.07164545484925        3.67750537843148
H           17.12889652917562        8.71496368227992        1.13857377720348
H           18.54313428919753        7.64822507813863       -0.59191302802159
H           18.51170892491493        5.19847321333331       -0.88061443842918
H           19.61038750521615        4.29364371271943        1.42358773829386
H           21.49846221538209        2.38126141235569        1.18623087878086
H           21.47357675432892       -2.36200922234600       -1.12653619994181
H           19.55891025198320       -4.22783791256877       -1.48326936348846
H           18.52721819446190       -5.25685297082468        0.73356285896884
H           18.51029893000768       -7.68647252431442        0.29854083695236
H           16.97902621210473       -8.62583517852801       -1.42273587340886
H           13.92171734310232       -6.89987013071049       -4.22234389011493
H           15.52034921951047       -4.68691342107473       -2.26467238825312
H           14.52813011409277       -4.48860489578298        0.21951352574252
H           12.64860228350737       -2.59183138048687        0.61556966863457
Co          27.87966715704063       -0.03013849887434        0.04681281751777
C           31.24996774362075       -0.07567835498633        0.20270349927647
C           30.60141913147407       -1.17346983194262       -0.32170318064872
C           31.26967526352769       -2.32028418056480       -0.85741477601289
C           30.31339997521714       -3.24467883753234       -1.10936621555367
C           29.06368459384927       -2.66810562046422       -0.70660727963700
N           29.24476954845290       -1.37464075550345       -0.28739237881018
C           27.86948013656986       -3.37032893804940       -0.61985227990004
C           27.85792706345897       -4.81791581137221       -0.93344467648960
C           28.65349331365928       -5.70584441428716       -0.21495705243539
C           28.63659608856479       -7.06824990890323       -0.51085123424592
C           29.50320305225992       -7.96531170199525        0.29482001760998
O           29.40682716456087       -9.25666524109316       -0.05238148626221
O           30.23133910801634       -7.59281890863637        1.17874085368536
C           27.82326081804458       -7.55135069228766       -1.53576883904319
C           27.03174410801105       -6.66871670222840       -2.25398141411470
C           27.04472500121742       -5.31367033953532       -1.95561429319512
C           26.68596242739935       -2.75853819733924       -0.23269100853142
C           25.44842433605745       -3.45168387507187       -0.03716875116752
C           24.49978605248894       -2.50635548840273        0.16841256033226
N           26.50632782068664       -1.40359350070477       -0.07878342992934
C           25.15989152365211       -1.24123048958759        0.09918985625315
C           24.48644476168203       -0.01903479408793        0.07143401966743
C           25.16952869469040        1.19769359343743        0.01357162716651
C           24.52404386246611        2.46496239266576       -0.11676287954588
C           25.48663889786538        3.40854411720133        0.02459115978028
C           26.71562187304071        2.71196214351084        0.25817989338191
N           26.51689955146053        1.35239616561841        0.18295263643935
C           27.89996888541497        3.32331485965083        0.64288283190454
C           27.91543049492769        4.78664730848185        0.87179552394599
C           27.07332520851429        5.36456024202985        1.82467156175054
C           27.08826674712291        6.73506559206828        2.04301893879907
C           27.94013287349528        7.54568193853709        1.31162374596354
C           28.78621569527611        6.98025058344918        0.35634959659948
C           29.68388109702816        7.88344376629393       -0.40716261980193
O           30.46917392548962        7.24344271625634       -1.28525964096504
O           29.72201064003907        9.07909135678809       -0.26761313061523
C           28.77430379083550        5.60400053645516        0.13965847906742
C           29.07066861982513        2.60037828958854        0.83069695368190
C           30.30131016593283        3.16484517992250        1.30305928077341
C           31.24401196417172        2.20027640187859        1.18801754530687
C           30.58806126554063        1.04734711873516        0.64986596994497
N           29.24373532334733        1.28129801460496        0.49824436963178
H           32.33228057857222       -0.09030643633467        0.25169158812880
H           32.33477335622246       -2.39060118652040       -1.01021940483631
H           30.43031818193133       -4.23341533740001       -1.52241093422002
H           29.28164468293743       -5.35043367390316        0.59455310415246
H           29.99847936005568       -9.77477495271949        0.51722663467404
H           27.81385009214152       -8.60977504374928       -1.76611213822170
H           26.39963578650710       -7.03690235695544       -3.05411133199333
H           26.43112018627363       -4.62697050600215       -2.52801117399837
H           25.33254200536389       -4.52315570185548       -0.05429109166565
H           23.44450778722924       -2.63791770306104        0.34514295899223
H           23.46938997940918        2.60031860339937       -0.29466844352607
H           25.38405376155263        4.48044009272485       -0.02320217328326
H           26.41557581672902        4.73008712762377        2.40810774599573
H           26.43248937072956        7.16872345020107        2.78934830117011
H           27.96386811116363        8.61813101536786        1.46871256576268
H           31.02129345464003        7.89972553208175       -1.74061461147558
H           29.42270587218609        5.16922500902241       -0.61179990135027
H           30.41475191392794        4.17130853627374        1.67200238083278
H           32.29429759222133        2.24915990863073        1.42733315368193
C           21.86321491774060       -0.01204100120757        0.07819082799927
C           23.07971368135829       -0.01412345634846        0.07795085430228

          :  Hamiltonian                  GFN1-xTB          :
         :: total energy            -238.644917758140 Eh    ::
         :: gradient norm              0.000335212970 Eh/a0 ::
         :: HOMO-LUMO gap              0.008520340932 eV    ::
         :: SCC energy              -242.013119834842 Eh    ::
         :: repulsion energy           3.482651138131 Eh    ::

    * Orbital Energies and Occupations

         #    Occupation            Energy/Eh            Energy/eV
      -------------------------------------------------------------
         1        2.0000           -0.8352422             -22.7281
       ...           ...                  ...                  ...
       200        2.0000           -0.4356669             -11.8551
       201        2.0000           -0.4356487             -11.8546
       202        2.0000           -0.4073169             -11.0837
       203        2.0000           -0.4045576             -11.0086
       204        2.0000           -0.4045098             -11.0073
       205        2.0000           -0.4034953             -10.9797
       206        2.0000           -0.4034003             -10.9771
       207        1.9998           -0.4000176             -10.8850
       208        1.9998           -0.4000128             -10.8849
       209        1.9998           -0.3998936             -10.8817
       210        1.9998           -0.3998896             -10.8816
       211        1.9052           -0.3941438             -10.7252
       212        1.1299           -0.3915414             -10.6544 (HOMO)
       213        0.9658           -0.3912282             -10.6459 (LUMO)
       214                         -0.3459645              -9.4142
       215                         -0.3365250              -9.1573
       216                         -0.3365070              -9.1568
       217                         -0.3298247              -8.9750
       218                         -0.3143073              -8.5527
       219                         -0.3138066              -8.5391
       220                         -0.3131285              -8.5207
       221                         -0.3131071              -8.5201
       222                         -0.3045327              -8.2868
       223                         -0.3011807              -8.1955
       ...                                ...                  ...
       438                          1.3356144              36.3439
      -------------------------------------------------------------
                  HL-Gap            0.0003131 Eh            0.0085 eV

Wiberg/Mayer (AO) data.
largest (>0.10) Wiberg bond orders for each atom

     #   Z sym  total        # sym  WBO       # sym  WBO       # sym  WBO
 ---------------------------------------------------------------------------
     1  27 Co   3.055 --    43 N    0.642     7 N    0.638    21 N    0.636
                            28 N    0.632
     2   6 C    3.929 --    42 C    1.367     3 C    1.363    44 H    0.970
     3   6 C    3.923 --     2 C    1.363     7 N    1.202     4 C    1.174
     4   6 C    3.959 --     5 C    1.650     3 C    1.174    45 H    0.975
     5   6 C    3.963 --     4 C    1.650     6 C    1.175    46 H    0.973
     6   6 C    3.921 --     8 C    1.322     7 N    1.210     5 C    1.175
     7   7 N    3.347 --     6 C    1.210     3 C    1.202     1 Co   0.638
     8   6 C    3.931 --    18 C    1.328     6 C    1.322     9 C    1.029
     9   6 C    3.988 --    10 C    1.407    17 C    1.386     8 C    1.029
                            15 C    0.102
    10   6 C    3.983 --     9 C    1.407    11 C    1.397    47 H    0.967
                            16 C    0.104
    11   6 C    3.988 --    10 C    1.397    15 C    1.391    12 C    1.004
    12   6 C    3.836 --    14 O    1.693    13 O    1.091    11 C    1.004
    13   8 O    2.099 --    12 C    1.091    48 H    0.838    14 O    0.129
    14   8 O    1.962 --    12 C    1.693    13 O    0.129
    15   6 C    3.986 --    16 C    1.447    11 C    1.391    49 H    0.970
                             9 C    0.102
    16   6 C    3.994 --    15 C    1.447    17 C    1.442    50 H    0.972
                            10 C    0.104
    17   6 C    3.985 --    16 C    1.442     9 C    1.386    51 H    0.972
    18   6 C    3.918 --     8 C    1.328    21 N    1.197    19 C    1.182
    19   6 C    3.959 --    20 C    1.636    18 C    1.182    52 H    0.973
    20   6 C    3.962 --    19 C    1.636    22 C    1.190    53 H    0.972
    21   7 N    3.347 --    22 C    1.226    18 C    1.197     1 Co   0.636
    22   6 C    3.909 --    23 C    1.267    21 N    1.226    20 C    1.190
    23   6 C    3.934 --    22 C    1.267    24 C    1.263   125 C    1.176
    24   6 C    3.909 --    23 C    1.263    28 N    1.229    25 C    1.192
    25   6 C    3.962 --    26 C    1.634    24 C    1.192    54 H    0.972
    26   6 C    3.958 --    25 C    1.634    27 C    1.182    55 H    0.973
    27   6 C    3.918 --    29 C    1.329    28 N    1.194    26 C    1.182
    28   7 N    3.347 --    24 C    1.229    27 C    1.194     1 Co   0.632
    29   6 C    3.931 --    27 C    1.329    39 C    1.319    30 C    1.030
    30   6 C    3.988 --    38 C    1.404    31 C    1.388    29 C    1.030
                            33 C    0.102
    31   6 C    3.987 --    32 C    1.440    30 C    1.388    56 H    0.972
    32   6 C    3.994 --    33 C    1.450    31 C    1.440    57 H    0.972
                            38 C    0.104
    33   6 C    3.985 --    32 C    1.450    34 C    1.388    58 H    0.969
                            30 C    0.102
    34   6 C    3.988 --    38 C    1.400    33 C    1.388    35 C    1.004
    35   6 C    3.836 --    37 O    1.693    36 O    1.090    34 C    1.004
    36   8 O    2.099 --    35 C    1.090    59 H    0.838    37 O    0.129
    37   8 O    1.961 --    35 C    1.693    36 O    0.129
    38   6 C    3.985 --    30 C    1.404    34 C    1.400    60 H    0.969
                            32 C    0.104
    39   6 C    3.921 --    29 C    1.319    43 N    1.213    40 C    1.175
    40   6 C    3.963 --    41 C    1.650    39 C    1.175    61 H    0.973
    41   6 C    3.960 --    40 C    1.650    42 C    1.173    62 H    0.975
    42   6 C    3.923 --     2 C    1.367    43 N    1.199    41 C    1.173
    43   7 N    3.346 --    39 C    1.213    42 C    1.199     1 Co   0.642
    44   1 H    1.000 --     2 C    0.970
    45   1 H    0.997 --     4 C    0.975
    46   1 H    1.003 --     5 C    0.973
    47   1 H    1.007 --    10 C    0.967
    48   1 H    0.872 --    13 O    0.838
    49   1 H    1.005 --    15 C    0.970
    50   1 H    1.002 --    16 C    0.972
    51   1 H    1.004 --    17 C    0.972
    52   1 H    1.003 --    19 C    0.973
    53   1 H    1.003 --    20 C    0.972
    54   1 H    1.003 --    25 C    0.972
    55   1 H    1.003 --    26 C    0.973
    56   1 H    1.005 --    31 C    0.972
    57   1 H    1.002 --    32 C    0.972
    58   1 H    1.005 --    33 C    0.969
    59   1 H    0.873 --    36 O    0.838
    60   1 H    1.007 --    38 C    0.969
    61   1 H    1.003 --    40 C    0.973
    62   1 H    0.997 --    41 C    0.975
    63  27 Co   3.055 --   105 N    0.642    69 N    0.638    83 N    0.636
                            90 N    0.632
    64   6 C    3.929 --   104 C    1.367    65 C    1.363   106 H    0.970
    65   6 C    3.923 --    64 C    1.363    69 N    1.202    66 C    1.174
    66   6 C    3.959 --    67 C    1.650    65 C    1.174   107 H    0.975
    67   6 C    3.963 --    66 C    1.650    68 C    1.175   108 H    0.973
    68   6 C    3.921 --    70 C    1.322    69 N    1.210    67 C    1.175
    69   7 N    3.347 --    68 C    1.210    65 C    1.202    63 Co   0.638
    70   6 C    3.931 --    80 C    1.328    68 C    1.322    71 C    1.029
    71   6 C    3.988 --    72 C    1.407    79 C    1.386    70 C    1.029
                            77 C    0.102
    72   6 C    3.983 --    71 C    1.407    73 C    1.397   109 H    0.967
                            78 C    0.104
    73   6 C    3.988 --    72 C    1.397    77 C    1.391    74 C    1.004
    74   6 C    3.836 --    76 O    1.693    75 O    1.091    73 C    1.004
    75   8 O    2.099 --    74 C    1.091   110 H    0.838    76 O    0.129
    76   8 O    1.962 --    74 C    1.693    75 O    0.129
    77   6 C    3.986 --    78 C    1.447    73 C    1.391   111 H    0.970
                            71 C    0.102
    78   6 C    3.994 --    77 C    1.447    79 C    1.442   112 H    0.972
                            72 C    0.104
    79   6 C    3.985 --    78 C    1.442    71 C    1.386   113 H    0.972
    80   6 C    3.918 --    70 C    1.328    83 N    1.197    81 C    1.182
    81   6 C    3.959 --    82 C    1.636    80 C    1.182   114 H    0.973
    82   6 C    3.962 --    81 C    1.636    84 C    1.190   115 H    0.972
    83   7 N    3.347 --    84 C    1.226    80 C    1.197    63 Co   0.636
    84   6 C    3.909 --    85 C    1.267    83 N    1.226    82 C    1.190
    85   6 C    3.934 --    84 C    1.267    86 C    1.263   126 C    1.176
    86   6 C    3.909 --    85 C    1.263    90 N    1.229    87 C    1.192
    87   6 C    3.962 --    88 C    1.634    86 C    1.192   116 H    0.972
    88   6 C    3.958 --    87 C    1.634    89 C    1.182   117 H    0.973
    89   6 C    3.918 --    91 C    1.329    90 N    1.194    88 C    1.182
    90   7 N    3.347 --    86 C    1.229    89 C    1.194    63 Co   0.632
    91   6 C    3.931 --    89 C    1.329   101 C    1.319    92 C    1.030
    92   6 C    3.988 --   100 C    1.404    93 C    1.388    91 C    1.030
                            95 C    0.102
    93   6 C    3.987 --    94 C    1.440    92 C    1.388   118 H    0.972
    94   6 C    3.994 --    95 C    1.450    93 C    1.440   119 H    0.972
                           100 C    0.104
    95   6 C    3.985 --    94 C    1.450    96 C    1.388   120 H    0.969
                            92 C    0.102
    96   6 C    3.988 --   100 C    1.400    95 C    1.388    97 C    1.004
    97   6 C    3.836 --    99 O    1.693    98 O    1.090    96 C    1.004
    98   8 O    2.099 --    97 C    1.090   121 H    0.838    99 O    0.129
    99   8 O    1.961 --    97 C    1.693    98 O    0.129
   100   6 C    3.985 --    92 C    1.404    96 C    1.400   122 H    0.969
                            94 C    0.104
   101   6 C    3.921 --    91 C    1.319   105 N    1.213   102 C    1.175
   102   6 C    3.963 --   103 C    1.650   101 C    1.175   123 H    0.973
   103   6 C    3.960 --   102 C    1.650   104 C    1.173   124 H    0.975
   104   6 C    3.923 --    64 C    1.367   105 N    1.199   103 C    1.173
   105   7 N    3.346 --   101 C    1.213   104 C    1.199    63 Co   0.642
   106   1 H    1.000 --    64 C    0.970
   107   1 H    0.997 --    66 C    0.975
   108   1 H    1.003 --    67 C    0.973
   109   1 H    1.007 --    72 C    0.967
   110   1 H    0.872 --    75 O    0.838
   111   1 H    1.005 --    77 C    0.970
   112   1 H    1.002 --    78 C    0.972
   113   1 H    1.004 --    79 C    0.972
   114   1 H    1.003 --    81 C    0.973
   115   1 H    1.003 --    82 C    0.972
   116   1 H    1.003 --    87 C    0.972
   117   1 H    1.003 --    88 C    0.973
   118   1 H    1.005 --    93 C    0.972
   119   1 H    1.002 --    94 C    0.972
   120   1 H    1.005 --    95 C    0.969
   121   1 H    0.873 --    98 O    0.838
   122   1 H    1.007 --   100 C    0.969
   123   1 H    1.003 --   102 C    0.973
   124   1 H    0.997 --   103 C    0.975
   125   6 C    3.930 --   126 C    2.575    23 C    1.176
   126   6 C    3.930 --   125 C    2.575    85 C    1.176
 ---------------------------------------------------------------------------

           -------------------------------------------------
          | TOTAL ENERGY             -238.644917758140 Eh   |
          | GRADIENT NORM               0.000335212970 Eh/α |
          | HOMO-LUMO GAP               0.008520340932 eV   |
           -------------------------------------------------

 * finished run on 2022/07/29 at 22:58:04.356
