   * xtb version 6.5.1 (b24c23e) compiled by 'conda@728c89f4b128' on 2022-07-12
          program call               : xtb Cu_PhCN_C4_2.xyz --gfn 1 --opt -T 48

   ID    Z sym.   atoms
    1   29 Cu     1, 59
    2    6 C      2-6, 8-13, 15-19, 21-26, 28-33, 35-40, 60-64, 66-71, 73-77,
                  79-84, 86-91, 93-98, 117-120
    3    7 N      7, 14, 20, 27, 34, 41, 65, 72, 78, 85, 92, 99
    4    1 H      42-58, 100-116
########################################################################
[WARNING] Please study the warnings concerning your input carefully
-1- prog_main_parseArguments: Unknown option '-T' provided
########################################################################

          :  Hamiltonian                  GFN1-xTB          :
 * total energy  :  -217.3768158 Eh     change       -0.8352856E-09 Eh
 * total energy  :  -217.5165431 Eh     change       -0.1397273E+00 Eh
 * total energy  :  -217.5554620 Eh     change       -0.3891891E-01 Eh
 * total energy  :  -217.5788389 Eh     change       -0.2337689E-01 Eh
 * total energy  :  -217.5864417 Eh     change       -0.7602784E-02 Eh
 * total energy  :  -217.5903052 Eh     change       -0.3863513E-02 Eh
 * total energy  :  -217.5946152 Eh     change       -0.4309999E-02 Eh
 * total energy  :  -217.5963036 Eh     change       -0.1688447E-02 Eh
 * total energy  :  -217.5981828 Eh     change       -0.1879208E-02 Eh
 * total energy  :  -217.5985681 Eh     change       -0.3852339E-03 Eh
 * total energy  :  -217.6034243 Eh     change       -0.1586618E-04 Eh
 * total energy  :  -217.6034499 Eh     change       -0.2552495E-04 Eh
 * total energy  :  -217.6034728 Eh     change       -0.2297576E-04 Eh
 * total energy  :  -217.6034936 Eh     change       -0.2073458E-04 Eh
 * total energy  :  -217.6035073 Eh     change       -0.1370206E-04 Eh
 * total energy  :  -217.6035200 Eh     change       -0.1276485E-04 Eh
 * total energy  :  -217.6035290 Eh     change       -0.9011425E-05 Eh
 * total energy  :  -217.6035379 Eh     change       -0.8814482E-05 Eh
 * total energy  :  -217.6035420 Eh     change       -0.4169451E-05 Eh
   *** GEOMETRY OPTIMIZATION CONVERGED AFTER 39 ITERATIONS ***

 final structure:
================
120
 xtb: 6.5.1 (b24c23e)
Cu          16.88212972258101        0.03390055016136        0.00138596270415
C           13.47848122904470        0.04758114852428        0.14170229316792
C           14.11527662024008        1.26515400972904        0.32873395205859
C           13.44213810204909        2.51608429039710        0.53259250579072
C           14.40247416972788        3.46294039564206        0.67278329251738
C           15.67230365430014        2.79610070763388        0.56676795396654
N           15.46638352185387        1.46453710533731        0.35033977383653
C           16.91869518534769        3.42248329654782        0.64803319269149
C           16.93418960906082        4.87647776057817        0.93969622951388
C           16.40090527106309        5.36135147068379        2.13636103623869
C           16.41772747843140        6.71537274754200        2.41847546486287
C           16.96693095435553        7.61562164578483        1.50050270950493
C           16.98428939823889        9.00958280309682        1.78827103334880
N           16.99775418883506       10.13618284959802        2.02257486237255
C           17.49818731378654        7.13620642513926        0.29949913886353
C           17.48251387857060        5.78006434070178        0.02657095392324
C           18.15041656096455        2.78497694268800        0.48329454285944
C           19.43060926038754        3.41934146886394        0.62575229612029
C           20.37298970061262        2.46762631516506        0.40753382666225
N           18.33384478832575        1.45928250517916        0.19270243115762
C           19.67688574827209        1.24485544026336        0.14008721026298
C           20.30817079572646        0.01748526512990       -0.12554029545943
C           19.64740932531562       -1.20240748466926       -0.35101256758709
C           20.31011262124769       -2.43070650043109       -0.67225416951338
C           19.34495488337016       -3.37275050412407       -0.82293235499337
C           18.08512297711812       -2.72714209800262       -0.58298874116512
N           18.30221289238751       -1.40377523364020       -0.30539509921234
C           16.83859780960877       -3.35350269603214       -0.65032536242556
C           16.81754093791142       -4.80749937056347       -0.94174325680752
C           16.18563563766604       -5.28715892935873       -2.09150861625325
C           16.16448243052567       -6.64153682208149       -2.37169704154318
C           16.77453851811116       -7.54723289255555       -1.49867547619117
C           16.75083413709471       -8.94183624112708       -1.78278763002100
N           16.72973820659397      -10.06894834710622       -2.01334441593753
C           17.40617094637693       -7.07282627261865       -0.34517597999870
C           17.42758580703744       -5.71639590059843       -0.07415440077022
C           15.60820014114589       -2.71685148686152       -0.46782512214944
C           14.32849500037123       -3.37310562358831       -0.47146063816265
C           13.39070508042808       -2.41922932292514       -0.24994742715899
C           14.08846270381759       -1.17439130903554       -0.09866256708793
N           15.43158702783346       -1.38432209623340       -0.23170894927925
H           12.39431756431711        0.05149291696916        0.18692326398269
H           12.37099642592125        2.64102547528814        0.55278072603897
H           14.26977294711171        4.52255518233757        0.82101935317987
H           15.98579165772765        4.66506285980091        2.85635069121382
H           16.00769737878149        7.08311164764504        3.35181108267440
H           17.92097974551590        7.83145782869036       -0.41631668207187
H           17.88466411864896        5.41352628082815       -0.91117043847532
H           19.58550595149349        4.45629380025184        0.87611530265780
H           21.44581379505452        2.57279889424833        0.43159013114268
H           21.37711837669267       -2.54546081878000       -0.77708950528507
H           19.47080842524570       -4.41020635744942       -1.08707399236649
H           15.72233956740766       -4.58665846900660       -2.77717514701215
H           15.67697135137596       -7.00531184920325       -3.26858547365069
H           17.87691359915838       -7.77239075269287        0.33573125176259
H           17.90732147708378       -5.35371470746404        0.82796061528575
H           14.17540882572867       -4.43097593756475       -0.61209208917778
H           12.32051100067774       -2.53553663571184       -0.18284193603768
Cu          30.34152565530482       -0.03301082459103        0.00383967947948
C           33.74528786704334       -0.03920486909414        0.14393476250938
C           33.10843025694147       -1.24485684330247        0.39652978789215
C           33.78148663316279       -2.48307425004883        0.66729329264025
C           32.82108641811702       -3.42084852967829        0.85872709135583
C           31.55130193392062       -2.76051627044518        0.71731120844000
N           31.75729190694575       -1.44260650398592        0.42928212567660
C           30.30495531879054       -3.38159615350212        0.83262546016791
C           30.28969721485069       -4.81771779423879        1.20254057368058
C           30.82194641281373       -5.23677537593364        2.42422170756141
C           30.80540619650306       -6.57355121842832        2.77933938671677
C           30.25765352988858       -7.52242123172175        1.91087358835257
C           30.23962828142703       -8.89890361385528        2.27314058797536
N           30.22528215430444      -10.01134084864045        2.56730679050513
C           29.72747733538912       -7.10900634166834        0.68507187853802
C           29.74275890636957       -5.76967073412541        0.33907470416556
C           29.07316891907228       -2.75407705408903        0.63381510381324
C           27.79300920358995       -3.37991393837619        0.81003949863017
C           26.85060773420637       -2.44134717992240        0.54089065171326
N           28.88970509567652       -1.44593820017538        0.27226884428015
C           27.54670877488256       -1.23469415751001        0.20813563827219
C           26.91541900848906       -0.02351108888481       -0.12369657510806
C           27.57623783852083        1.18225831440032       -0.41524788222245
C           26.91363742451023        2.39121247585752       -0.80321449704056
C           27.87883717271676        3.32366145260151       -1.00473654623372
C           29.13860471825537        2.69206417415502       -0.72968836229431
N           28.92145182978074        1.38576816615022       -0.38048028203075
C           30.38508560801674        3.31392013470991       -0.83064678085210
C           30.40605117712331        4.75002375591633       -1.20045153011574
C           31.03663198045220        5.16656668003606       -2.37523035209878
C           31.05746599749211        6.50377454987671       -2.72844424885257
C           30.44861550086814        7.45550891389061       -1.90497013958010
C           30.47136167554450        8.83269473867925       -2.26426681876037
N           30.49079396878433        9.94586567602024       -2.55540112332873
C           29.81848847985360        7.04439855523827       -0.72664612858119
C           29.79723819460706        5.70464248964276       -0.38255245639346
C           31.61550867526122        2.68826214246826       -0.61372775438115
C           32.89519209713509        3.34336066065404       -0.65318344823764
C           33.83302840369721        2.40288526369163       -0.38047844711778
C           33.13529860022375        1.16804916267228       -0.16187478353923
N           31.79216388060909        1.37048410219472       -0.30580685189743
H           34.82946309017628       -0.04077831863732        0.18898155067698
H           34.85261902208536       -2.60692768213041        0.69374927380630
H           32.95363118003056       -4.47095515504724        1.06385554344644
H           31.23612614968209       -4.50228759328495        3.10575538047209
H           31.21459047101265       -6.88981256449514        3.73171935219226
H           29.30587939256351       -7.84237012600450        0.00763502222735
H           29.34145271939465       -5.45463253677936       -0.61755725410489
H           27.63820691146472       -4.40198209772059        1.11553707131079
H           25.77778848443347       -2.54513190490276        0.57044078034692
H           25.84666153586102        2.50008514251643       -0.91449384180339
H           27.75310875195520        4.34521029774473       -1.32502353273584
H           31.49911333114791        4.42988791268284       -3.02246486487622
H           31.54371650464395        6.81831438647879       -3.64445783105319
H           29.34872115164943        7.77992429414808       -0.08408663818840
H           29.31855046912135        5.39138795239439        0.53842178583365
H           33.04818678199975        4.39205692704190       -0.85103226527845
H           34.90324161442962        2.52259109353466       -0.32001561050750
C           22.93645290976993        0.00014611803505       -0.17348916486923
C           21.71507811839742        0.00805295465767       -0.15958005358035
C           24.28717630369347       -0.00882535911672       -0.17330277900801
C           25.50851168165049       -0.01583583878201       -0.15793998253787

          :  Hamiltonian                  GFN1-xTB          :
         :: total energy            -217.603542028442 Eh    ::
         :: gradient norm              0.000527119044 Eh/a0 ::
         :: HOMO-LUMO gap              0.002424783045 eV    ::
         :: SCC energy              -221.193330108031 Eh    ::
         :: repulsion energy           3.699461924039 Eh    ::

    * Orbital Energies and Occupations

         #    Occupation            Energy/Eh            Energy/eV
      -------------------------------------------------------------
         1        2.0000           -0.7755631             -21.1041
       ...           ...                  ...                  ...
       190        2.0000           -0.4225102             -11.4971
       191        2.0000           -0.4224999             -11.4968
       192        2.0000           -0.4193727             -11.4117
       193        2.0000           -0.4193701             -11.4116
       194        2.0000           -0.4192239             -11.4077
       195        2.0000           -0.4191779             -11.4064
       196        2.0000           -0.4191750             -11.4063
       197        2.0000           -0.4191571             -11.4058
       198        2.0000           -0.4069708             -11.0742
       199        2.0000           -0.4069693             -11.0742
       200        2.0000           -0.4038182             -10.9885
       201        2.0000           -0.3928923             -10.6911
       202        1.0234           -0.3668874              -9.9835 (HOMO)
       203        0.9766           -0.3667983              -9.9811 (LUMO)
       204                         -0.3486738              -9.4879
       205                         -0.3408413              -9.2748
       206                         -0.3408295              -9.2744
       207                         -0.3360123              -9.1434
       208                         -0.3132644              -8.5244
       209                         -0.3102925              -8.4435
       210                         -0.3028725              -8.2416
       211                         -0.3028530              -8.2411
       212                         -0.2986892              -8.1277
       213                         -0.2945221              -8.0144
       ...                                ...                  ...
       422                          1.5084426              41.0468
      -------------------------------------------------------------
                  HL-Gap            0.0000891 Eh            0.0024 eV

Wiberg/Mayer (AO) data.
largest (>0.10) Wiberg bond orders for each atom

     #   Z sym  total        # sym  WBO       # sym  WBO       # sym  WBO
 ---------------------------------------------------------------------------
     1  29 Cu   2.181 --    41 N    0.504     7 N    0.504    20 N    0.501
                            27 N    0.501
     2   6 C    3.930 --     3 C    1.362    40 C    1.362    42 H    0.971
     3   6 C    3.916 --     2 C    1.362     7 N    1.229     4 C    1.170
     4   6 C    3.955 --     5 C    1.657     3 C    1.170    43 H    0.975
     5   6 C    3.958 --     4 C    1.657     6 C    1.171    44 H    0.973
     6   6 C    3.913 --     8 C    1.318     7 N    1.241     5 C    1.171
     7   7 N    3.243 --     6 C    1.241     3 C    1.229     1 Cu   0.504
     8   6 C    3.934 --    17 C    1.325     6 C    1.318     9 C    1.030
     9   6 C    3.963 --    16 C    1.386    10 C    1.385     8 C    1.030
    10   6 C    3.987 --    11 C    1.464     9 C    1.385    45 H    0.971
                            15 C    0.102
    11   6 C    3.993 --    10 C    1.464    12 C    1.364    46 H    0.972
                            16 C    0.102
    12   6 C    3.984 --    15 C    1.364    11 C    1.364    13 C    1.098
    13   6 C    3.958 --    14 N    2.819    12 C    1.098
    14   7 N    2.973 --    13 C    2.819
    15   6 C    3.993 --    16 C    1.463    12 C    1.364    47 H    0.972
                            10 C    0.102
    16   6 C    3.987 --    15 C    1.463     9 C    1.386    48 H    0.971
                            11 C    0.102
    17   6 C    3.908 --     8 C    1.325    20 N    1.224    18 C    1.178
    18   6 C    3.954 --    19 C    1.643    17 C    1.178    49 H    0.973
    19   6 C    3.957 --    18 C    1.643    21 C    1.186    50 H    0.974
    20   7 N    3.247 --    21 C    1.256    17 C    1.224     1 Cu   0.501
    21   6 C    3.898 --    22 C    1.262    20 N    1.256    19 C    1.186
    22   6 C    3.939 --    21 C    1.262    23 C    1.262   118 C    1.182
    23   6 C    3.898 --    22 C    1.262    27 N    1.256    24 C    1.186
    24   6 C    3.956 --    25 C    1.643    23 C    1.186    51 H    0.974
    25   6 C    3.954 --    24 C    1.643    26 C    1.178    52 H    0.973
    26   6 C    3.908 --    28 C    1.325    27 N    1.224    25 C    1.178
    27   7 N    3.247 --    23 C    1.256    26 C    1.224     1 Cu   0.501
    28   6 C    3.934 --    26 C    1.325    37 C    1.318    29 C    1.030
    29   6 C    3.963 --    36 C    1.386    30 C    1.385    28 C    1.030
    30   6 C    3.987 --    31 C    1.464    29 C    1.385    53 H    0.971
                            35 C    0.102
    31   6 C    3.993 --    30 C    1.464    32 C    1.364    54 H    0.972
                            36 C    0.102
    32   6 C    3.984 --    35 C    1.364    31 C    1.364    33 C    1.098
    33   6 C    3.958 --    34 N    2.819    32 C    1.098
    34   7 N    2.973 --    33 C    2.819
    35   6 C    3.993 --    36 C    1.463    32 C    1.364    55 H    0.972
                            30 C    0.102
    36   6 C    3.988 --    35 C    1.463    29 C    1.386    56 H    0.971
                            31 C    0.102
    37   6 C    3.913 --    28 C    1.318    41 N    1.241    38 C    1.171
    38   6 C    3.958 --    39 C    1.657    37 C    1.171    57 H    0.973
    39   6 C    3.955 --    38 C    1.657    40 C    1.170    58 H    0.975
    40   6 C    3.916 --     2 C    1.362    41 N    1.229    39 C    1.170
    41   7 N    3.244 --    37 C    1.241    40 C    1.229     1 Cu   0.504
    42   1 H    1.001 --     2 C    0.971
    43   1 H    0.997 --     4 C    0.975
    44   1 H    1.004 --     5 C    0.973
    45   1 H    1.004 --    10 C    0.971
    46   1 H    1.000 --    11 C    0.972
    47   1 H    1.000 --    15 C    0.972
    48   1 H    1.004 --    16 C    0.971
    49   1 H    1.004 --    18 C    0.973
    50   1 H    1.002 --    19 C    0.974
    51   1 H    1.002 --    24 C    0.974
    52   1 H    1.004 --    25 C    0.973
    53   1 H    1.004 --    30 C    0.971
    54   1 H    1.000 --    31 C    0.972
    55   1 H    1.000 --    35 C    0.972
    56   1 H    1.004 --    36 C    0.971
    57   1 H    1.004 --    38 C    0.973
    58   1 H    0.997 --    39 C    0.975
    59  29 Cu   2.181 --    99 N    0.504    65 N    0.504    78 N    0.501
                            85 N    0.501
    60   6 C    3.930 --    61 C    1.362    98 C    1.362   100 H    0.971
    61   6 C    3.916 --    60 C    1.362    65 N    1.229    62 C    1.170
    62   6 C    3.955 --    63 C    1.657    61 C    1.170   101 H    0.975
    63   6 C    3.958 --    62 C    1.657    64 C    1.171   102 H    0.973
    64   6 C    3.913 --    66 C    1.318    65 N    1.241    63 C    1.171
    65   7 N    3.243 --    64 C    1.241    61 C    1.229    59 Cu   0.504
    66   6 C    3.934 --    75 C    1.325    64 C    1.318    67 C    1.030
    67   6 C    3.963 --    74 C    1.386    68 C    1.385    66 C    1.030
    68   6 C    3.987 --    69 C    1.464    67 C    1.385   103 H    0.971
                            73 C    0.102
    69   6 C    3.993 --    68 C    1.464    70 C    1.364   104 H    0.972
                            74 C    0.102
    70   6 C    3.984 --    73 C    1.364    69 C    1.364    71 C    1.098
    71   6 C    3.958 --    72 N    2.819    70 C    1.098
    72   7 N    2.973 --    71 C    2.819
    73   6 C    3.993 --    74 C    1.463    70 C    1.364   105 H    0.972
                            68 C    0.102
    74   6 C    3.988 --    73 C    1.463    67 C    1.386   106 H    0.971
                            69 C    0.102
    75   6 C    3.908 --    66 C    1.325    78 N    1.224    76 C    1.178
    76   6 C    3.954 --    77 C    1.644    75 C    1.178   107 H    0.973
    77   6 C    3.957 --    76 C    1.644    79 C    1.186   108 H    0.974
    78   7 N    3.247 --    79 C    1.256    75 C    1.224    59 Cu   0.501
    79   6 C    3.898 --    80 C    1.262    78 N    1.256    77 C    1.186
    80   6 C    3.939 --    79 C    1.262    81 C    1.262   120 C    1.182
    81   6 C    3.898 --    80 C    1.262    85 N    1.256    82 C    1.186
    82   6 C    3.956 --    83 C    1.643    81 C    1.186   109 H    0.974
    83   6 C    3.954 --    82 C    1.643    84 C    1.178   110 H    0.973
    84   6 C    3.908 --    86 C    1.325    85 N    1.224    83 C    1.178
    85   7 N    3.247 --    81 C    1.256    84 C    1.224    59 Cu   0.501
    86   6 C    3.934 --    84 C    1.325    95 C    1.318    87 C    1.030
    87   6 C    3.963 --    94 C    1.386    88 C    1.385    86 C    1.030
    88   6 C    3.987 --    89 C    1.464    87 C    1.385   111 H    0.971
                            93 C    0.102
    89   6 C    3.993 --    88 C    1.464    90 C    1.364   112 H    0.972
                            94 C    0.102
    90   6 C    3.984 --    93 C    1.364    89 C    1.364    91 C    1.098
    91   6 C    3.958 --    92 N    2.819    90 C    1.098
    92   7 N    2.973 --    91 C    2.819
    93   6 C    3.993 --    94 C    1.463    90 C    1.364   113 H    0.972
                            88 C    0.102
    94   6 C    3.988 --    93 C    1.463    87 C    1.386   114 H    0.971
                            89 C    0.102
    95   6 C    3.913 --    86 C    1.318    99 N    1.241    96 C    1.171
    96   6 C    3.958 --    97 C    1.657    95 C    1.171   115 H    0.973
    97   6 C    3.955 --    96 C    1.657    98 C    1.170   116 H    0.975
    98   6 C    3.916 --    60 C    1.362    99 N    1.229    97 C    1.170
    99   7 N    3.244 --    95 C    1.241    98 C    1.229    59 Cu   0.504
   100   1 H    1.001 --    60 C    0.971
   101   1 H    0.997 --    62 C    0.975
   102   1 H    1.004 --    63 C    0.973
   103   1 H    1.004 --    68 C    0.971
   104   1 H    1.000 --    69 C    0.972
   105   1 H    1.000 --    73 C    0.972
   106   1 H    1.004 --    74 C    0.971
   107   1 H    1.004 --    76 C    0.973
   108   1 H    1.002 --    77 C    0.974
   109   1 H    1.002 --    82 C    0.974
   110   1 H    1.004 --    83 C    0.973
   111   1 H    1.003 --    88 C    0.971
   112   1 H    1.000 --    89 C    0.972
   113   1 H    1.000 --    93 C    0.972
   114   1 H    1.004 --    94 C    0.971
   115   1 H    1.004 --    96 C    0.973
   116   1 H    0.997 --    97 C    0.975
   117   6 C    3.936 --   118 C    2.484   119 C    1.302
   118   6 C    3.926 --   117 C    2.484    22 C    1.182   120 C    0.199
   119   6 C    3.936 --   120 C    2.484   117 C    1.302
   120   6 C    3.926 --   119 C    2.484    80 C    1.182   118 C    0.199
 ---------------------------------------------------------------------------

           -------------------------------------------------
          | TOTAL ENERGY             -217.603542028442 Eh   |
          | GRADIENT NORM               0.000527119044 Eh/α |
          | HOMO-LUMO GAP               0.002424783045 eV   |
           -------------------------------------------------

 * finished run on 2022/07/30 at 14:23:55.693
