   * xtb version 6.5.1 (b24c23e) compiled by 'conda@728c89f4b128' on 2022-07-12
          program call               : xtb Ni_PhCN_C4_3.xyz --gfn 1 --opt -T 48

   ID    Z sym.   atoms
    1   28 Ni     1, 59, 125
    2    6 C      2-6, 8-13, 15-19, 21-26, 28-33, 35-40, 60-64, 66-71, 73-77,
                  79-84, 86-91, 93-98, 117-124, 126-130, 132-137, 139-143,
                  145-150, 152-157, 159-164
    3    7 N      7, 14, 20, 27, 34, 41, 65, 72, 78, 85, 92, 99, 131, 138,
                  144, 151, 158, 165
    4    1 H      42-58, 100-116, 166-181

          :  Hamiltonian                  GFN1-xTB          :
 * total energy  :  -328.2255683 Eh     change       -0.1318176E-07 Eh
 * total energy  :  -328.5295837 Eh     change       -0.3040154E+00 Eh
 * total energy  :  -328.6493020 Eh     change       -0.1197182E+00 Eh
 * total energy  :  -328.7242328 Eh     change       -0.7493086E-01 Eh
 * total energy  :  -328.7844429 Eh     change       -0.6021005E-01 Eh
 * total energy  :  -328.8180789 Eh     change       -0.3363603E-01 Eh
 * total energy  :  -328.8392454 Eh     change       -0.2116655E-01 Eh
 * total energy  :  -328.8526288 Eh     change       -0.1338335E-01 Eh
 * total energy  :  -328.8656017 Eh     change       -0.1297291E-01 Eh
 * total energy  :  -328.8759718 Eh     change       -0.1037013E-01 Eh
 * total energy  :  -328.9551583 Eh     change       -0.2306914E-04 Eh
 * total energy  :  -328.9551757 Eh     change       -0.1739059E-04 Eh
 * total energy  :  -328.9552075 Eh     change       -0.3178998E-04 Eh
 * total energy  :  -328.9552297 Eh     change       -0.2217826E-04 Eh
 * total energy  :  -328.9552457 Eh     change       -0.1598784E-04 Eh
 * total energy  :  -328.9552612 Eh     change       -0.1547394E-04 Eh
 * total energy  :  -328.9552681 Eh     change       -0.6904648E-05 Eh
 * total energy  :  -328.9552742 Eh     change       -0.6138619E-05 Eh
 * total energy  :  -328.9552773 Eh     change       -0.3057633E-05 Eh
   *** GEOMETRY OPTIMIZATION CONVERGED AFTER 59 ITERATIONS ***

 final structure:
================
181
 xtb: 6.5.1 (b24c23e)
Ni          33.78855930147515        0.03497817968494        0.03523780710441
C           30.39712219333977        0.04741786199242        0.15279302226990
C           31.05212349316184        1.25919119665123        0.22336018212708
C           30.37913498719491        2.51936027664122        0.30683489649876
C           31.33907450850654        3.46352194336005        0.44395723458546
C           32.59755428198115        2.77640120342241        0.46048626711590
N           32.41285923887596        1.42798050087770        0.28567509805681
C           33.81908620926423        3.40008244920875        0.67993148083319
C           33.83449660564175        4.85689462532258        0.95097631465948
C           33.18895903210391        5.37530054676274        2.07573116054916
C           33.20120375826673        6.73499262133895        2.33026135022841
C           33.85759276010229        7.60573663860450        1.45538440897177
C           33.86689569940704        9.00628495806477        1.71076412477648
N           33.87317196776199       10.13841286228656        1.91623963488235
C           34.50415811719652        7.09154411766613        0.32754394496280
C           34.49381492140121        5.73000948288820        0.08298276321918
C           35.02628874207792        2.71402481563423        0.66324750692453
C           36.28946678348302        3.31921856425825        0.95896148151497
C           37.23348135583124        2.36631424139334        0.76935107740892
N           35.19298153004241        1.38834552723839        0.33295651747306
C           36.54500665571080        1.18235613984742        0.36411617585974
C           37.20133652570500        0.01081004264818       -0.02293352851059
C           36.51585155936947       -1.14629140482468       -0.40268556310474
C           37.17255742146600       -2.33085970270872       -0.85562979174825
C           36.20747361312910       -3.26291678360465       -1.04296864723982
C           34.96416506731791       -2.64726262183180       -0.68977614293663
N           35.16222986197270       -1.33205744467536       -0.33483881351755
C           33.74872987628819       -3.31867170446384       -0.66598311547429
C           33.73114032403323       -4.76860966684399       -0.97023489757338
C           33.00761791280301       -5.25507132852295       -2.06138008080988
C           32.98868084591282       -6.60853040578006       -2.34683889178526
C           33.69229020245221       -7.50540064368197       -1.53750325980650
C           33.67159168912250       -8.89938285497631       -1.82577612066288
N           33.65500024788842      -10.02619981514292       -2.05811846832624
C           34.41581362428898       -7.02361131348220       -0.44260121871526
C           34.43515752391306       -5.66826752249123       -0.16659536996543
C           32.54880070728167       -2.68895363467105       -0.35981455856874
C           31.28910458007957       -3.36776205702020       -0.26736034467341
C           30.35007883756636       -2.42131730309830       -0.03460126556331
C           31.03721331613690       -1.16738414650035        0.02377217712843
N           32.38838665372334       -1.34368624530330       -0.14303767029923
H           29.31422306758884        0.05058348439199        0.19443766601490
H           29.30908284155525        2.64469035154293        0.26169466021067
H           31.21942959497483        4.53162624449096        0.52521778429929
H           32.68780800863053        4.70164837781836        2.76160547711942
H           32.70320853538078        7.12987028035698        3.20804016732833
H           35.01144738877647        7.76412882601913       -0.35415031718835
H           34.98728721802775        5.33526373423016       -0.79794714357659
H           36.42512163546564        4.33995513563945        1.27703783932185
H           38.30232140438666        2.44353268025983        0.88654378846631
H           38.23593971838459       -2.42150016213226       -1.00772770384272
H           36.31733655467082       -4.27633898280308       -1.39277384209748
H           32.46959504754258       -4.56127536750872       -2.69742845760790
H           32.42965222090712       -6.97831993907862       -3.19839329089822
H           34.95933856208804       -7.71637735971510        0.18909777390325
H           34.98747259208055       -5.29929142361960        0.69023889287350
H           31.15461947445381       -4.43277380966684       -0.36439356173384
H           29.28544115957124       -2.54082195408389        0.08794126778986
Ni          60.66276498157276        0.00363192248797        0.06190051690183
C           64.05528519956233       -0.00263458254834        0.17648042761959
C           63.40049900634208       -1.20762509701076        0.32229571261225
C           64.07539483240522       -2.45909663320625        0.48448438989361
C           63.11626727269124       -3.39636674782056        0.66601644142102
C           61.85615890279396       -2.71288684865134        0.63009542753856
N           62.03959305743122       -1.37532992625741        0.38424973118168
C           60.63359608666757       -3.33065148785916        0.85863642121422
C           60.61750623694766       -4.77343882483084        1.19736304345678
C           61.23850966751271       -5.23549329459136        2.35980315409690
C           61.22069337928916       -6.58115311846696        2.68017568555283
C           60.58316217688151       -7.49427660316836        1.83509050178222
C           60.56516300745798       -8.88024637969833        2.16000289100365
N           60.54926501850341      -10.00038326875897        2.42249404272549
C           59.96281372410761       -7.03680890128124        0.66878338810556
C           59.97882057645724       -5.68888212945571        0.35808642556299
C           59.42429642737348       -2.65137886128722        0.79193471135186
C           58.15944717857758       -3.25076952585533        1.09322671877161
C           57.21514288658087       -2.30761964420044        0.86302175653756
N           59.25799514059322       -1.33889541643564        0.41340784278836
C           57.90491990028524       -1.13486767431449        0.42788458051379
C           57.24901942289270        0.02757700426708        0.01753478727985
C           57.93129846802461        1.17462917165529       -0.39313905682603
C           57.27001725332541        2.34497960440415       -0.87603619486060
C           58.23477910464022        3.26365668720081       -1.12010359140392
C           59.48274844358295        2.65561346256186       -0.76930282414670
N           59.28687901990484        1.35750861822108       -0.35597270613918
C           60.70174810936974        3.31959187335837       -0.80764046933242
C           60.72008635396735        4.74999338140582       -1.19447632112790
C           61.41379005061186        5.16551472794827       -2.33322624431213
C           61.42992177286499        6.49918578515244       -2.70036934454925
C           60.75367729947359        7.44718736862984       -1.92671799520311
C           60.77067391654621        8.82078869389287       -2.30066279359545
N           60.78571834717395        9.93072884335288       -2.60350425867276
C           60.06170495131096        7.03679787328961       -0.78349185598670
C           60.04495054221601        5.70060258395954       -0.42565177545735
C           61.90444878591829        2.70112590204744       -0.49081936410795
C           63.16688577863618        3.38031816679868       -0.45514521967221
C           64.10570649482388        2.44760107988212       -0.17231312674218
C           63.41602088623220        1.20182020784809       -0.02922328166686
N           62.06387027238499        1.37069464979547       -0.19579977993628
H           65.13821537469491       -0.00359030434641        0.21754728402643
H           65.14608034135799       -2.58393981411984        0.45606730062652
H           63.23720732860840       -4.45779040152827        0.80919724161667
H           61.72410917727416       -4.52854756641024        3.02295121191903
H           61.69897769861075       -6.93208484588042        3.58709351517509
H           59.47068388742512       -7.74238859889101        0.00975016556892
H           59.50509203343443       -5.33820460088174       -0.55183740629511
H           58.02298225224252       -4.26081950768381        1.44335759974331
H           56.14542599103617       -2.38367636110229        0.97246303778297
H           56.20412364501276        2.43477270907188       -1.00981775033157
H           58.12174969913114        4.26300748259154       -1.50728674888970
H           61.93014847724216        4.43138103064061       -2.94136664096782
H           61.96494878934442        6.81367323707046       -3.58876741316033
H           59.53999959467035        7.76947979466622       -0.17905990458713
H           59.51677951185901        5.38717358754970        0.46771627375780
H           63.30252730027090        4.43684361203918       -0.61986554565021
H           65.17173298590919        2.57123511557909       -0.06716363919039
C           39.82855631166374       -0.01019483278822       -0.04556588784321
C           38.60707972083161       -0.00027316502111       -0.03764357981109
C           41.17909984069442       -0.01126769239103       -0.05252378289381
C           42.40070128239407       -0.00604334033585       -0.05519337642007
C           53.26826282777392        0.04698106028761       -0.01152648539501
C           52.04735227586977        0.04355036413162       -0.01899797041049
C           54.62032100519792        0.04484052384141       -0.00145623665116
C           55.84111916523069        0.03851871958196        0.00667354154718
Ni          47.22335451182940        0.02169590881534       -0.04672209083968
C           43.80608760320600        0.00179870052254       -0.05564434760545
C           44.48622881482853       -1.18258456648457       -0.35241714761792
C           43.82361672393850       -2.41786034193584       -0.62482614928083
C           44.78465938750413       -3.30395066850711       -0.98134196830628
C           46.03111185750186       -2.60237113753045       -0.93339386590694
N           45.83955593316107       -1.30799391654052       -0.50666886950214
C           47.24516655235701       -3.15413223537678       -1.32035241751622
C           47.25417021435154       -4.52838028155600       -1.87457335312736
C           46.56212973558812       -4.82060103921430       -3.05195493442042
C           46.57172389106783       -6.10131695412999       -3.57475075116582
C           47.27172252825142       -7.11972069585472       -2.92106657872722
C           47.28104250800971       -8.43969830250428       -3.45441499127739
N           47.28875115397147       -9.50647671526887       -3.88566943668777
C           47.96265768226979       -6.83280904947927       -1.74008297809068
C           47.95482312295610       -5.54821311347859       -1.22684740699291
C           48.45136265679977       -2.47503355828212       -1.20930946986398
C           49.70732032450504       -3.00287375105340       -1.64800365491102
C           50.65652010060297       -2.10849414245920       -1.28107791400700
N           48.62519215278507       -1.24376537625140       -0.62003080359842
C           49.97712394012902       -1.03384552886271       -0.63061646054763
C           50.64004359817259        0.03813974160253       -0.02840976028842
C           49.96014256522977        1.10396518506594        0.56559478468827
C           50.62194770271896        2.18463139155661        1.22406769243537
C           49.66040339040702        3.07055257036039        1.57918732277645
C           48.41462854142179        2.53178028656046        1.12492704539788
N           48.60655318485579        1.30167883266175        0.53882238277393
C           47.20113370554834        3.20055207954156        1.21988331600424
C           47.19145128679686        4.57542844324844        1.77186958684072
C           46.47372542098611        4.86562344358212        2.93438505798191
C           46.46660536468364        6.14669726356699        3.45621712005175
C           47.17608437503079        7.16766198849323        2.81697968496457
C           47.16825001597963        8.48771318857477        3.35012247916374
N           47.16138165076918        9.55575015707852        3.77842287689225
C           47.89304657266477        6.88292452287170        1.65105165527452
C           47.90102365607400        5.59812677911241        1.13832868577055
C           45.99655671088723        2.63565887903344        0.82194319295736
C           44.74229663215596        3.32398940454267        0.85642797944333
C           43.79320367696734        2.42463489652102        0.50095540861453
C           44.47107114304852        1.19521697536283        0.24022750233915
N           45.82197816575243        1.33697082121862        0.40093530857319
H           42.75916064733187       -2.57113834319324       -0.55042462562884
H           44.67019176117160       -4.34146871137507       -1.24950140764104
H           46.02687732795338       -4.03065325750885       -3.56659324776835
H           46.03824530101254       -6.31956397086698       -4.49244876991392
H           48.50293627053163       -7.62086580973593       -1.22875451326681
H           48.48310762824196       -5.33108727093126       -0.30536669138481
H           49.83583437836014       -3.93573922594696       -2.17210916318628
H           51.72301257660070       -2.15777157187238       -1.43014978610937
H           51.68606558562805        2.24337273181589        1.38612043980134
H           49.77453046882569        4.00406597683738        2.10542432640126
H           45.93169471214362        4.07373162278236        3.43882072836075
H           45.91284872569491        6.36320928403976        4.36223155540420
H           48.44119772448884        7.67276655846705        1.15098335904717
H           48.44912299234079        5.38304510442274        0.22800365461956
H           44.61452653225819        4.36227853515822        1.11540609414113
H           42.72763760212792        2.56580110233005        0.41894823876504

          :  Hamiltonian                  GFN1-xTB          :
         :: total energy            -328.955277254936 Eh    ::
         :: gradient norm              0.000801277303 Eh/a0 ::
         :: HOMO-LUMO gap              1.095597963830 eV    ::
         :: SCC energy              -334.496122549020 Eh    ::
         :: repulsion energy           5.709663064355 Eh    ::

    * Orbital Energies and Occupations

         #    Occupation            Energy/Eh            Energy/eV
      -------------------------------------------------------------
         1        2.0000           -0.7953189             -21.6417
       ...           ...                  ...                  ...
       293        2.0000           -0.4107876             -11.1781
       294        2.0000           -0.4107819             -11.1779
       295        2.0000           -0.4103768             -11.1669
       296        2.0000           -0.4102705             -11.1640
       297        2.0000           -0.4098921             -11.1537
       298        2.0000           -0.4098653             -11.1530
       299        2.0000           -0.4091478             -11.1335
       300        2.0000           -0.4088269             -11.1247
       301        2.0000           -0.4088244             -11.1247
       302        2.0000           -0.4087470             -11.1226
       303        2.0000           -0.4087395             -11.1224
       304        2.0000           -0.4027997             -10.9607
       305        2.0000           -0.3957795             -10.7697 (HOMO)
       306                         -0.3555171              -9.6741 (LUMO)
       307                         -0.3463570              -9.4249
       308                         -0.3448393              -9.3836
       309                         -0.3436237              -9.3505
       310                         -0.3435391              -9.3482
       311                         -0.3426528              -9.3241
       312                         -0.3412655              -9.2863
       313                         -0.3409876              -9.2787
       314                         -0.3395965              -9.2409
       315                         -0.3191845              -8.6855
       316                         -0.3141657              -8.5489
       ...                                ...                  ...
       639                          1.5050159              40.9536
      -------------------------------------------------------------
                  HL-Gap            0.0402625 Eh            1.0956 eV

Wiberg/Mayer (AO) data.
largest (>0.10) Wiberg bond orders for each atom

     #   Z sym  total        # sym  WBO       # sym  WBO       # sym  WBO
 ---------------------------------------------------------------------------
     1  28 Ni   3.012 --    41 N    0.664     7 N    0.664    27 N    0.661
                            20 N    0.661
     2   6 C    3.935 --    40 C    1.365     3 C    1.364    42 H    0.970
     3   6 C    3.922 --     2 C    1.364     7 N    1.213     4 C    1.175
     4   6 C    3.960 --     5 C    1.650     3 C    1.175    43 H    0.975
     5   6 C    3.963 --     4 C    1.650     6 C    1.176    44 H    0.973
     6   6 C    3.920 --     8 C    1.322     7 N    1.222     5 C    1.176
     7   7 N    3.401 --     6 C    1.222     3 C    1.213     1 Ni   0.664
     8   6 C    3.938 --    17 C    1.327     6 C    1.322     9 C    1.028
     9   6 C    3.963 --    16 C    1.386    10 C    1.386     8 C    1.028
    10   6 C    3.988 --    11 C    1.463     9 C    1.386    45 H    0.971
                            15 C    0.102
    11   6 C    3.993 --    10 C    1.463    12 C    1.365    46 H    0.972
                            16 C    0.102
    12   6 C    3.985 --    11 C    1.365    15 C    1.365    13 C    1.098
    13   6 C    3.958 --    14 N    2.820    12 C    1.098
    14   7 N    2.973 --    13 C    2.820
    15   6 C    3.993 --    16 C    1.463    12 C    1.365    47 H    0.972
                            10 C    0.102
    16   6 C    3.988 --    15 C    1.463     9 C    1.386    48 H    0.971
                            11 C    0.102
    17   6 C    3.915 --     8 C    1.327    20 N    1.207    18 C    1.184
    18   6 C    3.959 --    19 C    1.636    17 C    1.184    49 H    0.973
    19   6 C    3.961 --    18 C    1.636    21 C    1.191    50 H    0.973
    20   7 N    3.405 --    21 C    1.238    17 C    1.207     1 Ni   0.661
    21   6 C    3.904 --    22 C    1.264    20 N    1.238    19 C    1.191
    22   6 C    3.944 --    21 C    1.264    23 C    1.264   118 C    1.182
    23   6 C    3.904 --    22 C    1.264    27 N    1.238    24 C    1.191
    24   6 C    3.961 --    25 C    1.636    23 C    1.191    51 H    0.973
    25   6 C    3.959 --    24 C    1.636    26 C    1.183    52 H    0.973
    26   6 C    3.915 --    28 C    1.327    27 N    1.207    25 C    1.183
    27   7 N    3.405 --    23 C    1.238    26 C    1.207     1 Ni   0.661
    28   6 C    3.938 --    26 C    1.327    37 C    1.321    29 C    1.029
    29   6 C    3.963 --    30 C    1.386    36 C    1.386    28 C    1.029
    30   6 C    3.988 --    31 C    1.463    29 C    1.386    53 H    0.971
                            35 C    0.102
    31   6 C    3.993 --    30 C    1.463    32 C    1.364    54 H    0.972
                            36 C    0.102
    32   6 C    3.985 --    31 C    1.364    35 C    1.364    33 C    1.098
    33   6 C    3.958 --    34 N    2.820    32 C    1.098
    34   7 N    2.973 --    33 C    2.820
    35   6 C    3.993 --    36 C    1.463    32 C    1.364    55 H    0.972
                            30 C    0.102
    36   6 C    3.988 --    35 C    1.463    29 C    1.386    56 H    0.971
                            31 C    0.102
    37   6 C    3.919 --    28 C    1.321    41 N    1.223    38 C    1.176
    38   6 C    3.963 --    39 C    1.650    37 C    1.176    57 H    0.973
    39   6 C    3.959 --    38 C    1.650    40 C    1.174    58 H    0.975
    40   6 C    3.922 --     2 C    1.365    41 N    1.212    39 C    1.174
    41   7 N    3.402 --    37 C    1.223    40 C    1.212     1 Ni   0.664
    42   1 H    1.000 --     2 C    0.970
    43   1 H    0.997 --     4 C    0.975
    44   1 H    1.004 --     5 C    0.973
    45   1 H    1.003 --    10 C    0.971
    46   1 H    1.000 --    11 C    0.972
    47   1 H    1.000 --    15 C    0.972
    48   1 H    1.003 --    16 C    0.971
    49   1 H    1.004 --    18 C    0.973
    50   1 H    1.002 --    19 C    0.973
    51   1 H    1.002 --    24 C    0.973
    52   1 H    1.004 --    25 C    0.973
    53   1 H    1.003 --    30 C    0.971
    54   1 H    1.000 --    31 C    0.972
    55   1 H    1.000 --    35 C    0.972
    56   1 H    1.003 --    36 C    0.971
    57   1 H    1.004 --    38 C    0.973
    58   1 H    0.997 --    39 C    0.975
    59  28 Ni   3.010 --    99 N    0.664    65 N    0.664    78 N    0.661
                            85 N    0.660
    60   6 C    3.936 --    98 C    1.365    61 C    1.364   100 H    0.970
    61   6 C    3.922 --    60 C    1.364    65 N    1.213    62 C    1.174
    62   6 C    3.960 --    63 C    1.650    61 C    1.174   101 H    0.975
    63   6 C    3.963 --    62 C    1.650    64 C    1.176   102 H    0.973
    64   6 C    3.920 --    66 C    1.323    65 N    1.222    63 C    1.176
    65   7 N    3.403 --    64 C    1.222    61 C    1.213    59 Ni   0.664
    66   6 C    3.939 --    75 C    1.326    64 C    1.323    67 C    1.028
    67   6 C    3.963 --    68 C    1.386    74 C    1.386    66 C    1.028
    68   6 C    3.988 --    69 C    1.463    67 C    1.386   103 H    0.971
                            73 C    0.102
    69   6 C    3.993 --    68 C    1.463    70 C    1.365   104 H    0.972
                            74 C    0.102
    70   6 C    3.985 --    69 C    1.365    73 C    1.365    71 C    1.098
    71   6 C    3.958 --    72 N    2.820    70 C    1.098
    72   7 N    2.973 --    71 C    2.820
    73   6 C    3.993 --    74 C    1.463    70 C    1.365   105 H    0.972
                            68 C    0.102
    74   6 C    3.988 --    73 C    1.463    67 C    1.386   106 H    0.971
                            69 C    0.102
    75   6 C    3.915 --    66 C    1.326    78 N    1.209    76 C    1.183
    76   6 C    3.960 --    77 C    1.637    75 C    1.183   107 H    0.973
    77   6 C    3.961 --    76 C    1.637    79 C    1.190   108 H    0.973
    78   7 N    3.406 --    79 C    1.236    75 C    1.209    59 Ni   0.661
    79   6 C    3.906 --    80 C    1.269    78 N    1.236    77 C    1.190
    80   6 C    3.945 --    79 C    1.269    81 C    1.269   124 C    1.172
    81   6 C    3.906 --    80 C    1.269    85 N    1.236    82 C    1.190
    82   6 C    3.961 --    83 C    1.637    81 C    1.190   109 H    0.973
    83   6 C    3.960 --    82 C    1.637    84 C    1.183   110 H    0.973
    84   6 C    3.915 --    86 C    1.327    85 N    1.208    83 C    1.183
    85   7 N    3.406 --    81 C    1.236    84 C    1.208    59 Ni   0.660
    86   6 C    3.939 --    84 C    1.327    95 C    1.322    87 C    1.028
    87   6 C    3.963 --    88 C    1.386    94 C    1.386    86 C    1.028
    88   6 C    3.988 --    89 C    1.463    87 C    1.386   111 H    0.971
                            93 C    0.102
    89   6 C    3.993 --    88 C    1.463    90 C    1.364   112 H    0.972
                            94 C    0.102
    90   6 C    3.985 --    93 C    1.365    89 C    1.364    91 C    1.098
    91   6 C    3.958 --    92 N    2.820    90 C    1.098
    92   7 N    2.973 --    91 C    2.820
    93   6 C    3.993 --    94 C    1.463    90 C    1.365   113 H    0.972
                            88 C    0.102
    94   6 C    3.988 --    93 C    1.463    87 C    1.386   114 H    0.971
                            89 C    0.102
    95   6 C    3.920 --    86 C    1.322    99 N    1.223    96 C    1.176
    96   6 C    3.963 --    97 C    1.650    95 C    1.176   115 H    0.973
    97   6 C    3.960 --    96 C    1.650    98 C    1.174   116 H    0.975
    98   6 C    3.922 --    60 C    1.365    99 N    1.212    97 C    1.174
    99   7 N    3.403 --    95 C    1.223    98 C    1.212    59 Ni   0.664
   100   1 H    1.000 --    60 C    0.970
   101   1 H    0.997 --    62 C    0.975
   102   1 H    1.004 --    63 C    0.973
   103   1 H    1.003 --    68 C    0.971
   104   1 H    1.000 --    69 C    0.972
   105   1 H    1.000 --    73 C    0.972
   106   1 H    1.003 --    74 C    0.971
   107   1 H    1.004 --    76 C    0.973
   108   1 H    1.002 --    77 C    0.973
   109   1 H    1.002 --    82 C    0.973
   110   1 H    1.004 --    83 C    0.973
   111   1 H    1.003 --    88 C    0.971
   112   1 H    1.000 --    89 C    0.972
   113   1 H    1.000 --    93 C    0.972
   114   1 H    1.003 --    94 C    0.971
   115   1 H    1.004 --    96 C    0.973
   116   1 H    0.997 --    97 C    0.975
   117   6 C    3.938 --   118 C    2.484   119 C    1.304
   118   6 C    3.926 --   117 C    2.484    22 C    1.182   120 C    0.200
   119   6 C    3.936 --   120 C    2.483   117 C    1.304
   120   6 C    3.928 --   119 C    2.483   126 C    1.183   118 C    0.200
   121   6 C    3.935 --   122 C    2.491   123 C    1.295
   122   6 C    3.924 --   121 C    2.491   146 C    1.175   124 C    0.198
   123   6 C    3.937 --   124 C    2.492   121 C    1.295
   124   6 C    3.923 --   123 C    2.492    80 C    1.172   122 C    0.198
   125  28 Ni   3.002 --   165 N    0.660   131 N    0.660   151 N    0.660
                           144 N    0.660
   126   6 C    3.936 --   127 C    1.263   164 C    1.262   120 C    1.183
   127   6 C    3.904 --   126 C    1.263   131 N    1.239   128 C    1.192
   128   6 C    3.960 --   129 C    1.634   127 C    1.192   166 H    0.973
   129   6 C    3.959 --   128 C    1.634   130 C    1.185   167 H    0.973
   130   6 C    3.913 --   132 C    1.325   131 N    1.206   129 C    1.185
   131   7 N    3.400 --   127 C    1.239   130 C    1.206   125 Ni   0.660
   132   6 C    3.934 --   130 C    1.325   141 C    1.324   133 C    1.028
   133   6 C    3.963 --   134 C    1.386   140 C    1.386   132 C    1.028
   134   6 C    3.988 --   135 C    1.463   133 C    1.386   168 H    0.971
                           139 C    0.102
   135   6 C    3.993 --   134 C    1.463   136 C    1.365   169 H    0.972
                           140 C    0.102
   136   6 C    3.985 --   139 C    1.365   135 C    1.365   137 C    1.098
   137   6 C    3.958 --   138 N    2.820   136 C    1.098
   138   7 N    2.973 --   137 C    2.820
   139   6 C    3.993 --   140 C    1.463   136 C    1.365   170 H    0.972
                           134 C    0.102
   140   6 C    3.988 --   139 C    1.463   133 C    1.386   171 H    0.971
                           135 C    0.102
   141   6 C    3.913 --   132 C    1.324   144 N    1.207   142 C    1.185
   142   6 C    3.960 --   143 C    1.635   141 C    1.185   172 H    0.973
   143   6 C    3.960 --   142 C    1.635   145 C    1.191   173 H    0.973
   144   7 N    3.400 --   145 C    1.237   141 C    1.207   125 Ni   0.660
   145   6 C    3.906 --   146 C    1.266   144 N    1.237   143 C    1.191
   146   6 C    3.935 --   147 C    1.267   145 C    1.266   122 C    1.175
   147   6 C    3.906 --   146 C    1.267   151 N    1.237   148 C    1.191
   148   6 C    3.960 --   149 C    1.635   147 C    1.191   174 H    0.973
   149   6 C    3.960 --   148 C    1.635   150 C    1.185   175 H    0.973
   150   6 C    3.913 --   152 C    1.324   151 N    1.207   149 C    1.185
   151   7 N    3.400 --   147 C    1.237   150 C    1.207   125 Ni   0.660
   152   6 C    3.935 --   161 C    1.325   150 C    1.324   153 C    1.029
   153   6 C    3.963 --   154 C    1.386   160 C    1.386   152 C    1.029
   154   6 C    3.988 --   155 C    1.463   153 C    1.386   176 H    0.971
                           159 C    0.102
   155   6 C    3.993 --   154 C    1.463   156 C    1.365   177 H    0.972
                           160 C    0.102
   156   6 C    3.985 --   155 C    1.365   159 C    1.364   157 C    1.098
   157   6 C    3.958 --   158 N    2.820   156 C    1.098
   158   7 N    2.973 --   157 C    2.820
   159   6 C    3.993 --   160 C    1.463   156 C    1.364   178 H    0.972
                           154 C    0.102
   160   6 C    3.988 --   159 C    1.463   153 C    1.386   179 H    0.971
                           155 C    0.102
   161   6 C    3.913 --   152 C    1.325   165 N    1.206   162 C    1.185
   162   6 C    3.959 --   163 C    1.634   161 C    1.185   180 H    0.973
   163   6 C    3.960 --   162 C    1.634   164 C    1.192   181 H    0.973
   164   6 C    3.904 --   126 C    1.262   165 N    1.239   163 C    1.192
   165   7 N    3.400 --   164 C    1.239   161 C    1.206   125 Ni   0.660
   166   1 H    1.002 --   128 C    0.973
   167   1 H    1.004 --   129 C    0.973
   168   1 H    1.003 --   134 C    0.971
   169   1 H    1.000 --   135 C    0.972
   170   1 H    1.000 --   139 C    0.972
   171   1 H    1.003 --   140 C    0.971
   172   1 H    1.004 --   142 C    0.973
   173   1 H    1.001 --   143 C    0.973
   174   1 H    1.001 --   148 C    0.973
   175   1 H    1.004 --   149 C    0.973
   176   1 H    1.003 --   154 C    0.971
   177   1 H    1.000 --   155 C    0.972
   178   1 H    1.000 --   159 C    0.972
   179   1 H    1.003 --   160 C    0.971
   180   1 H    1.004 --   162 C    0.973
   181   1 H    1.002 --   163 C    0.973
 ---------------------------------------------------------------------------

           -------------------------------------------------
          | TOTAL ENERGY             -328.955277254936 Eh   |
          | GRADIENT NORM               0.000801277303 Eh/α |
          | HOMO-LUMO GAP               1.095597963830 eV   |
           -------------------------------------------------

 * finished run on 2022/07/30 at 11:34:30.502
