   * xtb version 6.5.1 (b24c23e) compiled by 'conda@728c89f4b128' on 2022-07-12
          program call               : xtb Cu_Ph2OMe_C4_3.xyz --gfn 1 --opt -T 48

   ID    Z sym.   atoms
    1   29 Cu     1, 73, 153
    2    6 C      2-6, 8-11, 13-21, 23-27, 29-33, 36, 37, 39-43, 45, 74-78,
                  80-83, 85-93, 95-99, 101-105, 108, 109, 111-115, 117,
                  145-152, 154-158, 160-163, 165-173, 175-179, 181-185, 188,
                  189, 191-195, 197
    3    7 N      7, 12, 34, 35, 79, 84, 106, 107, 159, 164, 186, 187
    4    8 O      22, 28, 38, 44, 94, 100, 110, 116, 174, 180, 190, 196
    5    1 H      46-72, 118-144, 198-223

          :  Hamiltonian                  GFN1-xTB          :
 * total energy  :  -395.6624323 Eh     change        0.1131883E-07 Eh
 * total energy  :  -395.8864189 Eh     change       -0.2239866E+00 Eh
 * total energy  :  -395.9645934 Eh     change       -0.7817453E-01 Eh
 * total energy  :  -396.0107232 Eh     change       -0.4612983E-01 Eh
 * total energy  :  -396.0324663 Eh     change       -0.2174308E-01 Eh
 * total energy  :  -396.0474893 Eh     change       -0.1502296E-01 Eh
 * total energy  :  -396.0588990 Eh     change       -0.1140971E-01 Eh
 * total energy  :  -396.0736637 Eh     change       -0.1476474E-01 Eh
 * total energy  :  -396.0947925 Eh     change       -0.2112882E-01 Eh
 * total energy  :  -396.1188436 Eh     change       -0.2405109E-01 Eh
 * total energy  :  -396.4671051 Eh     change       -0.4457847E-04 Eh
 * total energy  :  -396.4671540 Eh     change       -0.4888909E-04 Eh
 * total energy  :  -396.4671902 Eh     change       -0.3618393E-04 Eh
 * total energy  :  -396.4672116 Eh     change       -0.2140887E-04 Eh
 * total energy  :  -396.4672322 Eh     change       -0.2064737E-04 Eh
 * total energy  :  -396.4672441 Eh     change       -0.1181342E-04 Eh
 * total energy  :  -396.4672622 Eh     change       -0.1810371E-04 Eh
 * total energy  :  -396.4672706 Eh     change       -0.8463450E-05 Eh
 * total energy  :  -396.4672754 Eh     change       -0.4779137E-05 Eh
   *** GEOMETRY OPTIMIZATION CONVERGED AFTER 94 ITERATIONS ***

 final structure:
================
223
 xtb: 6.5.1 (b24c23e)
Cu          31.14260806493646        0.10462271507578       -0.04501134011778
C           27.73567446694942        0.19228213163921       -0.11318619229031
C           28.36447698195702        1.03856900203190        0.78820529856778
C           27.68407474698095        1.92029747634538        1.69418044705443
C           28.63880377852233        2.55994757886209        2.41413751946491
C           29.91143879960953        2.07932212590109        1.95029895327378
N           29.71334833877416        1.15756312346724        0.96291850318799
C           31.15037476867903        2.47695127649555        2.45348997204151
C           32.38515068828386        1.99286384757255        2.02297191719827
C           33.65738063756891        2.43355595191931        2.52031398935492
C           34.61073425967844        1.75397319848551        1.83435324261602
N           32.58382068487602        1.05448130408905        1.04509235469747
C           33.92864681141325        0.89577918497190        0.91148445803276
C           34.57239322487818        0.03824393287717        0.00293806886102
C           33.92148028838456       -0.80242238203784       -0.91619863352932
C           34.59531209801720       -1.69976014889295       -1.80734524201757
C           33.63577785121057       -2.35590318074573       -2.50729508841127
C           32.36814692018268       -1.85757802095520       -2.05451942618998
C           31.12771691286166       -2.29434781082174       -2.51835456164086
C           31.12102892478868       -3.34751279566805       -3.57400715007122
C           31.54755610074656       -3.05450083189123       -4.87591501053839
O           31.94070366177566       -1.77198906191955       -5.09772675602928
C           32.41341337694629       -1.37847950246560       -6.36986449549195
C           31.54317313723208       -4.04330868235780       -5.85937798754840
C           31.11669039736493       -5.32247031598940       -5.53586845856304
C           30.69145357711967       -5.63653527305283       -4.25393026368025
C           30.69145987879581       -4.64651128650510       -3.27182346981925
O           30.30111866817800       -4.85907703150089       -1.98677047249447
C           29.84885488464572       -6.13375142980220       -1.57792333635818
C           29.89203108508990       -1.82658196497796       -2.06983005719409
C           28.61578717838946       -2.24511445648199       -2.58156247188294
C           27.66763250488975       -1.54499602090050       -1.91087630400864
C           28.35589977628937       -0.69044140699189       -0.98508336483082
N           29.70266229568140       -0.88247781089571       -1.10210707832700
N           32.57574610756613       -0.91214398098007       -1.08520702617613
C           31.15622879272609        3.50339075677980        3.53530435865203
C           31.50854497993628        3.15094900240452        4.84468260726361
O           31.81759341858841        1.84203080520989        5.04402555417699
C           32.19988906600298        1.38387194615162        6.32478096215162
C           31.51854022833831        4.11144377762790        5.85566039585829
C           31.18012009945850        5.42149093695894        5.55204331171284
C           30.82831369681363        5.79389610786392        4.26351531230553
C           30.81401170625409        4.83228804833345        3.25352069622800
O           30.48974448384094        5.10080516057061        1.96062476048900
C           30.14179204290907        6.41285489198245        1.56806001178299
H           26.65094423674389        0.22114420101144       -0.13609726341910
H           26.61210757335620        2.02176044751047        1.76317628626455
H           28.50336024604903        3.29234428053299        3.19390693515319
H           33.79638047613621        3.17241827489269        3.29305796034875
H           35.68244980000046        1.82274252185779        1.93333252189351
H           35.66591104971269       -1.81074989649308       -1.87517264081267
H           33.76788635565661       -3.11293615495796       -3.26340611192617
H           31.63991960908034       -1.49170776538136       -7.13927840410286
H           32.67954762726018       -0.32345361573443       -6.28217084938299
H           33.30214328046553       -1.95064527563026       -6.66277304310992
H           31.86725622887401       -3.82596684141898       -6.86835215894351
H           31.11576374903394       -6.09212875376677       -6.29993435531405
H           30.36617366376175       -6.64348800438596       -4.02910561366317
H           29.59422950286836       -6.04109297056948       -0.52045320822658
H           28.95700343515177       -6.44226342751212       -2.13697228479129
H           30.63051180324002       -6.89433867587526       -1.69444865152362
H           28.47371560848945       -2.97913573900433       -3.35862798188996
H           26.59560251612528       -1.58963012654820       -2.02459335761695
H           32.40383846242013        0.31688861837607        6.21733308616003
H           31.39690034778283        1.52463060665846        7.05858822791654
H           33.10649420142277        1.88973281265177        6.67845319719883
H           31.78640468994880        3.84871686325577        6.87030277722457
H           31.19056866354364        6.16918791448963        6.33755071526863
H           30.56992907657116        6.82355588245691        4.05523174058467
H           30.96544573674539        7.11604303203779        1.74162192901279
H           29.93172143307531        6.36430198073341        0.49792713292963
H           29.24681088020075        6.76620596731454        2.09463587561365
Cu          58.09316883252744       -0.00610588383358       -0.09173142478914
C           61.49494368092995        0.16434568256524       -0.22392073582651
C           60.86930472311057       -0.59970012769018       -1.19805104682494
C           61.55176173091458       -1.32902798670495       -2.22931237047197
C           60.60018197819781       -1.95085828706490       -2.96876847757112
C           59.32711581607931       -1.60065506261517       -2.40095631030275
N           59.52221558752221       -0.78173555407069       -1.32611684624323
C           58.09034693173238       -2.04469956053876       -2.86971115536767
C           56.85537999196185       -1.71951169819555       -2.30957795145938
C           55.58428663262319       -2.14046512375023       -2.82642787997361
C           54.63010368152327       -1.60080706040624       -2.02660465691955
N           56.65519737324009       -0.93182864017477       -1.20693092486860
C           55.31064190195707       -0.84663935891494       -1.01602242806018
C           54.66625425663090       -0.14008831908545        0.01413084418475
C           55.31648418136736        0.60173761763482        1.01557579052626
C           54.64358499772269        1.29001741945669        2.07702346923769
C           55.60116759970163        1.89150214425377        2.82714725971760
C           56.86612307073654        1.58000659665701        2.22486786183731
C           58.10345755346258        2.01150098104894        2.70130016532658
C           58.10523613990443        2.88785881405401        3.90794376396448
C           57.63853686796315        4.20640127194053        3.82638873603932
O           57.21387562044328        4.61111925617498        2.59997847951954
C           56.70396444394309        5.91574338545569        2.41372022262600
C           57.63692832283154        5.02539859626000        4.95514121093390
C           58.09786075158763        4.52102042472214        6.16177713293793
C           58.56352051693965        3.21909525425530        6.26688656753363
C           58.56936611395027        2.40167622637585        5.13697822506764
O           58.99873393855506        1.11144296647987        5.14117485684535
C           59.48051648908499        0.52215094023913        6.33157930608526
C           59.33812512503989        1.69259070094453        2.13545033279157
C           60.60996988480283        2.16802161343900        2.60656038861196
C           61.55797673590366        1.65231184023685        1.78532749728694
C           60.87365125547554        0.86067089138921        0.80240524132753
N           59.52948685041164        0.90300917765223        1.03820053120218
N           56.65967331177360        0.78804904488931        1.12641067397954
C           58.08663190687864       -2.93334470203444       -4.06720412652365
C           57.74480317802724       -4.28649421147370       -3.94338855463190
O           57.44334848039344       -4.71002174788673       -2.68717433552518
C           57.06917909298140       -6.05273204120847       -2.45518727331782
C           57.73756433461477       -5.11798430460358       -5.06288657939355
C           58.06798352396453       -4.59196565425107       -6.30262109231247
C           58.40905322305741       -3.25602581005267       -6.44979744398500
C           58.42072849063763       -2.42565717427550       -5.32940315008236
O           58.73452644690092       -1.10330042008964       -5.37387346888386
C           59.08017491844035       -0.49111261917342       -6.59955006188397
H           62.57794794714533        0.22091288311013       -0.26755483458722
H           62.62296622212236       -1.35662199823866       -2.35554703507385
H           60.73818655957350       -2.59220719315740       -3.82455845758318
H           55.44647682875495       -2.76566392458795       -3.69389971995878
H           53.55885652855857       -1.69783193340978       -2.10485609335419
H           53.57509769536060        1.30121248318382        2.22299630400456
H           55.46964894044360        2.49320401519063        3.71203688060777
H           57.46146557653680        6.67861332660932        2.63139745714542
H           56.41948315665051        5.98348600413147        1.36200790601600
H           55.81997099574681        6.09454564429663        3.03785285064555
H           57.28173059400913        6.04583359732556        4.90174077635777
H           58.09414588056993        5.15704699737104        7.04020464248479
H           58.91557791686417        2.85163969344361        7.22152595323701
H           59.75925120982211       -0.50112868423243        6.07301318869957
H           60.36317134437711        1.04996132389072        6.71296666250087
H           58.70803659291322        0.49889872421878        7.10992239152753
H           60.74930400797851        2.81562658329601        3.45745181897932
H           62.62732635925001        1.79005444099828        1.82644282302519
H           56.86734169391228       -6.13134415200563       -1.38529021391917
H           57.87579304473749       -6.74695490875560       -2.72105384704131
H           56.16311603836082       -6.31953654487426       -3.01272399093051
H           57.47814844347868       -6.16469138113912       -4.97700762593098
H           58.05981406886561       -5.23790194603702       -7.17375129678438
H           58.66118130657846       -2.87240495544447       -7.42938244160441
H           58.25718758939215       -0.54602881759287       -7.32253340396007
H           59.28525214436947        0.55603317234710       -6.36910746052986
H           59.97753202627539       -0.94554735300887       -7.03701067303545
C           37.20195299574679        0.00566807027145        0.02449827718880
C           35.98059451539112        0.01840829832969        0.01604490258337
C           38.55353883668901       -0.00740048706318        0.03207062924622
C           39.77502688925055       -0.01727839404788        0.03756836550115
C           50.68629153315042       -0.17262572253993        0.05881402462155
C           49.46467927633204       -0.15717508621638        0.05981143116926
C           52.03746829017248       -0.17475495532979        0.05248411777831
C           53.25902127379668       -0.16925737486196        0.04009816626499
Cu          44.61993795238659       -0.07185031202566        0.04889289064770
C           41.18282636529963       -0.03043401496576        0.04103680048761
C           41.82905321158466        0.00597879690182        1.28887837611429
C           41.14923368554116        0.02505140674504        2.54991922433509
C           42.10501590100728        0.04371436510526        3.51324700100181
C           43.37550841896762        0.04293641662422        2.84624781105197
N           43.17426167941552        0.01778289425746        1.49188283302426
C           44.61402834639429        0.04683708937059        3.48766852008046
C           45.85467426865567        0.01348236622633        2.85096218251123
C           47.12255667023767        0.06189169776922        3.52109972325081
C           48.08202966165747        0.01393655318236        2.56238036117695
N           46.06098289329822       -0.05477014782177        1.49900827932534
C           47.40691404465203       -0.05930282110275        1.30092498029316
C           48.05761916529022       -0.13373031391530        0.05692279024737
C           47.41100407060611       -0.17859188697603       -1.19074911605161
C           48.08895605314822       -0.26033157586230       -2.45024974578606
C           47.13289513096339       -0.26000556611012       -3.41369804802895
C           45.86459715494620       -0.17753112960787       -2.74794538970876
C           44.62669913037586       -0.16656895526331       -3.38991285407152
C           44.63220830742696       -0.18055618381395       -4.88133833101489
C           44.22360693945279       -1.32048832176982       -5.58517564266575
O           43.84334165120372       -2.38248602371289       -4.82622907768349
C           43.41212151740829       -3.58068594330952       -5.43854470542986
C           44.23163466450703       -1.32857866359221       -6.97980017885148
C           44.64427367280523       -0.19526558725747       -7.66406634147414
C           45.05073757733786        0.94558605156829       -6.98869443916426
C           45.04646572055619        0.95225573801709       -5.59418535222586
O           45.41825391697313        2.02262286994095       -4.84321006024175
C           45.85617475699701        3.21450670593252       -5.46316831176873
C           43.38586420399484       -0.13811771296339       -2.75449859152316
C           42.11907783155602       -0.10859536722573       -3.42764660340553
C           41.15927130305455       -0.07606384719703       -2.46861204365392
C           41.83339258386143       -0.07739815192736       -1.20430194215917
N           43.17886264890146       -0.11680880421610       -1.40093578647629
N           46.06679759419045       -0.13288170380599       -1.39442118604524
C           44.61337077034646        0.08074246500578        4.97836430285809
C           45.03024431465222       -1.03976940673592        5.70950306583210
O           45.40931742333762       -2.11984384263450        4.97616443923284
C           45.87424992569138       -3.29164144453448        5.61441273284726
C           45.02886106330803       -1.01345672440174        7.10371808037416
C           44.61472294695523        0.13479343492291        7.76159687416280
C           44.19994143292425        1.25640011975862        7.05964752883833
C           44.19714224794371        1.22864477890343        5.66530383826567
O           43.81684707105719        2.27963163076084        4.89111255441346
C           43.35932910452662        3.47714771652712        5.48545364879853
H           40.07763054106557        0.01902986905419        2.67139510613893
H           41.96786405342826        0.05453235590557        4.58249999296304
H           47.25554354779943        0.12789219463121        4.58892780228424
H           49.15315685425603        0.02959794335894        2.68715654943778
H           49.15940503189200       -0.31260752534302       -2.57077901999067
H           47.26767694582259       -0.31528373449813       -4.48199224640813
H           42.52019129465524       -3.41812907966614       -6.05591715258875
H           43.16482005502566       -4.26573163555600       -4.62544204357095
H           44.20335467108386       -4.02456122145442       -6.05501634980610
H           43.92111500019731       -2.20476183189920       -7.53311487711376
H           44.64897350111456       -0.20117862768667       -8.74856210872458
H           45.36557697503640        1.81609815137322       -7.54849297004095
H           46.09640441160577        3.90713406844803       -4.65435665191020
H           45.07106383848011        3.65305682632897       -6.09116720291818
H           46.75366298202173        3.04528393812335       -6.07051737802313
H           41.98741461225212       -0.11133184875713       -4.49769400352977
H           40.08863064767234       -0.04711224275640       -2.59511825475130
H           45.09933967852412       -3.73878043564401        6.24891514010304
H           46.13095184471380       -3.99069011842357        4.81625342375784
H           46.76726578850142       -3.09216280695952        6.21914618727024
H           45.34482500728671       -1.87490056039399        7.67673269544627
H           44.61519275576040        0.15599792900437        8.84589957379137
H           43.88433319008845        2.13931718751646        7.59920699488502
H           44.13805251417306        3.94401931804967        6.10083197992174
H           42.46686049344659        3.30536866770269        6.09950355535697
H           43.10408431067939        4.14688458673811        4.66211445964257

          :  Hamiltonian                  GFN1-xTB          :
         :: total energy            -396.467275394728 Eh    ::
         :: gradient norm              0.000343707314 Eh/a0 ::
         :: HOMO-LUMO gap              0.000302558025 eV    ::
         :: SCC energy              -401.918030334269 Eh    ::
         :: repulsion energy           5.648094189322 Eh    ::

    * Orbital Energies and Occupations

         #    Occupation            Energy/Eh            Energy/eV
      -------------------------------------------------------------
         1        2.0000           -0.8041155             -21.8811
       ...           ...                  ...                  ...
       343        2.0000           -0.3918338             -10.6623
       344        2.0000           -0.3918132             -10.6618
       345        2.0000           -0.3915843             -10.6555
       346        2.0000           -0.3913206             -10.6484
       347        2.0000           -0.3909881             -10.6393
       348        2.0000           -0.3786278             -10.3030
       349        2.0000           -0.3785982             -10.3022
       350        2.0000           -0.3781235             -10.2893
       351        2.0000           -0.3747946             -10.1987
       352        2.0000           -0.3693873             -10.0515
       353        2.0000           -0.3617874              -9.8447
       354        1.0147           -0.3390673              -9.2265
       355        0.9953           -0.3390259              -9.2254 (HOMO)
       356        0.9901           -0.3390148              -9.2251 (LUMO)
       357        0.0000           -0.3232702              -8.7966
       358                         -0.3150688              -8.5735
       359                         -0.3103566              -8.4452
       360                         -0.3102982              -8.4436
       361                         -0.3096873              -8.4270
       362                         -0.3083846              -8.3916
       363                         -0.2837200              -7.7204
       364                         -0.2770155              -7.5380
       365                         -0.2744579              -7.4684
       366                         -0.2521202              -6.8605
       ...                                ...                  ...
       747                          1.5328662              41.7114
      -------------------------------------------------------------
                  HL-Gap            0.0000111 Eh            0.0003 eV

Wiberg/Mayer (AO) data.
largest (>0.10) Wiberg bond orders for each atom

     #   Z sym  total        # sym  WBO       # sym  WBO       # sym  WBO
 ---------------------------------------------------------------------------
     1  29 Cu   2.192 --    34 N    0.507     7 N    0.506    12 N    0.504
                            35 N    0.504
     2   6 C    3.931 --    33 C    1.361     3 C    1.361    46 H    0.972
     3   6 C    3.919 --     2 C    1.361     7 N    1.232     4 C    1.170
     4   6 C    3.955 --     5 C    1.657     3 C    1.170    47 H    0.976
     5   6 C    3.958 --     4 C    1.657     6 C    1.172    48 H    0.975
     6   6 C    3.912 --     8 C    1.325     7 N    1.236     5 C    1.172
     7   7 N    3.246 --     6 C    1.236     3 C    1.232     1 Cu   0.506
     8   6 C    3.935 --     9 C    1.333     6 C    1.325    36 C    1.013
     9   6 C    3.908 --     8 C    1.333    12 N    1.220    10 C    1.178
    10   6 C    3.955 --    11 C    1.646     9 C    1.178    49 H    0.975
    11   6 C    3.957 --    10 C    1.646    13 C    1.184    50 H    0.974
    12   7 N    3.250 --    13 C    1.257     9 C    1.220     1 Cu   0.504
    13   6 C    3.901 --    14 C    1.263    12 N    1.257    11 C    1.184
    14   6 C    3.940 --    15 C    1.263    13 C    1.263   146 C    1.178
    15   6 C    3.901 --    14 C    1.263    35 N    1.257    16 C    1.184
    16   6 C    3.957 --    17 C    1.646    15 C    1.184    51 H    0.974
    17   6 C    3.955 --    16 C    1.646    18 C    1.178    52 H    0.975
    18   6 C    3.908 --    19 C    1.333    35 N    1.220    17 C    1.178
    19   6 C    3.935 --    18 C    1.333    30 C    1.325    20 C    1.013
    20   6 C    3.978 --    21 C    1.344    27 C    1.344    19 C    1.013
                            25 C    0.101
    21   6 C    3.903 --    24 C    1.362    20 C    1.344    22 O    1.030
    22   8 O    2.144 --    21 C    1.030    23 C    0.936
    23   6 C    3.908 --    54 H    0.983    55 H    0.980    53 H    0.980
                            22 O    0.936
    24   6 C    3.983 --    25 C    1.442    21 C    1.362    56 H    0.969
    25   6 C    3.993 --    24 C    1.442    26 C    1.442    57 H    0.974
                            20 C    0.101
    26   6 C    3.983 --    25 C    1.442    27 C    1.362    58 H    0.969
    27   6 C    3.903 --    26 C    1.362    20 C    1.344    28 O    1.030
    28   8 O    2.144 --    27 C    1.030    29 C    0.936
    29   6 C    3.908 --    59 H    0.983    60 H    0.980    61 H    0.980
                            28 O    0.936
    30   6 C    3.912 --    19 C    1.325    34 N    1.237    31 C    1.172
    31   6 C    3.958 --    32 C    1.657    30 C    1.172    62 H    0.975
    32   6 C    3.955 --    31 C    1.657    33 C    1.170    63 H    0.976
    33   6 C    3.919 --     2 C    1.361    34 N    1.231    32 C    1.170
    34   7 N    3.246 --    30 C    1.237    33 C    1.231     1 Cu   0.507
    35   7 N    3.250 --    15 C    1.257    18 C    1.220     1 Cu   0.504
    36   6 C    3.978 --    43 C    1.344    37 C    1.344     8 C    1.013
                            41 C    0.101
    37   6 C    3.903 --    40 C    1.362    36 C    1.344    38 O    1.030
    38   8 O    2.144 --    37 C    1.030    39 C    0.936
    39   6 C    3.908 --    64 H    0.983    66 H    0.980    65 H    0.980
                            38 O    0.936
    40   6 C    3.983 --    41 C    1.442    37 C    1.362    67 H    0.969
    41   6 C    3.993 --    42 C    1.442    40 C    1.442    68 H    0.974
                            36 C    0.101
    42   6 C    3.983 --    41 C    1.442    43 C    1.362    69 H    0.969
    43   6 C    3.903 --    42 C    1.362    36 C    1.344    44 O    1.030
    44   8 O    2.144 --    43 C    1.030    45 C    0.936
    45   6 C    3.908 --    71 H    0.983    72 H    0.980    70 H    0.980
                            44 O    0.936
    46   1 H    1.002 --     2 C    0.972
    47   1 H    0.999 --     4 C    0.976
    48   1 H    1.002 --     5 C    0.975
    49   1 H    1.002 --    10 C    0.975
    50   1 H    1.003 --    11 C    0.974
    51   1 H    1.003 --    16 C    0.974
    52   1 H    1.002 --    17 C    0.975
    53   1 H    1.009 --    23 C    0.980
    54   1 H    1.016 --    23 C    0.983
    55   1 H    1.009 --    23 C    0.980
    56   1 H    1.000 --    24 C    0.969
    57   1 H    1.003 --    25 C    0.974
    58   1 H    1.000 --    26 C    0.969
    59   1 H    1.016 --    29 C    0.983
    60   1 H    1.009 --    29 C    0.980
    61   1 H    1.009 --    29 C    0.980
    62   1 H    1.002 --    31 C    0.975
    63   1 H    0.999 --    32 C    0.976
    64   1 H    1.016 --    39 C    0.983
    65   1 H    1.009 --    39 C    0.980
    66   1 H    1.009 --    39 C    0.980
    67   1 H    1.000 --    40 C    0.969
    68   1 H    1.003 --    41 C    0.974
    69   1 H    1.000 --    42 C    0.969
    70   1 H    1.009 --    45 C    0.980
    71   1 H    1.016 --    45 C    0.983
    72   1 H    1.009 --    45 C    0.980
    73  29 Cu   2.192 --   106 N    0.506    79 N    0.506    84 N    0.504
                           107 N    0.504
    74   6 C    3.930 --    75 C    1.361   105 C    1.361   118 H    0.972
    75   6 C    3.919 --    74 C    1.361    79 N    1.231    76 C    1.170
    76   6 C    3.955 --    77 C    1.657    75 C    1.170   119 H    0.976
    77   6 C    3.958 --    76 C    1.657    78 C    1.172   120 H    0.975
    78   6 C    3.912 --    80 C    1.325    79 N    1.236    77 C    1.172
    79   7 N    3.245 --    78 C    1.236    75 C    1.231    73 Cu   0.506
    80   6 C    3.935 --    81 C    1.333    78 C    1.325   108 C    1.013
    81   6 C    3.908 --    80 C    1.333    84 N    1.220    82 C    1.179
    82   6 C    3.955 --    83 C    1.645    81 C    1.179   121 H    0.975
    83   6 C    3.957 --    82 C    1.645    85 C    1.185   122 H    0.974
    84   7 N    3.250 --    85 C    1.257    81 C    1.220    73 Cu   0.504
    85   6 C    3.900 --    86 C    1.262    84 N    1.257    83 C    1.185
    86   6 C    3.939 --    85 C    1.262    87 C    1.262   152 C    1.181
    87   6 C    3.900 --    86 C    1.262   107 N    1.258    88 C    1.185
    88   6 C    3.957 --    89 C    1.645    87 C    1.185   123 H    0.974
    89   6 C    3.955 --    88 C    1.645    90 C    1.179   124 H    0.975
    90   6 C    3.908 --    91 C    1.333   107 N    1.220    89 C    1.179
    91   6 C    3.935 --    90 C    1.333   102 C    1.325    92 C    1.013
    92   6 C    3.978 --    99 C    1.345    93 C    1.344    91 C    1.013
                            97 C    0.101
    93   6 C    3.903 --    96 C    1.362    92 C    1.344    94 O    1.031
    94   8 O    2.144 --    93 C    1.031    95 C    0.936
    95   6 C    3.908 --   126 H    0.983   127 H    0.980   125 H    0.980
                            94 O    0.936
    96   6 C    3.983 --    97 C    1.442    93 C    1.362   128 H    0.969
    97   6 C    3.993 --    96 C    1.442    98 C    1.442   129 H    0.974
                            92 C    0.101
    98   6 C    3.983 --    97 C    1.442    99 C    1.362   130 H    0.969
    99   6 C    3.903 --    98 C    1.362    92 C    1.345   100 O    1.030
   100   8 O    2.144 --    99 C    1.030   101 C    0.936
   101   6 C    3.908 --   131 H    0.983   132 H    0.980   133 H    0.980
                           100 O    0.936
   102   6 C    3.912 --    91 C    1.325   106 N    1.236   103 C    1.172
   103   6 C    3.958 --   104 C    1.657   102 C    1.172   134 H    0.975
   104   6 C    3.955 --   103 C    1.657   105 C    1.170   135 H    0.976
   105   6 C    3.919 --    74 C    1.361   106 N    1.232   104 C    1.170
   106   7 N    3.245 --   102 C    1.236   105 C    1.232    73 Cu   0.506
   107   7 N    3.250 --    87 C    1.258    90 C    1.220    73 Cu   0.504
   108   6 C    3.978 --   115 C    1.344   109 C    1.344    80 C    1.013
                           113 C    0.101
   109   6 C    3.903 --   112 C    1.362   108 C    1.344   110 O    1.031
   110   8 O    2.144 --   109 C    1.031   111 C    0.936
   111   6 C    3.908 --   136 H    0.983   138 H    0.980   137 H    0.980
                           110 O    0.936
   112   6 C    3.983 --   113 C    1.442   109 C    1.362   139 H    0.969
   113   6 C    3.993 --   114 C    1.442   112 C    1.442   140 H    0.974
                           108 C    0.101
   114   6 C    3.983 --   113 C    1.442   115 C    1.362   141 H    0.969
   115   6 C    3.903 --   114 C    1.362   108 C    1.344   116 O    1.030
   116   8 O    2.144 --   115 C    1.030   117 C    0.936
   117   6 C    3.908 --   143 H    0.983   144 H    0.980   142 H    0.980
                           116 O    0.936
   118   1 H    1.002 --    74 C    0.972
   119   1 H    0.999 --    76 C    0.976
   120   1 H    1.002 --    77 C    0.975
   121   1 H    1.002 --    82 C    0.975
   122   1 H    1.003 --    83 C    0.974
   123   1 H    1.003 --    88 C    0.974
   124   1 H    1.002 --    89 C    0.975
   125   1 H    1.009 --    95 C    0.980
   126   1 H    1.016 --    95 C    0.983
   127   1 H    1.009 --    95 C    0.980
   128   1 H    1.000 --    96 C    0.969
   129   1 H    1.003 --    97 C    0.974
   130   1 H    1.000 --    98 C    0.969
   131   1 H    1.016 --   101 C    0.983
   132   1 H    1.009 --   101 C    0.980
   133   1 H    1.009 --   101 C    0.980
   134   1 H    1.002 --   103 C    0.975
   135   1 H    0.999 --   104 C    0.976
   136   1 H    1.016 --   111 C    0.983
   137   1 H    1.009 --   111 C    0.980
   138   1 H    1.009 --   111 C    0.980
   139   1 H    1.000 --   112 C    0.969
   140   1 H    1.003 --   113 C    0.974
   141   1 H    1.000 --   114 C    0.969
   142   1 H    1.009 --   117 C    0.980
   143   1 H    1.016 --   117 C    0.983
   144   1 H    1.009 --   117 C    0.980
   145   6 C    3.936 --   146 C    2.486   147 C    1.299
   146   6 C    3.923 --   145 C    2.486    14 C    1.178   148 C    0.198
   147   6 C    3.933 --   148 C    2.485   145 C    1.299
   148   6 C    3.924 --   147 C    2.485   154 C    1.180   146 C    0.198
   149   6 C    3.933 --   150 C    2.482   151 C    1.302
   150   6 C    3.924 --   149 C    2.482   166 C    1.183   152 C    0.199
   151   6 C    3.936 --   152 C    2.484   149 C    1.302
   152   6 C    3.923 --   151 C    2.484    86 C    1.181   150 C    0.199
   153  29 Cu   2.171 --   159 N    0.501   186 N    0.501   164 N    0.501
                           187 N    0.500
   154   6 C    3.929 --   155 C    1.261   185 C    1.261   148 C    1.180
   155   6 C    3.902 --   154 C    1.261   159 N    1.259   156 C    1.185
   156   6 C    3.955 --   157 C    1.644   155 C    1.185   198 H    0.974
   157   6 C    3.956 --   156 C    1.644   158 C    1.180   199 H    0.975
   158   6 C    3.906 --   160 C    1.329   159 N    1.221   157 C    1.180
   159   7 N    3.243 --   155 C    1.259   158 C    1.221   153 Cu   0.501
   160   6 C    3.931 --   158 C    1.329   161 C    1.329   188 C    1.014
   161   6 C    3.906 --   160 C    1.329   164 N    1.221   162 C    1.180
   162   6 C    3.956 --   163 C    1.643   161 C    1.180   200 H    0.975
   163   6 C    3.955 --   162 C    1.643   165 C    1.186   201 H    0.974
   164   7 N    3.243 --   165 C    1.259   161 C    1.221   153 Cu   0.501
   165   6 C    3.901 --   166 C    1.260   164 N    1.259   163 C    1.186
   166   6 C    3.929 --   165 C    1.260   167 C    1.260   150 C    1.183
   167   6 C    3.901 --   166 C    1.260   187 N    1.259   168 C    1.186
   168   6 C    3.955 --   169 C    1.643   167 C    1.186   202 H    0.974
   169   6 C    3.956 --   168 C    1.643   170 C    1.180   203 H    0.975
   170   6 C    3.906 --   171 C    1.329   187 N    1.221   169 C    1.180
   171   6 C    3.930 --   182 C    1.330   170 C    1.329   172 C    1.012
   172   6 C    3.978 --   173 C    1.345   179 C    1.344   171 C    1.012
                           177 C    0.101
   173   6 C    3.903 --   176 C    1.361   172 C    1.345   174 O    1.030
   174   8 O    2.144 --   173 C    1.030   175 C    0.936
   175   6 C    3.908 --   205 H    0.983   204 H    0.980   206 H    0.980
                           174 O    0.936
   176   6 C    3.983 --   177 C    1.442   173 C    1.361   207 H    0.969
   177   6 C    3.993 --   176 C    1.442   178 C    1.442   208 H    0.974
                           172 C    0.101
   178   6 C    3.983 --   177 C    1.442   179 C    1.362   209 H    0.969
   179   6 C    3.903 --   178 C    1.362   172 C    1.344   180 O    1.031
   180   8 O    2.144 --   179 C    1.031   181 C    0.936
   181   6 C    3.908 --   210 H    0.983   212 H    0.980   211 H    0.980
                           180 O    0.936
   182   6 C    3.906 --   171 C    1.330   186 N    1.220   183 C    1.180
   183   6 C    3.956 --   184 C    1.644   182 C    1.180   213 H    0.975
   184   6 C    3.955 --   183 C    1.644   185 C    1.185   214 H    0.974
   185   6 C    3.902 --   154 C    1.261   186 N    1.259   184 C    1.185
   186   7 N    3.243 --   185 C    1.259   182 C    1.220   153 Cu   0.501
   187   7 N    3.243 --   167 C    1.259   170 C    1.221   153 Cu   0.500
   188   6 C    3.977 --   195 C    1.344   189 C    1.343   160 C    1.014
                           193 C    0.101
   189   6 C    3.903 --   192 C    1.362   188 C    1.343   190 O    1.031
   190   8 O    2.145 --   189 C    1.031   191 C    0.936
   191   6 C    3.908 --   216 H    0.983   217 H    0.980   215 H    0.980
                           190 O    0.936
   192   6 C    3.983 --   193 C    1.442   189 C    1.362   218 H    0.969
   193   6 C    3.992 --   194 C    1.442   192 C    1.442   219 H    0.974
                           188 C    0.101
   194   6 C    3.983 --   193 C    1.442   195 C    1.362   220 H    0.969
   195   6 C    3.903 --   194 C    1.362   188 C    1.344   196 O    1.030
   196   8 O    2.144 --   195 C    1.030   197 C    0.936
   197   6 C    3.908 --   223 H    0.983   222 H    0.980   221 H    0.980
                           196 O    0.936
   198   1 H    1.003 --   156 C    0.974
   199   1 H    1.002 --   157 C    0.975
   200   1 H    1.002 --   162 C    0.975
   201   1 H    1.003 --   163 C    0.974
   202   1 H    1.003 --   168 C    0.974
   203   1 H    1.002 --   169 C    0.975
   204   1 H    1.009 --   175 C    0.980
   205   1 H    1.016 --   175 C    0.983
   206   1 H    1.009 --   175 C    0.980
   207   1 H    1.000 --   176 C    0.969
   208   1 H    1.003 --   177 C    0.974
   209   1 H    1.000 --   178 C    0.969
   210   1 H    1.016 --   181 C    0.983
   211   1 H    1.009 --   181 C    0.980
   212   1 H    1.009 --   181 C    0.980
   213   1 H    1.002 --   183 C    0.975
   214   1 H    1.003 --   184 C    0.974
   215   1 H    1.009 --   191 C    0.980
   216   1 H    1.016 --   191 C    0.983
   217   1 H    1.009 --   191 C    0.980
   218   1 H    1.000 --   192 C    0.969
   219   1 H    1.003 --   193 C    0.974
   220   1 H    1.000 --   194 C    0.969
   221   1 H    1.009 --   197 C    0.980
   222   1 H    1.009 --   197 C    0.980
   223   1 H    1.016 --   197 C    0.983
 ---------------------------------------------------------------------------

           -------------------------------------------------
          | TOTAL ENERGY             -396.467275394728 Eh   |
          | GRADIENT NORM               0.000343707314 Eh/α |
          | HOMO-LUMO GAP               0.000302558025 eV   |
           -------------------------------------------------

 * finished run on 2022/07/30 at 12:15:15.344
