   * xtb version 6.5.1 (b24c23e) compiled by 'conda@728c89f4b128' on 2022-07-12
          program call               : xtb Ph3Me_C4_2.xyz --gfn 1 --opt -T 48

   ID    Z sym.   atoms
    1    6 C      1-5, 7-19, 21-26, 28-41, 76-80, 82-94, 96-101, 103-116,
                  151-154
    2    7 N      6, 20, 27, 42, 81, 95, 102, 117
    3    1 H      43-75, 118-150
########################################################################
[WARNING] Please study the warnings concerning your input carefully
-1- prog_main_parseArguments: Unknown option '-T' provided
########################################################################

          :  Hamiltonian                  GFN1-xTB          :
 * total energy  :  -229.8629209 Eh     change        0.2481215E-09 Eh
 * total energy  :  -230.0658627 Eh     change       -0.2029418E+00 Eh
 * total energy  :  -230.1399921 Eh     change       -0.7412937E-01 Eh
 * total energy  :  -230.1652357 Eh     change       -0.2524361E-01 Eh
 * total energy  :  -230.1756861 Eh     change       -0.1045045E-01 Eh
 * total energy  :  -230.1807670 Eh     change       -0.5080815E-02 Eh
 * total energy  :  -230.1859575 Eh     change       -0.5190499E-02 Eh
 * total energy  :  -230.1887449 Eh     change       -0.2787414E-02 Eh
 * total energy  :  -230.1914811 Eh     change       -0.2736194E-02 Eh
 * total energy  :  -230.1932687 Eh     change       -0.1787594E-02 Eh
 * total energy  :  -230.1966053 Eh     change       -0.1127617E-04 Eh
 * total energy  :  -230.1966155 Eh     change       -0.1023760E-04 Eh
 * total energy  :  -230.1966247 Eh     change       -0.9206652E-05 Eh
 * total energy  :  -230.1966341 Eh     change       -0.9325707E-05 Eh
 * total energy  :  -230.1966462 Eh     change       -0.1216445E-04 Eh
 * total energy  :  -230.1966467 Eh     change       -0.4751877E-06 Eh
 * total energy  :  -230.1966550 Eh     change       -0.8335543E-05 Eh
 * total energy  :  -230.1966612 Eh     change       -0.6220315E-05 Eh
 * total energy  :  -230.1966656 Eh     change       -0.4341817E-05 Eh
   *** GEOMETRY OPTIMIZATION CONVERGED AFTER 47 ITERATIONS ***

 final structure:
================
154
 xtb: 6.5.1 (b24c23e)
C           13.23983069875380       -0.16695192755392        0.01766804991136
C           13.86086266685075       -1.40795989266007       -0.04243259109324
C           13.23196754282476       -2.68320734776272       -0.11472122838619
C           14.21253149609692       -3.63398577290631       -0.16459564197759
C           15.47170121725583       -2.96973571595455       -0.12252983506477
N           15.20892342805385       -1.63112261441076       -0.04894879066037
C           16.73843460260754       -3.55772771189397       -0.14584836915867
C           16.77793903547474       -5.04699367671785       -0.23894588706546
C           16.77476525509450       -5.66631882965444       -1.49203414352676
C           16.72826137223607       -4.83104250950471       -2.74381277820463
C           16.81694554072383       -7.05357036958821       -1.56904193017896
C           16.86320390910661       -7.83216729691412       -0.41735458200168
C           16.89190259102685       -9.33382206585715       -0.51240480348950
C           16.86350439241975       -7.20526625033362        0.82453581456501
C           16.82190301859504       -5.81960130799229        0.92511406377248
C           16.82851806655182       -5.14859297470165        2.27281240215574
C           17.95257958589219       -2.87497337718626       -0.09079798355263
C           19.24444969722529       -3.53719384534095       -0.10905281421658
C           20.17432010297884       -2.56173651584160       -0.03944981719356
N           18.11868802714957       -1.52547626998618       -0.01340196323976
C           19.44821045022348       -1.30730171327165        0.01740134491551
C           20.08917941411278       -0.05296100505188        0.08420415958736
C           19.44250804138335        1.19664815901292        0.12743916777785
C           20.06568494047219        2.47150440119154        0.18703663527648
C           19.08126190830759        3.42079028054357        0.21114416849958
C           17.82649000484560        2.75192260028041        0.16754036703306
N           18.09673210831416        1.40989928494517        0.11822634543476
C           16.56093137386233        3.34151378036561        0.17703103894883
C           16.52526696099261        4.83253438658888        0.22886300308566
C           16.56765322606670        5.57225513345276       -0.95648667360315
C           16.64353999866220        4.86388160504798       -2.28286878689164
C           16.54297746932571        6.96071534875422       -0.89704756928285
C           16.47802144884369        7.62275560441458        0.32463414136843
C           16.43525678555634        9.12619133612422        0.37540443876516
C           16.43299427550437        6.87659340680544        1.49778273803408
C           16.45641308736774        5.48727945288471        1.46196485128257
C           16.41191999263467        4.68720751780583        2.73655310878969
C           15.34583696851450        2.65546052266399        0.14296655521795
C           14.04773928956290        3.31131314660535        0.16102886958209
C           13.12383365110403        2.32984493531802        0.12136467612796
C           13.85729847379760        1.07646954775899        0.07544355248055
N           15.19204887240791        1.31062835302980        0.09064899521464
H           12.15478693594439       -0.17873809724531        0.01339349613665
H           12.16486076638277       -2.83846835809655       -0.12715889708715
H           14.08744834313159       -4.70330817427573       -0.22366141941371
H           15.91679832494200       -0.90588422650603       -0.00614431382040
H           15.79716053963052       -4.26215997767165       -2.78466462249280
H           16.79242718799323       -5.45794288935418       -3.63267979743852
H           17.55514730731852       -4.11872485649272       -2.75599724482014
H           16.81710573405825       -7.53380376936462       -2.54214362676340
H           15.87297278732298       -9.72746582964840       -0.48965816659682
H           17.35904721699055       -9.65548588262916       -1.44350467773126
H           17.44029917075594       -9.76540628764286        0.32532781293206
H           16.89963058376711       -7.80480818421137        1.72830904408114
H           15.94258782036718       -4.52146956438467        2.38909740327982
H           16.84290257780901       -5.88596113343282        3.07485738555850
H           17.70638866024062       -4.50725008623944        2.37154820680410
H           19.39034044413622       -4.60391740385849       -0.16793698551176
H           21.24872504551177       -2.65352186292375       -0.02819439383790
H           21.13176475570229        2.63105008882517        0.20823886485593
H           19.20361937201681        4.49088711007459        0.25688881245830
H           17.39185849950669        0.68125050591004        0.07915558693571
H           16.58892463350663        5.57433817107892       -3.10716594033785
H           17.58096865905504        4.30953649184963       -2.36222292177989
H           15.82422619288648        4.14934908892707       -2.37971066010333
H           16.57726687064920        7.53454898829752       -1.81743078422353
H           16.88538727254129        9.49672262741495        1.29670882188954
H           15.39878805148748        9.47002896869641        0.34175068009438
H           16.96351295529726        9.55875689598677       -0.47462482839367
H           16.38158936515022        7.38452271202010        2.45535202449781
H           16.35728759539943        5.34210010591004        3.60565298782494
H           15.54194815146027        4.02788371244305        2.73981092135048
H           17.30357141251136        4.06331381270735        2.82382182840674
H           13.89711055656925        4.37855412566456        0.19832771299910
H           12.04819163142160        2.41303089207710        0.11999694354801
C           33.54104960384778        0.16897163434439        0.01438695109755
C           32.91975645227781        1.40511929739246       -0.10934352736855
C           33.54855982167548        2.67511440397561       -0.24629427852326
C           32.56793215583643        3.62188679152095       -0.34587926599553
C           31.30878202806556        2.96044813111260       -0.27090365378642
N           31.57167598147290        1.62742228406196       -0.12846519506472
C           30.04206653881727        3.54636823764019       -0.32549316018308
C           30.00259760285422        5.02878286551671       -0.49594925664250
C           30.00574837218168        5.58194062868037       -1.77963597391871
C           30.05214149407466        4.68247859738054       -2.98612157368642
C           29.96363184401605        6.96328843810109       -1.92886756513032
C           29.91744062220319        7.80086077980457       -0.81932127450735
C           29.88869063557147        9.29552240910959       -0.99253866458316
C           29.91715439911790        7.23956183580917        0.45356291390509
C           29.95870075921688        5.86101467602119        0.62624584267708
C           29.95194447202943        5.26110830576707        2.00705497940690
C           28.82787755434257        2.86726631916874       -0.23597536166992
C           27.53592384082409        3.52744882329374       -0.28899223482103
C           26.60615657257183        2.55669857850722       -0.16967141896167
N           28.66193334023115        1.52356032073379       -0.08922896560592
C           27.33237894816919        1.30694950617319       -0.04821297788392
C           26.69175264863569        0.05739561182605        0.08168146556771
C           27.33868407343870       -1.18825346582376        0.18867819178100
C           26.71561234677124       -2.45855813338366        0.31207421046385
C           27.70010605235953       -3.40532460571065        0.38408057737602
C           28.95481478556500       -2.73931561326106        0.30757463706806
N           28.68449046328720       -1.40146809806982        0.19110878946472
C           30.22038031625197       -3.32758745215123        0.34722559121562
C           30.25614802574767       -4.81416450912977        0.47318564940523
C           30.21565522604415       -5.61183735393081       -0.67404435290072
C           30.14146880207925       -4.97020355955242       -2.03406829470870
C           30.24071387958048       -6.99561640647690       -0.54570901785605
C           30.30422602636045       -7.59614774337644        0.70743328569733
C           30.34776130361835       -9.09517572713523        0.83282455164821
C           30.34725821166382       -6.79264256349441        1.84214821344140
C           30.32340766587808       -5.40682788357362        1.73736534869013
C           30.36589343612489       -4.54444076096281        2.97071634165575
C           31.43544101578036       -2.64398705187321        0.27972739941043
C           32.73358871883650       -3.29788126197105        0.33185539982686
C           33.65741197611356       -2.31947540619445        0.24387785907679
C           32.92383143648571       -1.07012587068353        0.13434445062056
N           31.58910498108487       -1.30344316773605        0.16010638634703
H           34.62609280382376        0.18090206245857        0.01053156819693
H           34.61566506860606        2.82967736911842       -0.26566761518104
H           32.69287596673297        4.68679181682923       -0.45967905902649
H           30.86387043641530        0.90518378472145       -0.04929066237474
H           30.98319197845150        4.11215840293172       -2.99725981136466
H           29.98796079307887        5.26211087343880       -3.90650759985943
H           29.22519719742234        3.97056432352273       -2.96103940095082
H           29.96345217171335        7.39216028380794       -2.92567359191577
H           30.90760212522471        9.68986064587022       -0.99054530504967
H           29.42135680247596        9.56818483939908       -1.93905581177644
H           29.34042714841447        9.77018558191757       -0.17835036589155
H           29.88106448492258        7.88541916444370        1.32484247394923
H           30.83782065718001        4.64084076592590        2.15593565264910
H           29.93750115749973        6.03922850747631        2.76962347649601
H           29.07402332663864        4.62581814834085        2.13891537055017
H           27.38987285197984        4.58969026159372       -0.40285180278321
H           25.53172918601890        2.64880979119311       -0.16355276168445
H           25.64953393569791       -2.61688968243837        0.34090538698209
H           27.57782778213842       -4.47180692957755        0.48320603637403
H           29.38939534362840       -0.67571688291105        0.11568554386818
H           30.19763409650792       -5.72066474182623       -2.82200822326020
H           29.20393925482572       -4.42092287928045       -2.14225706436565
H           30.96064422750449       -4.26096599155103       -2.16503373173122
H           30.20793863154283       -7.61445444150800       -1.43651284808774
H           29.89682173945396       -9.41980271093906        1.77089539291207
H           31.38447447800929       -9.43957440144511        0.81741101757547
H           29.82072861063691       -9.56974174096177        0.00473179641060
H           30.39750185495091       -7.25236743820437        2.82382971556542
H           30.41981302760063       -5.15536308497901        3.87131007251905
H           31.23550899843357       -3.88525177754170        2.94227752152280
H           29.47380594500965       -3.91751402493027        3.02586575362054
H           32.88434312565349       -4.36187453258776        0.42282743682350
H           34.73306110135427       -2.40249786071356        0.24768317581003
C           22.71597133147011       -0.00813083481079        0.10600563498186
C           21.49390341813740       -0.03232518735589        0.09984879918766
C           24.06484851928379        0.01358993258735        0.10506838777365
C           25.28695058146176        0.03630022047344        0.09560086652408

          :  Hamiltonian                  GFN1-xTB          :
         :: total energy            -230.196665590838 Eh    ::
         :: gradient norm              0.000462339332 Eh/a0 ::
         :: HOMO-LUMO gap              0.991547593385 eV    ::
         :: SCC energy              -233.974284120042 Eh    ::
         :: repulsion energy           3.909029163403 Eh    ::

    * Orbital Energies and Occupations

         #    Occupation            Energy/Eh            Energy/eV
      -------------------------------------------------------------
         1        2.0000           -0.8014183             -21.8077
       ...           ...                  ...                  ...
       201        2.0000           -0.4195908             -11.4176
       202        2.0000           -0.4186553             -11.3922
       203        2.0000           -0.4180201             -11.3749
       204        2.0000           -0.4179244             -11.3723
       205        2.0000           -0.4155965             -11.3090
       206        2.0000           -0.4137430             -11.2585
       207        2.0000           -0.4135079             -11.2521
       208        2.0000           -0.4130883             -11.2407
       209        2.0000           -0.4130119             -11.2386
       210        2.0000           -0.3964106             -10.7869
       211        2.0000           -0.3960703             -10.7776
       212        2.0000           -0.3861831             -10.5086
       213        2.0000           -0.3749616             -10.2032 (HOMO)
       214                         -0.3385229              -9.2117 (LUMO)
       215                         -0.3267228              -8.8906
       216                         -0.3266384              -8.8883
       217                         -0.3250943              -8.8463
       218                         -0.2951241              -8.0307
       219                         -0.2871321              -7.8133
       220                         -0.2569762              -6.9927
       221                         -0.2552837              -6.9466
       222                         -0.2552630              -6.9461
       223                         -0.2552114              -6.9447
       224                         -0.2547377              -6.9318
       ...                                ...                  ...
       484                          1.5198574              41.3574
      -------------------------------------------------------------
                  HL-Gap            0.0364387 Eh            0.9915 eV

Wiberg/Mayer (AO) data.
largest (>0.10) Wiberg bond orders for each atom

     #   Z sym  total        # sym  WBO       # sym  WBO       # sym  WBO
 ---------------------------------------------------------------------------
     1   6 C    3.924 --    41 C    1.363     2 C    1.347    43 H    0.971
     2   6 C    3.903 --     1 C    1.347     3 C    1.229     6 N    1.170
     3   6 C    3.953 --     4 C    1.596     2 C    1.229    44 H    0.977
     4   6 C    3.959 --     3 C    1.596     5 C    1.232    45 H    0.976
     5   6 C    3.896 --     7 C    1.309     4 C    1.232     6 N    1.173
     6   7 N    3.468 --     5 C    1.173     2 C    1.170    46 H    0.874
     7   6 C    3.940 --    17 C    1.343     5 C    1.309     8 C    1.003
     8   6 C    3.987 --     9 C    1.382    15 C    1.381     7 C    1.003
                            12 C    0.104
     9   6 C    3.984 --    11 C    1.420     8 C    1.382    10 C    1.020
                            14 C    0.103
    10   6 C    3.996 --     9 C    1.020    48 H    0.986    49 H    0.974
                            47 H    0.974
    11   6 C    3.993 --     9 C    1.420    12 C    1.414    50 H    0.970
                            15 C    0.103
    12   6 C    3.988 --    11 C    1.414    14 C    1.414    13 C    1.020
                             8 C    0.104
    13   6 C    3.996 --    12 C    1.020    52 H    0.983    53 H    0.983
                            51 H    0.971
    14   6 C    3.993 --    15 C    1.421    12 C    1.414    54 H    0.970
                             9 C    0.103
    15   6 C    3.984 --    14 C    1.421     8 C    1.381    16 C    1.020
                            11 C    0.103
    16   6 C    3.996 --    15 C    1.020    56 H    0.986    55 H    0.975
                            57 H    0.973
    17   6 C    3.915 --     7 C    1.343    20 N    1.280    18 C    1.124
    18   6 C    3.966 --    19 C    1.710    17 C    1.124    58 H    0.975
    19   6 C    3.964 --    18 C    1.710    21 C    1.129    59 H    0.975
    20   7 N    3.023 --    21 C    1.348    17 C    1.280
    21   6 C    3.910 --    20 N    1.348    22 C    1.252    19 C    1.129
    22   6 C    3.936 --    21 C    1.252    23 C    1.251   152 C    1.192
    23   6 C    3.886 --    22 C    1.251    24 C    1.249    27 N    1.190
    24   6 C    3.959 --    25 C    1.584    23 C    1.249    60 H    0.975
    25   6 C    3.955 --    24 C    1.584    26 C    1.239    61 H    0.975
    26   6 C    3.898 --    28 C    1.315    25 C    1.239    27 N    1.161
    27   7 N    3.473 --    23 C    1.190    26 C    1.161    62 H    0.873
    28   6 C    3.925 --    38 C    1.329    26 C    1.315    29 C    1.004
    29   6 C    3.987 --    30 C    1.381    36 C    1.381    28 C    1.004
                            33 C    0.104
    30   6 C    3.983 --    32 C    1.420    29 C    1.381    31 C    1.020
                            35 C    0.103
    31   6 C    3.996 --    30 C    1.020    63 H    0.986    65 H    0.975
                            64 H    0.973
    32   6 C    3.993 --    30 C    1.420    33 C    1.414    66 H    0.970
                            36 C    0.103
    33   6 C    3.988 --    32 C    1.414    35 C    1.414    34 C    1.020
                            29 C    0.104
    34   6 C    3.996 --    33 C    1.020    69 H    0.983    67 H    0.983
                            68 H    0.971
    35   6 C    3.993 --    36 C    1.421    33 C    1.414    70 H    0.970
                            30 C    0.103
    36   6 C    3.984 --    35 C    1.421    29 C    1.381    37 C    1.020
                            32 C    0.103
    37   6 C    3.996 --    36 C    1.020    71 H    0.986    73 H    0.974
                            72 H    0.974
    38   6 C    3.929 --    28 C    1.329    42 N    1.310    39 C    1.117
    39   6 C    3.968 --    40 C    1.723    38 C    1.117    74 H    0.975
    40   6 C    3.966 --    39 C    1.723    41 C    1.117    75 H    0.976
    41   6 C    3.930 --     1 C    1.363    42 N    1.304    40 C    1.117
    42   7 N    3.011 --    38 C    1.310    41 C    1.304
    43   1 H    1.002 --     1 C    0.971
    44   1 H    0.998 --     3 C    0.977
    45   1 H    1.002 --     4 C    0.976
    46   1 H    0.987 --     6 N    0.874
    47   1 H    1.008 --    10 C    0.974
    48   1 H    1.004 --    10 C    0.986
    49   1 H    1.007 --    10 C    0.974
    50   1 H    1.000 --    11 C    0.970
    51   1 H    1.006 --    13 C    0.971
    52   1 H    1.004 --    13 C    0.983
    53   1 H    1.004 --    13 C    0.983
    54   1 H    1.000 --    14 C    0.970
    55   1 H    1.008 --    16 C    0.975
    56   1 H    1.004 --    16 C    0.986
    57   1 H    1.008 --    16 C    0.973
    58   1 H    1.002 --    18 C    0.975
    59   1 H    1.003 --    19 C    0.975
    60   1 H    1.002 --    24 C    0.975
    61   1 H    1.002 --    25 C    0.975
    62   1 H    0.988 --    27 N    0.873
    63   1 H    1.004 --    31 C    0.986
    64   1 H    1.008 --    31 C    0.973
    65   1 H    1.007 --    31 C    0.975
    66   1 H    1.000 --    32 C    0.970
    67   1 H    1.004 --    34 C    0.983
    68   1 H    1.006 --    34 C    0.971
    69   1 H    1.004 --    34 C    0.983
    70   1 H    1.000 --    35 C    0.970
    71   1 H    1.004 --    37 C    0.986
    72   1 H    1.008 --    37 C    0.974
    73   1 H    1.008 --    37 C    0.974
    74   1 H    1.002 --    39 C    0.975
    75   1 H    0.998 --    40 C    0.976
    76   6 C    3.924 --   116 C    1.363    77 C    1.347   118 H    0.971
    77   6 C    3.903 --    76 C    1.347    78 C    1.229    81 N    1.170
    78   6 C    3.953 --    79 C    1.596    77 C    1.229   119 H    0.977
    79   6 C    3.959 --    78 C    1.596    80 C    1.232   120 H    0.976
    80   6 C    3.896 --    82 C    1.309    79 C    1.232    81 N    1.173
    81   7 N    3.468 --    80 C    1.173    77 C    1.170   121 H    0.874
    82   6 C    3.940 --    92 C    1.343    80 C    1.309    83 C    1.003
    83   6 C    3.987 --    84 C    1.382    90 C    1.381    82 C    1.003
                            87 C    0.104
    84   6 C    3.984 --    86 C    1.420    83 C    1.382    85 C    1.020
                            89 C    0.103
    85   6 C    3.996 --    84 C    1.020   123 H    0.986   124 H    0.974
                           122 H    0.974
    86   6 C    3.993 --    84 C    1.420    87 C    1.414   125 H    0.970
                            90 C    0.103
    87   6 C    3.988 --    86 C    1.414    89 C    1.414    88 C    1.020
                            83 C    0.104
    88   6 C    3.996 --    87 C    1.020   127 H    0.983   128 H    0.983
                           126 H    0.971
    89   6 C    3.993 --    90 C    1.421    87 C    1.414   129 H    0.970
                            84 C    0.103
    90   6 C    3.984 --    89 C    1.421    83 C    1.381    91 C    1.020
                            86 C    0.103
    91   6 C    3.996 --    90 C    1.020   131 H    0.986   130 H    0.975
                           132 H    0.973
    92   6 C    3.915 --    82 C    1.343    95 N    1.280    93 C    1.124
    93   6 C    3.966 --    94 C    1.710    92 C    1.124   133 H    0.975
    94   6 C    3.964 --    93 C    1.710    96 C    1.129   134 H    0.975
    95   7 N    3.023 --    96 C    1.348    92 C    1.280
    96   6 C    3.910 --    95 N    1.348    97 C    1.252    94 C    1.129
    97   6 C    3.936 --    96 C    1.252    98 C    1.251   154 C    1.192
    98   6 C    3.886 --    97 C    1.251    99 C    1.249   102 N    1.190
    99   6 C    3.959 --   100 C    1.584    98 C    1.249   135 H    0.975
   100   6 C    3.955 --    99 C    1.584   101 C    1.239   136 H    0.975
   101   6 C    3.898 --   103 C    1.315   100 C    1.239   102 N    1.161
   102   7 N    3.473 --    98 C    1.190   101 C    1.161   137 H    0.873
   103   6 C    3.925 --   113 C    1.329   101 C    1.315   104 C    1.004
   104   6 C    3.987 --   105 C    1.381   111 C    1.381   103 C    1.004
                           108 C    0.104
   105   6 C    3.983 --   107 C    1.420   104 C    1.381   106 C    1.020
                           110 C    0.103
   106   6 C    3.996 --   105 C    1.020   138 H    0.986   140 H    0.975
                           139 H    0.973
   107   6 C    3.993 --   105 C    1.420   108 C    1.414   141 H    0.970
                           111 C    0.103
   108   6 C    3.988 --   107 C    1.414   110 C    1.414   109 C    1.020
                           104 C    0.104
   109   6 C    3.996 --   108 C    1.020   144 H    0.983   142 H    0.983
                           143 H    0.971
   110   6 C    3.993 --   111 C    1.421   108 C    1.414   145 H    0.970
                           105 C    0.103
   111   6 C    3.984 --   110 C    1.421   104 C    1.381   112 C    1.020
                           107 C    0.103
   112   6 C    3.996 --   111 C    1.020   146 H    0.986   148 H    0.974
                           147 H    0.974
   113   6 C    3.929 --   103 C    1.329   117 N    1.310   114 C    1.117
   114   6 C    3.968 --   115 C    1.723   113 C    1.117   149 H    0.975
   115   6 C    3.966 --   114 C    1.723   116 C    1.117   150 H    0.976
   116   6 C    3.930 --    76 C    1.363   117 N    1.304   115 C    1.117
   117   7 N    3.011 --   113 C    1.310   116 C    1.304
   118   1 H    1.002 --    76 C    0.971
   119   1 H    0.998 --    78 C    0.977
   120   1 H    1.002 --    79 C    0.976
   121   1 H    0.987 --    81 N    0.874
   122   1 H    1.008 --    85 C    0.974
   123   1 H    1.004 --    85 C    0.986
   124   1 H    1.007 --    85 C    0.974
   125   1 H    1.000 --    86 C    0.970
   126   1 H    1.006 --    88 C    0.971
   127   1 H    1.004 --    88 C    0.983
   128   1 H    1.004 --    88 C    0.983
   129   1 H    1.000 --    89 C    0.970
   130   1 H    1.008 --    91 C    0.975
   131   1 H    1.004 --    91 C    0.986
   132   1 H    1.008 --    91 C    0.973
   133   1 H    1.002 --    93 C    0.975
   134   1 H    1.003 --    94 C    0.975
   135   1 H    1.002 --    99 C    0.975
   136   1 H    1.002 --   100 C    0.975
   137   1 H    0.988 --   102 N    0.873
   138   1 H    1.004 --   106 C    0.986
   139   1 H    1.008 --   106 C    0.973
   140   1 H    1.007 --   106 C    0.975
   141   1 H    1.000 --   107 C    0.970
   142   1 H    1.004 --   109 C    0.983
   143   1 H    1.006 --   109 C    0.971
   144   1 H    1.004 --   109 C    0.983
   145   1 H    1.000 --   110 C    0.970
   146   1 H    1.004 --   112 C    0.986
   147   1 H    1.008 --   112 C    0.974
   148   1 H    1.008 --   112 C    0.974
   149   1 H    1.002 --   114 C    0.975
   150   1 H    0.998 --   115 C    0.976
   151   6 C    3.932 --   152 C    2.472   153 C    1.311
   152   6 C    3.925 --   151 C    2.472    22 C    1.192   154 C    0.199
   153   6 C    3.932 --   154 C    2.472   151 C    1.311
   154   6 C    3.925 --   153 C    2.472    97 C    1.192   152 C    0.199
 ---------------------------------------------------------------------------

           -------------------------------------------------
          | TOTAL ENERGY             -230.196665590838 Eh   |
          | GRADIENT NORM               0.000462339332 Eh/α |
          | HOMO-LUMO GAP               0.991547593385 eV   |
           -------------------------------------------------

 * finished run on 2022/07/28 at 18:59:17.503
