   * xtb version 6.5.1 (b24c23e) compiled by 'conda@728c89f4b128' on 2022-07-12
          program call               : xtb p-CP_C8_2.xyz --gfn 1 --opt -T 48

   ID    Z sym.   atoms
    1    6 C      1-5, 7-10, 12-23, 26-31, 34-38, 41, 42, 64-68, 70-73,
                  75-86, 89-94, 97-101, 104, 105, 127-134
    2    7 N      6, 11, 32, 33, 69, 74, 95, 96
    3    8 O      24, 25, 39, 40, 87, 88, 102, 103
    4    1 H      43-63, 106-126
########################################################################
[WARNING] Please study the warnings concerning your input carefully
-1- prog_main_parseArguments: Unknown option '-T' provided
########################################################################

          :  Hamiltonian                  GFN1-xTB          :
 * total energy  :  -245.8109503 Eh     change       -0.8419647E-09 Eh
 * total energy  :  -246.0694367 Eh     change       -0.2584864E+00 Eh
 * total energy  :  -246.1551575 Eh     change       -0.8572074E-01 Eh
 * total energy  :  -246.1857673 Eh     change       -0.3060982E-01 Eh
 * total energy  :  -246.1980031 Eh     change       -0.1223582E-01 Eh
 * total energy  :  -246.2050827 Eh     change       -0.7079559E-02 Eh
 * total energy  :  -246.2078465 Eh     change       -0.2763803E-02 Eh
 * total energy  :  -246.2092802 Eh     change       -0.1433768E-02 Eh
 * total energy  :  -246.2111582 Eh     change       -0.1877961E-02 Eh
 * total energy  :  -246.2125021 Eh     change       -0.1343914E-02 Eh
 * total energy  :  -246.2210560 Eh     change       -0.1441096E-04 Eh
 * total energy  :  -246.2210616 Eh     change       -0.5611291E-05 Eh
 * total energy  :  -246.2210650 Eh     change       -0.3413594E-05 Eh
 * total energy  :  -246.2210512 Eh     change        0.1380216E-04 Eh
 * total energy  :  -246.2210711 Eh     change       -0.1982223E-04 Eh
 * total energy  :  -246.2210231 Eh     change        0.4795962E-04 Eh
 * total energy  :  -246.2210721 Eh     change       -0.4896010E-04 Eh
 * total energy  :  -246.2210784 Eh     change       -0.6287102E-05 Eh
 * total energy  :  -246.2210823 Eh     change       -0.3910014E-05 Eh
   *** GEOMETRY OPTIMIZATION CONVERGED AFTER 51 ITERATIONS ***

 final structure:
================
134
 xtb: 6.5.1 (b24c23e)
C           11.89786833200663       -0.11424395483947        0.04170349188789
C           12.51238154396785       -1.34692237991070       -0.13607462894464
C           11.86716449130756       -2.60589858759842       -0.29126320198640
C           12.83401059436997       -3.55656751505301       -0.45983214492731
C           14.10110200743553       -2.90726076268312       -0.42068658907034
N           13.85666161916554       -1.57984308416355       -0.21337697143751
C           15.36699970184531       -3.49213356014068       -0.54081692761933
C           16.58097061588226       -2.80828820765029       -0.44031310396419
C           17.88011341396082       -3.43146786553190       -0.61987962955335
C           18.79789286753057       -2.45871357719623       -0.44395920124077
N           16.73124827223095       -1.47953461108516       -0.18418417909744
C           18.05815731519038       -1.24159768837476       -0.17066627868109
C           18.69179303715773       -0.00500119600873        0.07030889046298
C           18.05064397460412        1.23003690075886        0.28455553923199
C           18.68845897268926        2.47414461375615        0.53288724633766
C           17.71719121620410        3.42826745062927        0.65974053186689
C           16.45510031726653        2.79515241964030        0.48623582636229
C           15.19021018197816        3.38984830361748        0.55157129976806
C           15.15197124779781        4.85706154845855        0.75484106760197
C           15.73815964956938        5.71492587758734       -0.18012590343113
C           15.69165478712710        7.08448380232414        0.00303180202527
C           15.06371654315730        7.62307692090696        1.12779165284348
C           15.03902462370481        9.09743384159051        1.27933655215331
O           14.40843083315658        9.51281558562243        2.38840278220143
O           15.53016767636394        9.87017725164000        0.49620041812603
C           14.48216353971661        6.77113029008620        2.06736765339040
C           14.52516423114165        5.40082362556095        1.87920929017610
C           13.97499978568128        2.70592421585499        0.43616293983836
C           12.66857731982672        3.34604701816976        0.46305864584508
C           11.75794110313255        2.36141274554120        0.32771122678923
C           12.50671603755528        1.12319863557762        0.20270273376376
N           13.83842457432173        1.37007768341700        0.26445762180140
N           16.70830542959672        1.46630926372156        0.27187727936666
C           15.40215271774596       -4.95176479632994       -0.79715116897313
C           14.81908567559537       -5.47904200207800       -1.95233548810766
C           14.85317213365288       -6.84018855955139       -2.19984021173890
C           15.46765092382201       -7.69941309637398       -1.28841012910514
C           15.53001545424321       -9.16430499651612       -1.50664351666753
O           14.94760091034741       -9.56235078871590       -2.64802354737726
O           16.04780134205686       -9.94390311446821       -0.74795007507461
C           16.04760419080278       -7.17754539180159       -0.13043377718055
C           16.01735239685023       -5.81669999464399        0.11190528566670
H           10.81264331852682       -0.12814625323768        0.04650600660316
H           10.79906436837245       -2.75219728914887       -0.26984755448625
H           12.68877659380736       -4.61666103672479       -0.59031373336115
H           14.57742641996807       -0.87116308414072       -0.12702941099637
H           18.04563472762961       -4.46885991156239       -0.86115248383576
H           19.87228895388484       -2.52986149347847       -0.49876291321029
H           19.75520151052718        2.61081491649364        0.60735128823357
H           17.85864183496518        4.47657430531332        0.86614053949925
H           16.21285156567901        5.30000170694260       -1.06209892665789
H           16.13749226009464        7.75562572338557       -0.72287365882513
H           14.43604988288502       10.48307492015416        2.41276333431475
H           13.99805167872027        7.18445874759009        2.94426646054907
H           14.08429523865041        4.73900399221052        2.61606259624648
H           12.49640614622585        4.40587467830364        0.55982150945466
H           10.68211504667986        2.43519336716759        0.30018811413251
H           15.99065303011634        0.76322463356768        0.12958213173158
H           14.35380431415460       -4.81046954002852       -2.66798788133431
H           14.40509673995655       -7.24007450181663       -3.10177792422046
H           15.03334901344439      -10.52708764882780       -2.71661513115289
H           16.51882280719640       -7.85494046553942        0.57326402767864
H           16.45742702548213       -5.41486703059411        1.01740473853403
C           37.22834284852735        0.08163233132549        0.08421537966005
C           36.61392466439344        1.26218830811138        0.48111503068638
C           37.25925203400614        2.45617425115921        0.90928407972706
C           36.29250541763422        3.38119649373433        1.18632318102415
C           35.02538415887216        2.78406249571275        0.92853052832867
N           35.26967947918141        1.50516697058469        0.51681500685184
C           33.75946445470616        3.36107492298811        1.08227556848691
C           32.54564632293128        2.70510952960467        0.86341624596079
C           31.24648951890961        3.34316802396111        0.97934319266600
C           30.32888748051489        2.39470068830304        0.70016510963604
N           32.39557465714922        1.40222570619733        0.49761584434595
C           31.06877268263761        1.18362202016401        0.40160053228867
C           30.43517435131826       -0.03045343541974        0.06490561262086
C           31.07639878485440       -1.23112251482494       -0.29505130525998
C           30.43856175461508       -2.45558417120338       -0.62686825402995
C           31.40969156001785       -3.36551683948914       -0.94112385459049
C           32.67168405468529       -2.72080972954834       -0.81653924658485
C           33.93650307615440       -3.28078171224332       -1.02786749014653
C           33.97481516054471       -4.68357634555869       -1.50315036428624
C           33.38183410382673       -5.03357569366204       -2.71957535952144
C           33.42837433004943       -6.34014898296800       -3.16909658330652
C           34.06336300285038       -7.32383527625001       -2.40841345431624
C           34.08791757834327       -8.71000288639229       -2.93303857133634
O           34.72610348915904       -9.57636504752160       -2.13163903740180
O           33.59103203780194       -9.05146253336228       -3.97621173417168
C           34.65180724619672       -6.98125639000537       -1.19054824254543
C           34.60850695056530       -5.67181627893641       -0.74506300536769
C           35.15157689273309       -2.61623071594299       -0.82801376848848
C           36.45792922662237       -3.19852103757258       -1.09562179560345
C           37.36839277608176       -2.25727920806040       -0.77591972427462
C           36.61954773527977       -1.09605110443305       -0.32845353396762
N           35.28794672960964       -1.34563305256917       -0.38127742955698
N           32.41860458694684       -1.43626725571966       -0.41428021366709
C           33.72400684298211        4.78046542997958        1.50812413676801
C           34.31077707713693        5.76965942608207        0.71459870789893
C           34.27629417064761        7.09714606499962        1.10411734647006
C           33.65753007410559        7.45652249750061        2.30183564622866
C           33.59420058027082        8.86368328375499        2.76369005933893
O           34.18013080703386        9.73111575131251        1.92424771687809
O           33.07318054279259        9.22036265015672        3.78976582181761
C           33.07402442256598        6.47092805939370        3.10041108836195
C           33.10472373585283        5.14603019829496        2.70641283307604
H           38.31357868683984        0.09223757051860        0.09359886800082
H           38.32735166931153        2.57698773456875        0.99454246563477
H           36.43792496042256        4.38652216803730        1.54700146819588
H           34.54879013761047        0.83359106624616        0.27495732136925
H           31.08085123871258        4.37902771499094        1.22702406570641
H           29.25454838951191        2.48311009999932        0.68103994094943
H           29.37193970878077       -2.61183708026786       -0.61917532689620
H           31.26809820370831       -4.39586100022484       -1.22376984784268
H           32.90183755261861       -4.26883092546804       -3.31969224473197
H           32.97706776242033       -6.61638093031773       -4.11574990097384
H           34.69816344224400      -10.45482017038826       -2.54431873142820
H           35.14144927162474       -7.74227307577109       -0.59450905364330
H           35.05455768530811       -5.40895290261136        0.20744074257024
H           36.63020113725949       -4.18822665385095       -1.48682609961529
H           38.44411459091472       -2.30955780751566       -0.83666558201333
H           33.13623558219590       -0.74329781333197       -0.22879729089276
H           34.77921292211461        5.49306719992187       -0.22332479285192
H           34.72724383117417        7.85888853820405        0.47916798708783
H           34.09355579755275       10.62416638460393        2.29537437614280
H           32.59917040509901        6.76090284560665        4.03128608063079
H           32.66172274481553        4.38096932982593        3.33371099334127
C           20.09688607018456        0.00826630295533        0.09032592709169
C           21.32166378497682        0.00515517353797        0.10498850746310
C           22.66393449669247       -0.00379005083067        0.11371316420994
C           23.89474886031389       -0.02168462788502        0.11550791587843
C           25.23224817546039       -0.03733441617771        0.11213605425880
C           26.46307132880441       -0.05244707501459        0.10361740743006
C           27.80532982244709       -0.05685585741000        0.09087289214243
C           29.03011826135614       -0.05171663293627        0.07728375950849

          :  Hamiltonian                  GFN1-xTB          :
         :: total energy            -246.221082264140 Eh    ::
         :: gradient norm              0.000335940127 Eh/a0 ::
         :: HOMO-LUMO gap              1.030955492373 eV    ::
         :: SCC energy              -250.018892671861 Eh    ::
         :: repulsion energy           3.907966901538 Eh    ::

    * Orbital Energies and Occupations

         #    Occupation            Energy/Eh            Energy/eV
      -------------------------------------------------------------
         1        2.0000           -0.8324210             -22.6513
       ...           ...                  ...                  ...
       205        2.0000           -0.4302212             -11.7069
       206        2.0000           -0.4290051             -11.6738
       207        2.0000           -0.4283465             -11.6559
       208        2.0000           -0.4255411             -11.5796
       209        2.0000           -0.4254758             -11.5778
       210        2.0000           -0.4238063             -11.5324
       211        2.0000           -0.4237696             -11.5314
       212        2.0000           -0.4204131             -11.4400
       213        2.0000           -0.4138387             -11.2611
       214        2.0000           -0.4076017             -11.0914
       215        2.0000           -0.4073245             -11.0839
       216        2.0000           -0.3955780             -10.7642
       217        2.0000           -0.3874370             -10.5427 (HOMO)
       218                         -0.3495501              -9.5117 (LUMO)
       219                         -0.3421261              -9.3097
       220                         -0.3413836              -9.2895
       221                         -0.3393497              -9.2342
       222                         -0.3170084              -8.6262
       223                         -0.3146548              -8.5622
       224                         -0.3086641              -8.3992
       225                         -0.3085892              -8.3971
       226                         -0.3066734              -8.3450
       227                         -0.3047902              -8.2938
       228                         -0.2977310              -8.1017
       ...                                ...                  ...
       452                          1.5991725              43.5157
      -------------------------------------------------------------
                  HL-Gap            0.0378869 Eh            1.0310 eV

Wiberg/Mayer (AO) data.
largest (>0.10) Wiberg bond orders for each atom

     #   Z sym  total        # sym  WBO       # sym  WBO       # sym  WBO
 ---------------------------------------------------------------------------
     1   6 C    3.926 --    31 C    1.367     2 C    1.347    43 H    0.971
     2   6 C    3.901 --     1 C    1.347     3 C    1.229     6 N    1.169
     3   6 C    3.953 --     4 C    1.596     2 C    1.229    44 H    0.976
     4   6 C    3.959 --     3 C    1.596     5 C    1.234    45 H    0.974
     5   6 C    3.896 --     7 C    1.301     4 C    1.234     6 N    1.179
     6   7 N    3.470 --     5 C    1.179     2 C    1.169    46 H    0.873
     7   6 C    3.938 --     8 C    1.334     5 C    1.301    34 C    1.032
     8   6 C    3.914 --     7 C    1.334    11 N    1.286     9 C    1.124
     9   6 C    3.965 --    10 C    1.711     8 C    1.124    47 H    0.973
    10   6 C    3.963 --     9 C    1.711    12 C    1.127    48 H    0.974
    11   7 N    3.022 --    12 C    1.345     8 C    1.286
    12   6 C    3.906 --    11 N    1.345    13 C    1.253    10 C    1.127
    13   6 C    3.938 --    12 C    1.253    14 C    1.251   127 C    1.193
    14   6 C    3.883 --    13 C    1.251    15 C    1.249    33 N    1.189
    15   6 C    3.959 --    16 C    1.583    14 C    1.249    49 H    0.975
    16   6 C    3.954 --    15 C    1.583    17 C    1.240    50 H    0.974
    17   6 C    3.898 --    18 C    1.308    16 C    1.240    33 N    1.166
    18   6 C    3.924 --    28 C    1.319    17 C    1.308    19 C    1.034
    19   6 C    3.986 --    27 C    1.385    20 C    1.384    18 C    1.034
    20   6 C    3.986 --    21 C    1.465    19 C    1.384    51 H    0.972
                            26 C    0.102
    21   6 C    3.990 --    20 C    1.465    22 C    1.384    52 H    0.968
                            27 C    0.102
    22   6 C    3.981 --    26 C    1.388    21 C    1.384    23 C    1.010
    23   6 C    3.835 --    25 O    1.689    24 O    1.088    22 C    1.010
    24   8 O    2.096 --    23 C    1.088    53 H    0.838    25 O    0.128
    25   8 O    1.957 --    23 C    1.689    24 O    0.128
    26   6 C    3.991 --    27 C    1.462    22 C    1.388    54 H    0.970
                            20 C    0.102
    27   6 C    3.987 --    26 C    1.462    19 C    1.385    55 H    0.972
                            21 C    0.102
    28   6 C    3.929 --    18 C    1.319    32 N    1.318    29 C    1.117
    29   6 C    3.967 --    30 C    1.724    28 C    1.117    56 H    0.973
    30   6 C    3.966 --    29 C    1.724    31 C    1.116    57 H    0.976
    31   6 C    3.928 --     1 C    1.367    32 N    1.299    30 C    1.116
    32   7 N    3.012 --    28 C    1.318    31 C    1.299
    33   7 N    3.474 --    14 C    1.189    17 C    1.166    58 H    0.873
    34   6 C    3.986 --    35 C    1.386    42 C    1.384     7 C    1.032
    35   6 C    3.987 --    36 C    1.462    34 C    1.386    59 H    0.972
                            41 C    0.102
    36   6 C    3.991 --    35 C    1.462    37 C    1.388    60 H    0.970
                            42 C    0.102
    37   6 C    3.982 --    36 C    1.388    41 C    1.385    38 C    1.010
    38   6 C    3.836 --    40 O    1.690    39 O    1.088    37 C    1.010
    39   8 O    2.096 --    38 C    1.088    61 H    0.838    40 O    0.128
    40   8 O    1.958 --    38 C    1.690    39 O    0.128
    41   6 C    3.990 --    42 C    1.465    37 C    1.385    62 H    0.968
                            35 C    0.102
    42   6 C    3.987 --    41 C    1.465    34 C    1.384    63 H    0.972
                            36 C    0.102
    43   1 H    1.002 --     1 C    0.971
    44   1 H    0.997 --     3 C    0.976
    45   1 H    1.004 --     4 C    0.974
    46   1 H    0.986 --     6 N    0.873
    47   1 H    1.004 --     9 C    0.973
    48   1 H    1.002 --    10 C    0.974
    49   1 H    1.001 --    15 C    0.975
    50   1 H    1.004 --    16 C    0.974
    51   1 H    1.004 --    20 C    0.972
    52   1 H    1.005 --    21 C    0.968
    53   1 H    0.873 --    24 O    0.838
    54   1 H    1.005 --    26 C    0.970
    55   1 H    1.004 --    27 C    0.972
    56   1 H    1.004 --    29 C    0.973
    57   1 H    0.998 --    30 C    0.976
    58   1 H    0.987 --    33 N    0.873
    59   1 H    1.004 --    35 C    0.972
    60   1 H    1.005 --    36 C    0.970
    61   1 H    0.873 --    39 O    0.838
    62   1 H    1.005 --    41 C    0.968
    63   1 H    1.004 --    42 C    0.972
    64   6 C    3.926 --    94 C    1.367    65 C    1.347   106 H    0.971
    65   6 C    3.901 --    64 C    1.347    66 C    1.229    69 N    1.169
    66   6 C    3.953 --    67 C    1.596    65 C    1.229   107 H    0.976
    67   6 C    3.959 --    66 C    1.596    68 C    1.234   108 H    0.974
    68   6 C    3.896 --    70 C    1.301    67 C    1.234    69 N    1.179
    69   7 N    3.470 --    68 C    1.179    65 C    1.169   109 H    0.873
    70   6 C    3.938 --    71 C    1.334    68 C    1.301    97 C    1.032
    71   6 C    3.914 --    70 C    1.334    74 N    1.286    72 C    1.124
    72   6 C    3.965 --    73 C    1.711    71 C    1.124   110 H    0.973
    73   6 C    3.963 --    72 C    1.711    75 C    1.127   111 H    0.974
    74   7 N    3.022 --    75 C    1.345    71 C    1.286
    75   6 C    3.906 --    74 N    1.345    76 C    1.253    73 C    1.127
    76   6 C    3.938 --    75 C    1.253    77 C    1.251   134 C    1.193
    77   6 C    3.883 --    76 C    1.251    78 C    1.249    96 N    1.189
    78   6 C    3.959 --    79 C    1.583    77 C    1.249   112 H    0.975
    79   6 C    3.954 --    78 C    1.583    80 C    1.240   113 H    0.974
    80   6 C    3.898 --    81 C    1.308    79 C    1.240    96 N    1.166
    81   6 C    3.924 --    91 C    1.319    80 C    1.308    82 C    1.034
    82   6 C    3.986 --    90 C    1.385    83 C    1.384    81 C    1.034
    83   6 C    3.986 --    84 C    1.465    82 C    1.384   114 H    0.972
                            89 C    0.102
    84   6 C    3.990 --    83 C    1.465    85 C    1.384   115 H    0.968
                            90 C    0.102
    85   6 C    3.981 --    89 C    1.388    84 C    1.384    86 C    1.010
    86   6 C    3.835 --    88 O    1.689    87 O    1.088    85 C    1.010
    87   8 O    2.096 --    86 C    1.088   116 H    0.838    88 O    0.128
    88   8 O    1.957 --    86 C    1.689    87 O    0.128
    89   6 C    3.991 --    90 C    1.462    85 C    1.388   117 H    0.970
                            83 C    0.102
    90   6 C    3.987 --    89 C    1.462    82 C    1.385   118 H    0.972
                            84 C    0.102
    91   6 C    3.929 --    81 C    1.319    95 N    1.318    92 C    1.117
    92   6 C    3.967 --    93 C    1.724    91 C    1.117   119 H    0.973
    93   6 C    3.966 --    92 C    1.724    94 C    1.116   120 H    0.976
    94   6 C    3.928 --    64 C    1.367    95 N    1.299    93 C    1.116
    95   7 N    3.012 --    91 C    1.318    94 C    1.299
    96   7 N    3.474 --    77 C    1.189    80 C    1.166   121 H    0.873
    97   6 C    3.986 --    98 C    1.386   105 C    1.384    70 C    1.032
    98   6 C    3.987 --    99 C    1.462    97 C    1.386   122 H    0.972
                           104 C    0.102
    99   6 C    3.991 --    98 C    1.462   100 C    1.388   123 H    0.970
                           105 C    0.102
   100   6 C    3.982 --    99 C    1.388   104 C    1.385   101 C    1.010
   101   6 C    3.836 --   103 O    1.690   102 O    1.088   100 C    1.010
   102   8 O    2.096 --   101 C    1.088   124 H    0.838   103 O    0.128
   103   8 O    1.958 --   101 C    1.690   102 O    0.128
   104   6 C    3.990 --   105 C    1.465   100 C    1.385   125 H    0.968
                            98 C    0.102
   105   6 C    3.987 --   104 C    1.465    97 C    1.384   126 H    0.972
                            99 C    0.102
   106   1 H    1.002 --    64 C    0.971
   107   1 H    0.997 --    66 C    0.976
   108   1 H    1.004 --    67 C    0.974
   109   1 H    0.986 --    69 N    0.873
   110   1 H    1.004 --    72 C    0.973
   111   1 H    1.002 --    73 C    0.974
   112   1 H    1.001 --    78 C    0.975
   113   1 H    1.004 --    79 C    0.974
   114   1 H    1.004 --    83 C    0.972
   115   1 H    1.005 --    84 C    0.968
   116   1 H    0.873 --    87 O    0.838
   117   1 H    1.005 --    89 C    0.970
   118   1 H    1.004 --    90 C    0.972
   119   1 H    1.004 --    92 C    0.973
   120   1 H    0.998 --    93 C    0.976
   121   1 H    0.987 --    96 N    0.873
   122   1 H    1.004 --    98 C    0.972
   123   1 H    1.005 --    99 C    0.970
   124   1 H    0.873 --   102 O    0.838
   125   1 H    1.005 --   104 C    0.968
   126   1 H    1.004 --   105 C    0.972
   127   6 C    3.877 --   128 C    2.437    13 C    1.193   130 C    0.186
   128   6 C    3.932 --   127 C    2.437   129 C    1.346
   129   6 C    3.892 --   130 C    2.333   128 C    1.346   132 C    0.182
   130   6 C    3.924 --   129 C    2.333   131 C    1.371   127 C    0.186
   131   6 C    3.924 --   132 C    2.333   130 C    1.371   134 C    0.186
   132   6 C    3.892 --   131 C    2.333   133 C    1.346   129 C    0.182
   133   6 C    3.932 --   134 C    2.437   132 C    1.346
   134   6 C    3.877 --   133 C    2.437    76 C    1.193   131 C    0.186
 ---------------------------------------------------------------------------

           -------------------------------------------------
          | TOTAL ENERGY             -246.221082264140 Eh   |
          | GRADIENT NORM               0.000335940127 Eh/α |
          | HOMO-LUMO GAP               1.030955492373 eV   |
           -------------------------------------------------

 * finished run on 2022/07/30 at 21:53:15.059
