   * xtb version 6.5.1 (b24c23e) compiled by 'conda@728c89f4b128' on 2022-07-12
          program call               : xtb PhNO2_C2_3.xyz --gfn 1 --opt -T 48

   ID    Z sym.   atoms
    1    6 C      1-5, 7-11, 15-19, 21-26, 28-32, 36-41, 62-66, 68-72, 76-80,
                  82-87, 89-93, 97-102, 123-131, 133-137, 141-145, 147-152,
                  154-158, 162-167
    2    7 N      6, 12, 20, 27, 33, 42, 67, 73, 81, 88, 94, 103, 132, 138,
                  146, 153, 159, 168
    3    8 O      13, 14, 34, 35, 74, 75, 95, 96, 139, 140, 160, 161
    4    1 H      43-61, 104-122, 169-186
########################################################################
[WARNING] Please study the warnings concerning your input carefully
-1- prog_main_parseArguments: Unknown option '-T' provided
########################################################################

          :  Hamiltonian                  GFN1-xTB          :
 * total energy  :  -353.7897277 Eh     change       -0.5259153E-09 Eh
 * total energy  :  -354.2118515 Eh     change       -0.4221238E+00 Eh
 * total energy  :  -354.3647249 Eh     change       -0.1528734E+00 Eh
 * total energy  :  -354.4352917 Eh     change       -0.7056679E-01 Eh
 * total energy  :  -354.4627049 Eh     change       -0.2741318E-01 Eh
 * total energy  :  -354.4826923 Eh     change       -0.1998740E-01 Eh
 * total energy  :  -354.4975445 Eh     change       -0.1485226E-01 Eh
 * total energy  :  -354.5090689 Eh     change       -0.1152439E-01 Eh
 * total energy  :  -354.5174205 Eh     change       -0.8351621E-02 Eh
 * total energy  :  -354.5244067 Eh     change       -0.6986127E-02 Eh
 * total energy  :  -354.5523957 Eh     change       -0.1021579E-04 Eh
 * total energy  :  -354.5524050 Eh     change       -0.9265177E-05 Eh
 * total energy  :  -354.5524183 Eh     change       -0.1333312E-04 Eh
 * total energy  :  -354.5524306 Eh     change       -0.1232010E-04 Eh
 * total energy  :  -354.5524256 Eh     change        0.5039882E-05 Eh
 * total energy  :  -354.5524358 Eh     change       -0.1021352E-04 Eh
 * total energy  :  -354.5524376 Eh     change       -0.1810648E-05 Eh
 * total energy  :  -354.5524442 Eh     change       -0.6551875E-05 Eh
 * total energy  :  -354.5524490 Eh     change       -0.4854548E-05 Eh
   *** GEOMETRY OPTIMIZATION CONVERGED AFTER 72 ITERATIONS ***

 final structure:
================
186
 xtb: 6.5.1 (b24c23e)
C           31.78625608706108       -0.01521454991404       -0.01401081969115
C           32.37490685944677       -1.24082195845793        0.26734960408418
C           31.70337538773629       -2.46892529088668        0.52560637455861
C           32.65036470656986       -3.42539270578845        0.75791627789990
C           33.93137277613134       -2.80929840024895        0.65912390469486
N           33.71447267236049       -1.49658130178758        0.35409825678824
C           35.18625865499001       -3.41289807056954        0.80046261482170
C           35.19129165375802       -4.85357554167596        1.14725717977598
C           35.77896951881792       -5.78710789136713        0.28795638367785
C           35.78146158625298       -7.13265022045890        0.60735538862035
C           35.19378592888914       -7.54905416601543        1.79851348640484
N           35.19263719370704       -8.96122053373507        2.13839888779946
O           35.71971611264423       -9.72052667139233        1.36655347467856
O           34.66325807877936       -9.28554412874915        3.17017991672574
C           34.60506158244652       -6.63610915010801        2.66870427849245
C           34.60442119745109       -5.29329104142400        2.33789800068838
C           36.41555450924483       -2.76649602418432        0.64303683498998
C           37.70031894782903       -3.41455599422439        0.83744637009719
C           38.63945169932710       -2.47513030209832        0.60571871408057
N           36.59660330756407       -1.45695397952662        0.32008672977115
C           37.93009880486157       -1.25139678972525        0.28711543329761
C           38.59074984008323       -0.04480124868492       -0.01761364115699
C           37.97400550632063        1.18253417296502       -0.32585208040260
C           38.63484210384476        2.39929838436623       -0.63980694679158
C           37.68245377581876        3.35266911380690       -0.86963649777535
C           36.40720572739009        2.74974981120139       -0.68709180521776
N           36.63490907166313        1.43778266791821       -0.36739871010697
C           35.15337344727064        3.35465976721588       -0.83355826069841
C           35.14347044581191        4.79430064933779       -1.18138630493629
C           34.53811024912859        5.22828237249034       -2.36514430252489
C           34.52239341984223        6.57077490569928       -2.69625808466388
C           35.11408896101303        7.48961405399644       -1.83411111162939
N           35.09780946137116        8.90134166795025       -2.17494010612257
O           34.54407084588527        9.22217853081799       -3.19494329631611
O           35.64013996825371        9.66372546567495       -1.41660120193214
C           35.72041989102866        7.07915878454031       -0.65030753035053
C           35.73430018211352        5.73376080571482       -0.33054082965642
C           33.92317333385324        2.70767418303987       -0.67288354717580
C           32.63053042975787        3.36992277097542       -0.76763407134699
C           31.69931260693402        2.42354777173183       -0.53713859528297
C           32.42159565578319        1.18755978191341       -0.29073907717082
N           33.75856560917024        1.39827082151333       -0.37320173493704
H           30.70111614444934       -0.00520778002026       -0.01412398500502
H           30.63231241565709       -2.59237032152898        0.52349464691447
H           32.48213188135979       -4.46888654672686        0.96899581165342
H           34.44989364442119       -0.81298651676777        0.20909632576173
H           36.22061122794759       -5.45219675680685       -0.64328548067245
H           36.22946937018531       -7.86391421772506       -0.05463578646826
H           34.15831811319620       -6.98499262627371        3.59196494787456
H           34.16181375466062       -4.57126462121253        3.01423039715125
H           37.84469422743611       -4.44351783766783        1.12376927423653
H           39.71127762651572       -2.57829783336165        0.64162919308413
H           39.70426693539612        2.52368046558135       -0.68221316375249
H           37.84752545676646        4.38035687430937       -1.14884794008297
H           35.90294288977607        0.75733505300714       -0.19131585200401
H           34.09263915144879        4.50166326805213       -3.03447871361376
H           34.06055091036013        6.91537534372453       -3.61367272091464
H           36.16910809601218        7.81480851110577        0.00634867100472
H           36.18862301420953        5.40444228275650        0.59669863917959
H           32.48108144650324        4.41857324647441       -0.96774291270667
H           30.62550568360326        2.52245799277957       -0.51909979603005
C           60.33757594826093        0.08119199705396       -0.08507118506338
C           59.72500526701730        1.26604572171988       -0.47124036919686
C           60.37261453540588        2.45710583353086       -0.90472742474230
C           59.40909095679968        3.39127232725774       -1.15938683422116
C           58.14170435015694        2.80339782191865       -0.87977704534891
N           58.38225180582280        1.51928770835223       -0.48389594866639
C           56.87687668613413        3.39285509422198       -0.99357045893265
C           56.84167904304739        4.81892306361806       -1.39102745377602
C           56.16224695579373        5.21514040297426       -2.54746618894987
C           56.12933448815727        6.54564959590587       -2.92304995995138
C           56.77829667663902        7.49053374825981       -2.13327776837338
N           56.74666726151801        8.88958402085432       -2.52221914021348
O           56.14860740192884        9.17529817467685       -3.52738896496106
O           57.32145532198462        9.67731625085325       -1.81543092360281
C           57.45807909844935        7.11802868651745       -0.97716969967063
C           57.48869758524631        5.78438548503328       -0.61297191721161
C           55.66255029372135        2.74235598315516       -0.75499605961173
C           54.36767591676949        3.39799667545465       -0.80280722300535
C           53.44950814857511        2.44898502660174       -0.52801993982357
N           55.51028059514204        1.43009007634101       -0.42952772134921
C           54.18378822239851        1.21871206198022       -0.30302130785746
C           53.54962620524463       -0.00136330181714        0.00311106282559
C           54.18773505753877       -1.21531714782456        0.31841379986157
C           53.54916034673622       -2.45454776979640        0.58823080981112
C           54.51797837842586       -3.37866756260096        0.86566978292923
C           55.78029062260470       -2.72877780281305        0.77878245314558
N           55.52969296062671       -1.42771052586877        0.43405043475159
C           57.04539087048958       -3.29673920085296        0.97186616302688
C           57.08305738507237       -4.71680173024316        1.38753736760416
C           57.74708313718784       -5.66486395419143        0.60206183778897
C           57.78783122131364       -6.99262370185821        0.98576655611612
C           57.16191190519588       -7.37746824493314        2.16810352120652
N           57.20337375726299       -8.77038295099915        2.57692820636578
O           57.80018851128734       -9.54117075800569        1.86977584746001
O           56.63739972788034       -9.06880218712483        3.59709278539993
C           56.49641278401482       -6.45030908560854        2.96507730153918
C           56.45793683464452       -5.12560992640010        2.57013823156892
C           58.26108237031787       -2.62566626362015        0.79664305147639
C           59.56753306018491       -3.21121055087589        1.05862341182514
C           60.47746319672408       -2.26418422449620        0.75645191191125
C           59.72833128798999       -1.09701952946765        0.32443361805728
N           58.39647262347346       -1.34680004795813        0.37513631588585
H           61.42262269419017        0.08742824669818       -0.10418457727602
H           61.43981221207411        2.56961781772392       -1.00893321518882
H           59.55744912200446        4.39627677924176       -1.51951311503981
H           57.65955671218069        0.85256147616156       -0.23407768512704
H           55.67278074449214        4.46834638914090       -3.16161618974730
H           55.61040333091805        6.86104272542353       -3.82024732557271
H           57.95086955073305        7.87330214866157       -0.37681349013289
H           58.00149805409849        5.48471535091470        0.29362166805286
H           54.20469157064029        4.44490821378301       -1.00067044977646
H           52.37875972738303        2.55232862086500       -0.45989744515282
H           52.48366107608778       -2.61459955007958        0.55997695317044
H           54.37324508784653       -4.42169799735819        1.09501022383273
H           56.24974607707842       -0.73005159362088        0.27750858775125
H           58.21779214591850       -5.35585294317016       -0.32386984203514
H           58.29523313216083       -7.73443405079814        0.38082607564673
H           56.02145361736360       -6.77434418826987        3.88331236603293
H           55.95704555770235       -4.39210076901584        3.19125746017813
H           59.74007411913526       -4.20570731527093        1.43710047944362
H           61.55289176855808       -2.31626675759123        0.81902178926606
C           40.00167936507552       -0.05082582386761       -0.01515901795973
C           41.21902701184725       -0.05421886498032       -0.01373912494169
C           50.92293573274592       -0.03476425600368       -0.01051853304790
C           52.13971216288315       -0.02071786307806        0.00066605425877
C           42.62917311072044       -0.05609846280606       -0.01829103688144
C           43.25588457560305        0.91136157413273       -0.82662655881949
C           42.61028935739640        1.88157474284620       -1.63564947540060
C           43.57572019864173        2.61420762744196       -2.26939318865539
C           44.84208861113847        2.10196606228286       -1.87585567052406
N           44.59841339458570        1.08061793562015       -0.99788144844194
C           46.10204795536102        2.56080201343280       -2.28064443037298
C           46.11068813489400        3.67304346894712       -3.26138970878056
C           46.68845970200667        4.90235261722137       -2.93029924423697
C           46.69637973539446        5.94326230757929       -3.84103671705110
C           46.12597871012295        5.75137297196321       -5.09604636188038
N           46.13239297251036        6.84055623683045       -6.05776331055537
O           45.62367689549858        6.63876625264782       -7.13039260558766
O           46.64522484820852        7.87668690635773       -5.72241117836350
C           45.54890221347339        4.53437972502555       -5.44674504065630
C           45.54136136424618        3.50174000805702       -4.52683269475609
C           47.33251837643253        2.05999587761380       -1.85134898858996
C           48.61379627033441        2.52723999591556       -2.35127539712064
C           49.55774056202922        1.80083956903252       -1.71890570967226
N           47.51903356698379        1.05865949406652       -0.94922279956453
C           48.85300272898308        0.88675530417415       -0.84157799743901
C           49.51379693495701       -0.04648198402422       -0.01983556509511
C           48.88875724218441       -1.00503477716356        0.79912518360215
C           49.53520187135620       -1.93103914095003        1.65803110060971
C           48.57030999098467       -2.68006562776491        2.27347613245393
C           47.30453640369802       -2.23447962229536        1.80364564642040
N           47.54731511446388       -1.21752473964924        0.92083796882779
C           46.04431739457716       -2.70322090332632        2.19551276205892
C           46.03751381782408       -3.83542875174244        3.15305093573684
C           46.60796562135376       -5.06139103479633        2.79727693042890
C           46.60416257707669       -6.12262090609791        3.68414929952170
C           46.02989769688272       -5.95442897156159        4.94076369475724
N           46.02827777382578       -7.06404464455291        5.87872655144663
O           45.51587725782716       -6.88390603300289        6.95333671835555
O           46.54096930446969       -8.09385891919476        5.52377948481465
C           45.45949743122182       -4.74146530525033        5.31571272688651
C           45.46400204613762       -3.68808461964417        4.41953346507614
C           44.81419384906322       -2.19857864941327        1.76925714829909
C           43.53249050061721       -2.74129075158317        2.18379284161141
C           42.58849448185863       -1.99875238811897        1.57108419871640
C           43.29196163429881       -1.01616047096450        0.77089848255444
N           44.62687677355500       -1.16273625673815        0.90667955771948
H           41.54262450895030        1.99882967923728       -1.72039045094163
H           43.42406745479093        3.44083280611613       -2.94392147577193
H           45.31761804653768        0.52999355781374       -0.54083003244256
H           47.11898829576359        5.04220686218365       -1.94566303227334
H           47.13605515181199        6.90152876656979       -3.59178679079568
H           45.11620041176127        4.40905253430558       -6.43200764297243
H           45.10706019255858        2.54501437582749       -4.79270066917698
H           48.75084853341244        3.29363768893607       -3.09661013721790
H           50.62861415242281        1.84873355095787       -1.83163604941932
H           50.60214248544285       -2.00201833939018        1.79283204384907
H           48.72091094092934       -3.46231095376312        2.99927720419856
H           46.82794346210899       -0.69064752991397        0.43695164590796
H           47.04078899681577       -5.18327532480169        1.81113147155914
H           47.03768491045669       -7.07831880871080        3.41504543939654
H           45.02276855276290       -4.63541650346246        6.30146225986472
H           45.03470208606513       -2.73461236235590        4.70410827464293
H           43.39385157223236       -3.58162525242380        2.84419039639004
H           41.51710808206171       -2.08894506614476        1.63970715362021

          :  Hamiltonian                  GFN1-xTB          :
         :: total energy            -354.552449029085 Eh    ::
         :: gradient norm              0.000455533865 Eh/a0 ::
         :: HOMO-LUMO gap              0.864336803902 eV    ::
         :: SCC energy              -359.495143958666 Eh    ::
         :: repulsion energy           5.107310944373 Eh    ::

    * Orbital Energies and Occupations

         #    Occupation            Energy/Eh            Energy/eV
      -------------------------------------------------------------
         1        2.0000           -0.9256757             -25.1889
       ...           ...                  ...                  ...
       297        2.0000           -0.4459201             -12.1341
       298        2.0000           -0.4454933             -12.1225
       299        2.0000           -0.4440667             -12.0837
       300        2.0000           -0.4436423             -12.0721
       301        2.0000           -0.4434321             -12.0664
       302        2.0000           -0.4421043             -12.0303
       303        2.0000           -0.4417290             -12.0201
       304        2.0000           -0.4280628             -11.6482
       305        2.0000           -0.4261330             -11.5957
       306        2.0000           -0.4259481             -11.5906
       307        2.0000           -0.4207347             -11.4488
       308        2.0000           -0.4129343             -11.2365
       309        2.0000           -0.4043566             -11.0031 (HOMO)
       310        0.0000           -0.3725928             -10.1388 (LUMO)
       311                         -0.3641663              -9.9095
       312                         -0.3640690              -9.9068
       313                         -0.3631777              -9.8826
       314                         -0.3603246              -9.8049
       315                         -0.3523529              -9.5880
       316                         -0.3523034              -9.5867
       317                         -0.3516595              -9.5691
       318                         -0.3502519              -9.5308
       319                         -0.3478532              -9.4656
       320                         -0.3465482              -9.4301
       ...                                ...                  ...
       632                          1.3107366              35.6670
      -------------------------------------------------------------
                  HL-Gap            0.0317638 Eh            0.8643 eV

Wiberg/Mayer (AO) data.
largest (>0.10) Wiberg bond orders for each atom

     #   Z sym  total        # sym  WBO       # sym  WBO       # sym  WBO
 ---------------------------------------------------------------------------
     1   6 C    3.926 --    41 C    1.368     2 C    1.348    43 H    0.970
     2   6 C    3.899 --     1 C    1.348     3 C    1.227     6 N    1.169
     3   6 C    3.954 --     4 C    1.598     2 C    1.227    44 H    0.976
     4   6 C    3.958 --     3 C    1.598     5 C    1.231    45 H    0.974
     5   6 C    3.897 --     7 C    1.301     4 C    1.231     6 N    1.180
     6   7 N    3.471 --     5 C    1.180     2 C    1.169    46 H    0.873
     7   6 C    3.936 --    17 C    1.331     5 C    1.301     8 C    1.034
     8   6 C    3.985 --    16 C    1.384     9 C    1.383     7 C    1.034
     9   6 C    3.987 --    10 C    1.464     8 C    1.383    47 H    0.971
                            15 C    0.102
    10   6 C    3.987 --     9 C    1.464    11 C    1.387    48 H    0.965
                            16 C    0.101
    11   6 C    3.941 --    15 C    1.387    10 C    1.387    12 N    0.921
    12   7 N    3.866 --    14 O    1.455    13 O    1.454    11 C    0.921
    13   8 O    1.829 --    12 N    1.454    14 O    0.252
    14   8 O    1.829 --    12 N    1.455    13 O    0.252
    15   6 C    3.987 --    16 C    1.463    11 C    1.387    49 H    0.964
                             9 C    0.102
    16   6 C    3.986 --    15 C    1.463     8 C    1.384    50 H    0.971
                            10 C    0.101
    17   6 C    3.914 --     7 C    1.331    20 N    1.290    18 C    1.123
    18   6 C    3.965 --    19 C    1.711    17 C    1.123    51 H    0.973
    19   6 C    3.964 --    18 C    1.711    21 C    1.127    52 H    0.968
    20   7 N    3.020 --    21 C    1.340    17 C    1.290
    21   6 C    3.912 --    20 N    1.340    22 C    1.262    19 C    1.127
    22   6 C    3.938 --    21 C    1.262    23 C    1.256   123 C    1.176
    23   6 C    3.888 --    22 C    1.256    24 C    1.248    27 N    1.187
    24   6 C    3.959 --    25 C    1.583    23 C    1.248    53 H    0.970
    25   6 C    3.954 --    24 C    1.583    26 C    1.240    54 H    0.974
    26   6 C    3.898 --    28 C    1.305    25 C    1.240    27 N    1.169
    27   7 N    3.474 --    23 C    1.187    26 C    1.169    55 H    0.872
    28   6 C    3.922 --    38 C    1.319    26 C    1.305    29 C    1.036
    29   6 C    3.984 --    37 C    1.383    30 C    1.382    28 C    1.036
    30   6 C    3.986 --    31 C    1.464    29 C    1.382    56 H    0.971
                            36 C    0.101
    31   6 C    3.987 --    30 C    1.464    32 C    1.387    57 H    0.964
                            37 C    0.101
    32   6 C    3.940 --    36 C    1.387    31 C    1.387    33 N    0.921
    33   7 N    3.865 --    34 O    1.455    35 O    1.454    32 C    0.921
    34   8 O    1.829 --    33 N    1.455    35 O    0.252
    35   8 O    1.829 --    33 N    1.454    34 O    0.252
    36   6 C    3.987 --    37 C    1.464    32 C    1.387    58 H    0.965
                            30 C    0.101
    37   6 C    3.985 --    36 C    1.464    29 C    1.383    59 H    0.971
                            31 C    0.101
    38   6 C    3.929 --    42 N    1.319    28 C    1.319    39 C    1.115
    39   6 C    3.967 --    40 C    1.726    38 C    1.115    60 H    0.973
    40   6 C    3.966 --    39 C    1.726    41 C    1.114    61 H    0.975
    41   6 C    3.926 --     1 C    1.368    42 N    1.298    40 C    1.114
    42   7 N    3.011 --    38 C    1.319    41 C    1.298
    43   1 H    1.001 --     1 C    0.970
    44   1 H    0.997 --     3 C    0.976
    45   1 H    1.003 --     4 C    0.974
    46   1 H    0.985 --     6 N    0.873
    47   1 H    1.004 --     9 C    0.971
    48   1 H    1.006 --    10 C    0.965
    49   1 H    1.006 --    15 C    0.964
    50   1 H    1.003 --    16 C    0.971
    51   1 H    1.004 --    18 C    0.973
    52   1 H    1.006 --    19 C    0.968
    53   1 H    1.005 --    24 C    0.970
    54   1 H    1.003 --    25 C    0.974
    55   1 H    0.987 --    27 N    0.872
    56   1 H    1.003 --    30 C    0.971
    57   1 H    1.006 --    31 C    0.964
    58   1 H    1.006 --    36 C    0.965
    59   1 H    1.003 --    37 C    0.971
    60   1 H    1.003 --    39 C    0.973
    61   1 H    0.997 --    40 C    0.975
    62   6 C    3.926 --   102 C    1.368    63 C    1.347   104 H    0.970
    63   6 C    3.899 --    62 C    1.347    64 C    1.228    67 N    1.169
    64   6 C    3.953 --    65 C    1.598    63 C    1.228   105 H    0.976
    65   6 C    3.958 --    64 C    1.598    66 C    1.231   106 H    0.974
    66   6 C    3.897 --    68 C    1.300    65 C    1.231    67 N    1.181
    67   7 N    3.471 --    66 C    1.181    63 C    1.169   107 H    0.873
    68   6 C    3.935 --    78 C    1.330    66 C    1.300    69 C    1.037
    69   6 C    3.985 --    77 C    1.382    70 C    1.382    68 C    1.037
    70   6 C    3.985 --    71 C    1.464    69 C    1.382   108 H    0.971
                            76 C    0.101
    71   6 C    3.987 --    70 C    1.464    72 C    1.387   109 H    0.964
                            77 C    0.101
    72   6 C    3.940 --    76 C    1.387    71 C    1.387    73 N    0.921
    73   7 N    3.866 --    74 O    1.455    75 O    1.454    72 C    0.921
    74   8 O    1.830 --    73 N    1.455    75 O    0.252
    75   8 O    1.829 --    73 N    1.454    74 O    0.252
    76   6 C    3.987 --    77 C    1.464    72 C    1.387   110 H    0.964
                            70 C    0.101
    77   6 C    3.985 --    76 C    1.464    69 C    1.382   111 H    0.971
                            71 C    0.101
    78   6 C    3.914 --    68 C    1.330    81 N    1.290    79 C    1.124
    79   6 C    3.965 --    80 C    1.711    78 C    1.124   112 H    0.973
    80   6 C    3.964 --    79 C    1.711    82 C    1.127   113 H    0.971
    81   7 N    3.020 --    82 C    1.340    78 C    1.290
    82   6 C    3.912 --    81 N    1.340    83 C    1.261    80 C    1.127
    83   6 C    3.937 --    82 C    1.261    84 C    1.257   126 C    1.176
    84   6 C    3.888 --    83 C    1.257    85 C    1.248    88 N    1.187
    85   6 C    3.959 --    86 C    1.582    84 C    1.248   114 H    0.972
    86   6 C    3.954 --    85 C    1.582    87 C    1.240   115 H    0.974
    87   6 C    3.898 --    89 C    1.304    86 C    1.240    88 N    1.169
    88   7 N    3.474 --    84 C    1.187    87 C    1.169   116 H    0.872
    89   6 C    3.922 --    99 C    1.317    87 C    1.304    90 C    1.039
    90   6 C    3.984 --    98 C    1.382    91 C    1.381    89 C    1.039
    91   6 C    3.985 --    92 C    1.465    90 C    1.381   117 H    0.971
                            97 C    0.101
    92   6 C    3.987 --    91 C    1.465    93 C    1.386   118 H    0.964
                            98 C    0.101
    93   6 C    3.940 --    97 C    1.387    92 C    1.386    94 N    0.921
    94   7 N    3.865 --    96 O    1.454    95 O    1.454    93 C    0.921
    95   8 O    1.828 --    94 N    1.454    96 O    0.252
    96   8 O    1.829 --    94 N    1.454    95 O    0.252
    97   6 C    3.987 --    98 C    1.464    93 C    1.387   119 H    0.964
                            91 C    0.101
    98   6 C    3.985 --    97 C    1.464    90 C    1.382   120 H    0.971
                            92 C    0.101
    99   6 C    3.929 --   103 N    1.320    89 C    1.317   100 C    1.115
   100   6 C    3.967 --   101 C    1.726    99 C    1.115   121 H    0.973
   101   6 C    3.966 --   100 C    1.726   102 C    1.114   122 H    0.975
   102   6 C    3.926 --    62 C    1.368   103 N    1.298   101 C    1.114
   103   7 N    3.011 --    99 C    1.320   102 C    1.298
   104   1 H    1.001 --    62 C    0.970
   105   1 H    0.997 --    64 C    0.976
   106   1 H    1.003 --    65 C    0.974
   107   1 H    0.985 --    67 N    0.873
   108   1 H    1.004 --    70 C    0.971
   109   1 H    1.006 --    71 C    0.964
   110   1 H    1.006 --    76 C    0.964
   111   1 H    1.004 --    77 C    0.971
   112   1 H    1.004 --    79 C    0.973
   113   1 H    1.005 --    80 C    0.971
   114   1 H    1.004 --    85 C    0.972
   115   1 H    1.003 --    86 C    0.974
   116   1 H    0.986 --    88 N    0.872
   117   1 H    1.004 --    91 C    0.971
   118   1 H    1.006 --    92 C    0.964
   119   1 H    1.006 --    97 C    0.964
   120   1 H    1.004 --    98 C    0.971
   121   1 H    1.003 --   100 C    0.973
   122   1 H    0.997 --   101 C    0.975
   123   6 C    3.929 --   124 C    2.576    22 C    1.176
   124   6 C    3.933 --   123 C    2.576   127 C    1.178
   125   6 C    3.932 --   126 C    2.575   148 C    1.178
   126   6 C    3.929 --   125 C    2.575    83 C    1.176
   127   6 C    3.926 --   167 C    1.262   128 C    1.253   124 C    1.178
   128   6 C    3.889 --   127 C    1.253   129 C    1.252   132 N    1.187
   129   6 C    3.956 --   130 C    1.578   128 C    1.252   169 H    0.970
   130   6 C    3.955 --   129 C    1.578   131 C    1.244   170 H    0.974
   131   6 C    3.895 --   133 C    1.297   130 C    1.244   132 N    1.170
   132   7 N    3.472 --   128 C    1.187   131 C    1.170   171 H    0.874
   133   6 C    3.925 --   143 C    1.335   131 C    1.297   134 C    1.032
   134   6 C    3.984 --   142 C    1.384   135 C    1.384   133 C    1.032
   135   6 C    3.987 --   136 C    1.463   134 C    1.384   172 H    0.971
                           141 C    0.102
   136   6 C    3.987 --   135 C    1.463   137 C    1.388   173 H    0.964
                           142 C    0.102
   137   6 C    3.941 --   136 C    1.388   141 C    1.388   138 N    0.920
   138   7 N    3.866 --   140 O    1.456   139 O    1.454   137 C    0.920
   139   8 O    1.829 --   138 N    1.454   140 O    0.252
   140   8 O    1.831 --   138 N    1.456   139 O    0.252
   141   6 C    3.987 --   142 C    1.463   137 C    1.388   174 H    0.964
                           135 C    0.102
   142   6 C    3.986 --   141 C    1.463   134 C    1.384   175 H    0.971
                           136 C    0.102
   143   6 C    3.917 --   133 C    1.335   146 N    1.287   144 C    1.123
   144   6 C    3.966 --   145 C    1.712   143 C    1.123   176 H    0.973
   145   6 C    3.964 --   144 C    1.712   147 C    1.127   177 H    0.971
   146   7 N    3.008 --   147 C    1.341   143 C    1.287
   147   6 C    3.913 --   146 N    1.341   148 C    1.261   145 C    1.127
   148   6 C    3.926 --   147 C    1.261   149 C    1.253   125 C    1.178
   149   6 C    3.889 --   148 C    1.253   150 C    1.252   153 N    1.187
   150   6 C    3.956 --   151 C    1.578   149 C    1.252   178 H    0.972
   151   6 C    3.955 --   150 C    1.578   152 C    1.244   179 H    0.974
   152   6 C    3.894 --   154 C    1.297   151 C    1.244   153 N    1.170
   153   7 N    3.472 --   149 C    1.187   152 C    1.170   180 H    0.874
   154   6 C    3.925 --   164 C    1.335   152 C    1.297   155 C    1.032
   155   6 C    3.984 --   156 C    1.384   163 C    1.384   154 C    1.032
   156   6 C    3.986 --   157 C    1.463   155 C    1.384   181 H    0.971
                           162 C    0.102
   157   6 C    3.987 --   156 C    1.463   158 C    1.388   182 H    0.964
                           163 C    0.102
   158   6 C    3.941 --   157 C    1.388   162 C    1.388   159 N    0.920
   159   7 N    3.866 --   161 O    1.455   160 O    1.455   158 C    0.920
   160   8 O    1.830 --   159 N    1.455   161 O    0.252
   161   8 O    1.831 --   159 N    1.455   160 O    0.252
   162   6 C    3.987 --   163 C    1.463   158 C    1.388   183 H    0.964
                           156 C    0.102
   163   6 C    3.987 --   162 C    1.463   155 C    1.384   184 H    0.971
                           157 C    0.102
   164   6 C    3.917 --   154 C    1.335   168 N    1.287   165 C    1.123
   165   6 C    3.966 --   166 C    1.711   164 C    1.123   185 H    0.973
   166   6 C    3.964 --   165 C    1.711   167 C    1.127   186 H    0.968
   167   6 C    3.913 --   168 N    1.340   127 C    1.262   166 C    1.127
   168   7 N    3.009 --   167 C    1.340   164 C    1.287
   169   1 H    1.005 --   129 C    0.970
   170   1 H    1.003 --   130 C    0.974
   171   1 H    0.987 --   132 N    0.874
   172   1 H    1.003 --   135 C    0.971
   173   1 H    1.006 --   136 C    0.964
   174   1 H    1.006 --   141 C    0.964
   175   1 H    1.003 --   142 C    0.971
   176   1 H    1.004 --   144 C    0.973
   177   1 H    1.005 --   145 C    0.971
   178   1 H    1.004 --   150 C    0.972
   179   1 H    1.003 --   151 C    0.974
   180   1 H    0.986 --   153 N    0.874
   181   1 H    1.003 --   156 C    0.971
   182   1 H    1.006 --   157 C    0.964
   183   1 H    1.006 --   162 C    0.964
   184   1 H    1.003 --   163 C    0.971
   185   1 H    1.004 --   165 C    0.973
   186   1 H    1.006 --   166 C    0.968
 ---------------------------------------------------------------------------

           -------------------------------------------------
          | TOTAL ENERGY             -354.552449029085 Eh   |
          | GRADIENT NORM               0.000455533865 Eh/α |
          | HOMO-LUMO GAP               0.864336803902 eV   |
           -------------------------------------------------

 * finished run on 2022/07/30 at 03:37:59.842
