   * xtb version 6.5.1 (b24c23e) compiled by 'conda@728c89f4b128' on 2022-07-12
          program call               : xtb Ni_Ph_C6_3.xyz --gfn 1 --opt -T 48

   ID    Z sym.   atoms
    1   28 Ni     1, 57, 125
    2    6 C      2-6, 8-11, 13-29, 32-37, 58-62, 64-67, 69-85, 88-93,
                  113-124, 126-130, 132-135, 137-153, 156-161
    3    7 N      7, 12, 30, 31, 63, 68, 86, 87, 131, 136, 154, 155
    4    1 H      38-56, 94-112, 162-179

          :  Hamiltonian                  GFN1-xTB          :
 * total energy  :  -308.2654455 Eh     change       -0.1931994E-08 Eh
 * total energy  :  -308.3753189 Eh     change       -0.1098733E+00 Eh
 * total energy  :  -308.4359504 Eh     change       -0.6063156E-01 Eh
 * total energy  :  -308.4528680 Eh     change       -0.1691753E-01 Eh
 * total energy  :  -308.4652814 Eh     change       -0.1241344E-01 Eh
 * total energy  :  -308.4769366 Eh     change       -0.1165521E-01 Eh
 * total energy  :  -308.4913853 Eh     change       -0.1444868E-01 Eh
 * total energy  :  -308.5078594 Eh     change       -0.1647413E-01 Eh
 * total energy  :  -308.5249992 Eh     change       -0.1713980E-01 Eh
 * total energy  :  -308.5397169 Eh     change       -0.1471765E-01 Eh
 * total energy  :  -308.9050855 Eh     change       -0.2303539E-05 Eh
 * total energy  :  -308.9050835 Eh     change        0.2054177E-05 Eh
 * total energy  :  -308.9050957 Eh     change       -0.1225430E-04 Eh
 * total energy  :  -308.9050902 Eh     change        0.5574980E-05 Eh
 * total energy  :  -308.9051046 Eh     change       -0.1445669E-04 Eh
 * total energy  :  -308.9050712 Eh     change        0.3343617E-04 Eh
 * total energy  :  -308.9051073 Eh     change       -0.3609603E-04 Eh
 * total energy  :  -308.9051154 Eh     change       -0.8156783E-05 Eh
 * total energy  :  -308.9051201 Eh     change       -0.4700601E-05 Eh
   *** GEOMETRY OPTIMIZATION CONVERGED AFTER 103 ITERATIONS ***

 final structure:
================
179
 xtb: 6.5.1 (b24c23e)
Ni          26.30009489811932       -0.01155859121181        0.03863422328830
C           22.90662983323585       -0.04697418153182        0.13890747013154
C           23.56048908874098       -1.24704981957855       -0.04675452176276
C           22.88328343794986       -2.49888641819770       -0.19544437190391
C           23.84185167574004       -3.44927198713926       -0.29253697367012
C           25.10463685102350       -2.77639357780670       -0.20270250748735
N           24.92146432241077       -1.42287452577876       -0.06642933779816
C           26.32618176861329       -3.43489147102149       -0.16061042493321
C           27.53512004985427       -2.76871563107103       -0.01889681668518
C           28.80308242699997       -3.43095595605040        0.03475484952739
C           29.74763860128006       -2.46300893176001        0.10576339876048
N           27.70322987503441       -1.40225714435998        0.02004288341200
C           29.05634170666998       -1.21336471392695        0.08047823151452
C           29.71509349544100        0.01864037255097        0.04081994572613
C           29.03434199864795        1.23756338935597       -0.02436989006790
C           29.70031215818399        2.49624443085459       -0.13271469288235
C           28.73659616775899        3.44798954257550       -0.12015695613771
C           27.48455399121061        2.76684025971837        0.01255779175131
C           26.26491085269974        3.41697391025129        0.13929429668883
C           26.24816062647114        4.89997120011054        0.17341591150180
C           25.59232038684490        5.62145724607775       -0.82462931115227
C           25.57914931535258        7.00786396706746       -0.79281900927641
C           26.21427417354532        7.68863991290903        0.23694169225273
C           26.86562108141939        6.97730641058831        1.23543285695833
C           26.88574887340120        5.59099005678801        1.20434439519025
C           25.05919665900743        2.73609449585300        0.24677850177424
C           23.79437182860107        3.38136950416510        0.44426202078412
C           22.85410442551543        2.40781029664020        0.44962702365021
C           23.54535162946074        1.16924952053559        0.26063172910439
N           24.89894921884920        1.37559006147442        0.16447886680683
N           27.67837344379133        1.40346221141565        0.03696374267400
C           26.33655677252312       -4.91659883851121       -0.25555056955896
C           25.95145622541144       -5.54956808991634       -1.43731252000533
C           25.96360348385640       -6.93369079800324       -1.52563869632366
C           26.35411239099088       -7.69934741619528       -0.43549072504184
C           26.73499124336472       -7.07567275212362        0.74480825715264
C           26.72919183989405       -5.69171402118542        0.83564121487422
H           21.82385641594085       -0.05953986785037        0.18446488073709
H           21.81128365228401       -2.61509000151653       -0.21322016446615
H           23.71930934201872       -4.51484520034297       -0.39918655935860
H           28.94245592581304       -4.49928550386197        0.00940832150870
H           30.81924854540510       -2.56900966427083        0.15617103339461
H           30.76835897663783        2.61892184689969       -0.21261610828068
H           28.85240193972816        4.51669006372647       -0.19682998872945
H           25.10497549754222        5.09084266882412       -1.63502784356549
H           25.07114443303854        7.55909146807820       -1.57638255313787
H           26.20144833546135        8.77239097173632        0.26142634997740
H           27.36027082383457        7.50442905917374        2.04371807434482
H           27.38510090592197        5.03615999061339        1.99085069642805
H           23.65835544738960        4.44338508331676        0.56859728849910
H           21.78610961354589        2.49953902805919        0.56779747392488
H           25.65518444228621       -4.95169483490461       -2.29199544924996
H           25.66746081580433       -7.41632941746779       -2.45042301076241
H           26.36133203692756       -8.78117137353821       -0.50555469111350
H           27.03772707265511       -7.66958803471625        1.60011104832823
H           27.01705086704486       -5.20539069902966        1.76103872543271
Ni          58.31871371230552        0.04580044882636        0.05302625083705
C           61.71234031190469        0.07058929805275        0.15013544329427
C           61.06057721770053        1.27876969254517        0.01704058677422
C           61.73990163885039        2.53456735659306       -0.07948709618358
C           60.78294253906665        3.48976994332513       -0.13728704930036
C           59.51904031288537        2.81589565166373       -0.07487249461545
N           59.69990964495755        1.45760984227958        0.00529492957096
C           58.29878669931190        3.47434348068376       -0.00464801882515
C           57.08892427951620        2.80530695868839        0.11346904936886
C           55.82256220580650        3.46718780878463        0.19952219732268
C           54.87645684298593        2.49887457658439        0.23697412740443
N           56.91827669984728        1.43871832102010        0.09832845344988
C           55.56510741488666        1.24999377899899        0.15793200928520
C           54.90368418564415        0.02192081055021        0.07013406490305
C           55.58162165507166       -1.19421152858953       -0.05201376718992
C           54.91256958348166       -2.44548762593064       -0.21398084193842
C           55.87449652825801       -3.39839678424583       -0.25130104743061
C           57.12857577609500       -2.72623263112514       -0.09428756709128
C           58.34747548120670       -3.38357346805007       -0.00285457463856
C           58.36195917550334       -4.86659078611055       -0.03828928295698
C           59.01220941090028       -5.54121828813687       -1.07210874638623
C           59.02345185157542       -6.92760461479833       -1.10549693756909
C           58.39209713074841       -7.65515912509993       -0.10584562930370
C           57.74645721570806       -6.99067554873959        0.92800160400537
C           57.72816590296735       -5.60440079669987        0.96208195473704
C           59.55471097739996       -2.71051591801761        0.13303546821578
C           60.81856655258704       -3.36652009597867        0.29872436474004
C           61.76058240220577       -2.39591298003105        0.34857713987294
C           61.07144277160345       -1.14870376738350        0.21764763553278
N           59.71735968925349       -1.34797396329101        0.11352935058917
N           56.93755780952498       -1.36507196967620       -0.00601097848769
C           58.29127730918367        4.95870433591161       -0.04036745527609
C           58.67352801374908        5.63726918306644       -1.19747849175276
C           58.66419510806646        7.02382929021393       -1.23070575565820
C           58.27953948656461        7.74637087500661       -0.10949495740970
C           57.90163192943363        7.07711273791914        1.04654746540765
C           57.90450012060904        5.69062521887585        1.08227251340738
H           62.79516212925640        0.07914309048683        0.19540562889209
H           62.81209372596663        2.64958282552418       -0.09267337355097
H           60.90716648593158        4.55865050781207       -0.19984403687891
H           55.68524576092497        4.53593579044989        0.21739958534557
H           53.80533008593710        2.60468926444393        0.29712525531182
H           53.84383821132934       -2.56254671429722       -0.29316322454693
H           55.75620747741807       -4.46220908142090       -0.37669437856390
H           59.49674932737241       -4.97371123301263       -1.85884797103290
H           59.52702111175962       -7.44208683341176       -1.91643140182323
H           58.40346515619934       -8.73887878487645       -0.13229134590434
H           57.25486503238971       -7.55455087398951        1.71301182782618
H           57.23329662291295       -5.08645497973004        1.77609139788485
H           60.95267896289474       -4.43341991590496        0.37341547972197
H           62.82852023813213       -2.49491242329158        0.46126961315611
H           58.96544827760145        5.07314955148750       -2.07626807989414
H           58.95801097890153        7.54221242698758       -2.13669820569819
H           58.27458543647876        8.83013952898605       -0.13647129255198
H           57.60352017315467        7.63722919618095        1.92595139695644
H           57.61892080818543        5.16849301644267        1.98867402612110
C           34.91619202349463        0.04734974133311        0.06016040631291
C           33.68819180990295        0.04442524907398        0.05866000025993
C           32.34340210583542        0.03931180351548        0.05338823932746
C           31.11997160623183        0.03105571415419        0.04662083294488
C           36.26087885477767        0.04934687210173        0.05836953716400
C           37.48449238565962        0.04599131954104        0.05712966715885
C           50.93062402167472        0.00144273895976        0.09795386276953
C           49.70261450471000        0.00006488324186        0.09945476640929
C           48.35794559206764        0.00185893319474        0.09613821427237
C           47.13433415926874        0.00475353695724        0.08984385500183
C           52.27541004700446        0.00613981978871        0.09228387517247
C           53.49883765167489        0.01181482915709        0.08232522821452
Ni          42.30950378206108        0.02599980165199        0.04954925554000
C           38.88875084087977        0.04077916525602        0.05326586109029
C           39.55541461207626       -1.18461166106034        0.14452260451771
C           38.87492970069277       -2.43377844770223        0.26847358623233
C           39.82577972004937       -3.39848228593446        0.23936639721494
C           41.08385199904728       -2.73342958744224        0.09066696484850
N           40.90809239621871       -1.36814662935392        0.06370359973663
C           42.29474896443855       -3.39866384413453       -0.04131679318220
C           43.51213717293153       -2.73830060367378       -0.13035118704723
C           44.76599354432396       -3.40544441901694       -0.30360796429950
C           45.72563752512707       -2.44982045645871       -0.26452448913674
N           43.69948234899543       -1.37832735225855       -0.02428106170847
C           45.05450376472349       -1.20324489532074       -0.07906655274618
C           45.73012891282594        0.01048290098131        0.07802235196388
C           45.06264891921670        1.23106978866021        0.21568815926907
C           45.74213132040219        2.47390759808833        0.39593533961707
C           44.79146927448615        3.43923395442420        0.39945475238195
C           43.53452309034018        2.78116216702070        0.21452704365959
C           42.32441762595024        3.45150266918005        0.10260447957141
C           42.33216381531943        4.93521198887138        0.12046900737031
C           41.70550823494251        5.63270751988262        1.15350450538979
C           41.71728425592541        7.01941596741570        1.16942392940429
C           42.34724976686493        7.72391950759251        0.15254244483504
C           42.96999526883982        7.03623587044433       -0.88018851184498
C           42.96687895013063        5.64950142314316       -0.89605390022260
C           41.10771993934858        2.79563241488283       -0.02213156003673
C           39.85498371131862        3.46968827981712       -0.17563120152977
C           38.89529641387773        2.51334767727165       -0.18459678109021
C           39.56532168528386        1.25992334278636       -0.04772002147082
N           40.91988084402787        1.43239972514651        0.02441097763394
N           43.71058281237301        1.41811922116685        0.13255836019150
C           42.28703623744703       -4.88179699331318       -0.08602138353572
C           41.65871696769281       -5.55241708414363       -1.13572035501481
C           41.65557294926083       -6.93857954809473       -1.17841114547348
C           42.27185931261032       -7.66934783745873       -0.17172079309307
C           42.89542917941550       -7.00851512682558        0.87789364409983
C           42.90727655983899       -5.62237056863124        0.92055196466743
H           37.80658403494418       -2.54237791655430        0.36304826044531
H           39.69781818055768       -4.46584336440442        0.31571806185500
H           44.88561679017955       -4.46775000261578       -0.44017674844849
H           46.79409797837842       -2.56280247400712       -0.35262664113742
H           46.80974822997001        2.57820442909906        0.50283620665809
H           44.91887789422461        4.50254896585336        0.52023015203663
H           41.22154207142558        5.08290585780375        1.95302680190809
H           41.23263466237990        7.55216488747055        1.98006694126922
H           42.35297144963980        8.80793626366509        0.16494035612558
H           43.46064310962470        7.58219822087529       -1.67832895338960
H           43.44553105220115        5.11291039995562       -1.70766208632222
H           39.73606670817604        4.53689447166480       -0.26716489488132
H           37.82748594661980        2.63005156028040       -0.27568828296241
H           41.18510030334303       -4.98193186950689       -1.92690529202073
H           41.16997296441394       -7.45027177103483       -2.00194096381292
H           42.26608451508005       -8.75292111041049       -0.20509048806663
H           43.37499489992149       -7.57510266001931        1.66836502617658
H           43.38625553008690       -5.10689055513388        1.74553421179472

          :  Hamiltonian                  GFN1-xTB          :
         :: total energy            -308.905120139831 Eh    ::
         :: gradient norm              0.000365458507 Eh/a0 ::
         :: HOMO-LUMO gap              1.028902430081 eV    ::
         :: SCC energy              -314.119714897667 Eh    ::
         :: repulsion energy           5.376313673533 Eh    ::

    * Orbital Energies and Occupations

         #    Occupation            Energy/Eh            Energy/eV
      -------------------------------------------------------------
         1        2.0000           -0.7821931             -21.2846
       ...           ...                  ...                  ...
       277        2.0000           -0.3983156             -10.8387
       278        2.0000           -0.3983129             -10.8386
       279        2.0000           -0.3976515             -10.8206
       280        2.0000           -0.3975434             -10.8177
       281        2.0000           -0.3975413             -10.8177
       282        2.0000           -0.3974986             -10.8165
       283        2.0000           -0.3964851             -10.7889
       284        2.0000           -0.3964806             -10.7888
       285        2.0000           -0.3964418             -10.7877
       286        2.0000           -0.3964401             -10.7877
       287        2.0000           -0.3956610             -10.7665
       288        2.0000           -0.3891656             -10.5897
       289        2.0000           -0.3817891             -10.3890 (HOMO)
       290                         -0.3439776              -9.3601 (LUMO)
       291                         -0.3350169              -9.1163
       292                         -0.3305955              -8.9960
       293                         -0.3301536              -8.9839
       294                         -0.3298109              -8.9746
       295                         -0.3298013              -8.9744
       296                         -0.3286874              -8.9440
       297                         -0.3286659              -8.9435
       298                         -0.3283096              -8.9338
       299                         -0.3059928              -8.3265
       300                         -0.2965309              -8.0690
       ...                                ...                  ...
       619                          1.5795160              42.9808
      -------------------------------------------------------------
                  HL-Gap            0.0378115 Eh            1.0289 eV

Wiberg/Mayer (AO) data.
largest (>0.10) Wiberg bond orders for each atom

     #   Z sym  total        # sym  WBO       # sym  WBO       # sym  WBO
 ---------------------------------------------------------------------------
     1  28 Ni   3.011 --     7 N    0.664    30 N    0.664    12 N    0.661
                            31 N    0.661
     2   6 C    3.934 --    29 C    1.364     3 C    1.363    38 H    0.970
     3   6 C    3.924 --     2 C    1.363     7 N    1.214     4 C    1.175
     4   6 C    3.960 --     5 C    1.649     3 C    1.175    39 H    0.975
     5   6 C    3.963 --     4 C    1.649     6 C    1.177    40 H    0.973
     6   6 C    3.919 --     8 C    1.324     7 N    1.221     5 C    1.177
     7   7 N    3.402 --     6 C    1.221     3 C    1.214     1 Ni   0.664
     8   6 C    3.939 --     9 C    1.332     6 C    1.324    32 C    1.020
     9   6 C    3.915 --     8 C    1.332    12 N    1.204    10 C    1.184
    10   6 C    3.959 --    11 C    1.637     9 C    1.184    41 H    0.973
    11   6 C    3.961 --    10 C    1.637    13 C    1.191    42 H    0.973
    12   7 N    3.406 --    13 C    1.240     9 C    1.204     1 Ni   0.661
    13   6 C    3.904 --    14 C    1.262    12 N    1.240    11 C    1.191
    14   6 C    3.943 --    13 C    1.262    15 C    1.262   116 C    1.185
    15   6 C    3.904 --    14 C    1.262    31 N    1.240    16 C    1.191
    16   6 C    3.961 --    17 C    1.636    15 C    1.191    43 H    0.973
    17   6 C    3.959 --    16 C    1.636    18 C    1.184    44 H    0.973
    18   6 C    3.915 --    19 C    1.330    31 N    1.204    17 C    1.184
    19   6 C    3.939 --    18 C    1.330    26 C    1.322    20 C    1.024
    20   6 C    3.988 --    21 C    1.396    25 C    1.396    19 C    1.024
                            23 C    0.108
    21   6 C    3.988 --    22 C    1.447    20 C    1.396    45 H    0.973
                            24 C    0.110
    22   6 C    3.995 --    21 C    1.447    23 C    1.438    46 H    0.973
                            25 C    0.110
    23   6 C    3.991 --    22 C    1.438    24 C    1.438    47 H    0.974
                            20 C    0.108
    24   6 C    3.995 --    25 C    1.447    23 C    1.438    48 H    0.973
                            21 C    0.110
    25   6 C    3.988 --    24 C    1.447    20 C    1.396    49 H    0.973
                            22 C    0.110
    26   6 C    3.920 --    19 C    1.322    30 N    1.222    27 C    1.177
    27   6 C    3.963 --    28 C    1.648    26 C    1.177    50 H    0.973
    28   6 C    3.959 --    27 C    1.648    29 C    1.175    51 H    0.975
    29   6 C    3.924 --     2 C    1.364    30 N    1.213    28 C    1.175
    30   7 N    3.402 --    26 C    1.222    29 C    1.213     1 Ni   0.664
    31   7 N    3.406 --    15 C    1.240    18 C    1.204     1 Ni   0.661
    32   6 C    3.988 --    33 C    1.398    37 C    1.398     8 C    1.020
                            35 C    0.109
    33   6 C    3.989 --    34 C    1.446    32 C    1.398    52 H    0.973
                            36 C    0.110
    34   6 C    3.995 --    33 C    1.446    35 C    1.438    53 H    0.973
                            37 C    0.110
    35   6 C    3.992 --    34 C    1.438    36 C    1.438    54 H    0.974
                            32 C    0.109
    36   6 C    3.995 --    37 C    1.446    35 C    1.438    55 H    0.973
                            33 C    0.110
    37   6 C    3.989 --    36 C    1.446    32 C    1.398    56 H    0.973
                            34 C    0.110
    38   1 H    1.000 --     2 C    0.970
    39   1 H    0.998 --     4 C    0.975
    40   1 H    1.005 --     5 C    0.973
    41   1 H    1.005 --    10 C    0.973
    42   1 H    1.002 --    11 C    0.973
    43   1 H    1.002 --    16 C    0.973
    44   1 H    1.005 --    17 C    0.973
    45   1 H    1.004 --    21 C    0.973
    46   1 H    1.003 --    22 C    0.973
    47   1 H    1.003 --    23 C    0.974
    48   1 H    1.003 --    24 C    0.973
    49   1 H    1.005 --    25 C    0.973
    50   1 H    1.005 --    27 C    0.973
    51   1 H    0.998 --    28 C    0.975
    52   1 H    1.004 --    33 C    0.973
    53   1 H    1.003 --    34 C    0.973
    54   1 H    1.003 --    35 C    0.974
    55   1 H    1.003 --    36 C    0.973
    56   1 H    1.004 --    37 C    0.973
    57  28 Ni   3.011 --    63 N    0.664    86 N    0.664    68 N    0.661
                            87 N    0.661
    58   6 C    3.934 --    85 C    1.364    59 C    1.363    94 H    0.970
    59   6 C    3.924 --    58 C    1.363    63 N    1.214    60 C    1.175
    60   6 C    3.960 --    61 C    1.649    59 C    1.175    95 H    0.975
    61   6 C    3.963 --    60 C    1.649    62 C    1.177    96 H    0.973
    62   6 C    3.919 --    64 C    1.324    63 N    1.221    61 C    1.177
    63   7 N    3.402 --    62 C    1.221    59 C    1.214    57 Ni   0.664
    64   6 C    3.939 --    65 C    1.332    62 C    1.324    88 C    1.019
    65   6 C    3.915 --    64 C    1.332    68 N    1.204    66 C    1.183
    66   6 C    3.959 --    67 C    1.637    65 C    1.183    97 H    0.973
    67   6 C    3.961 --    66 C    1.637    69 C    1.191    98 H    0.973
    68   7 N    3.406 --    69 C    1.240    65 C    1.204    57 Ni   0.661
    69   6 C    3.904 --    70 C    1.263    68 N    1.240    67 C    1.191
    70   6 C    3.943 --    69 C    1.263    71 C    1.262   124 C    1.185
    71   6 C    3.904 --    70 C    1.262    87 N    1.240    72 C    1.191
    72   6 C    3.961 --    73 C    1.636    71 C    1.191    99 H    0.973
    73   6 C    3.959 --    72 C    1.636    74 C    1.184   100 H    0.973
    74   6 C    3.915 --    75 C    1.331    87 N    1.204    73 C    1.184
    75   6 C    3.939 --    74 C    1.331    82 C    1.322    76 C    1.024
    76   6 C    3.988 --    77 C    1.396    81 C    1.396    75 C    1.024
                            79 C    0.108
    77   6 C    3.988 --    78 C    1.447    76 C    1.396   101 H    0.973
                            80 C    0.110
    78   6 C    3.995 --    77 C    1.447    79 C    1.438   102 H    0.973
                            81 C    0.110
    79   6 C    3.991 --    78 C    1.438    80 C    1.438   103 H    0.974
                            76 C    0.108
    80   6 C    3.995 --    81 C    1.447    79 C    1.438   104 H    0.973
                            77 C    0.110
    81   6 C    3.988 --    80 C    1.447    76 C    1.396   105 H    0.973
                            78 C    0.110
    82   6 C    3.920 --    75 C    1.322    86 N    1.222    83 C    1.178
    83   6 C    3.963 --    84 C    1.648    82 C    1.178   106 H    0.973
    84   6 C    3.959 --    83 C    1.648    85 C    1.175   107 H    0.975
    85   6 C    3.924 --    58 C    1.364    86 N    1.213    84 C    1.175
    86   7 N    3.402 --    82 C    1.222    85 C    1.213    57 Ni   0.664
    87   7 N    3.406 --    71 C    1.240    74 C    1.204    57 Ni   0.661
    88   6 C    3.988 --    89 C    1.398    93 C    1.398    64 C    1.019
                            91 C    0.109
    89   6 C    3.989 --    90 C    1.446    88 C    1.398   108 H    0.973
                            92 C    0.110
    90   6 C    3.995 --    89 C    1.446    91 C    1.438   109 H    0.973
                            93 C    0.110
    91   6 C    3.992 --    90 C    1.438    92 C    1.438   110 H    0.974
                            88 C    0.109
    92   6 C    3.995 --    93 C    1.446    91 C    1.438   111 H    0.973
                            89 C    0.110
    93   6 C    3.989 --    92 C    1.446    88 C    1.398   112 H    0.973
                            90 C    0.110
    94   1 H    1.000 --    58 C    0.970
    95   1 H    0.998 --    60 C    0.975
    96   1 H    1.005 --    61 C    0.973
    97   1 H    1.005 --    66 C    0.973
    98   1 H    1.002 --    67 C    0.973
    99   1 H    1.002 --    72 C    0.973
   100   1 H    1.005 --    73 C    0.973
   101   1 H    1.004 --    77 C    0.973
   102   1 H    1.003 --    78 C    0.973
   103   1 H    1.003 --    79 C    0.974
   104   1 H    1.003 --    80 C    0.973
   105   1 H    1.005 --    81 C    0.973
   106   1 H    1.005 --    83 C    0.973
   107   1 H    0.998 --    84 C    0.975
   108   1 H    1.004 --    89 C    0.973
   109   1 H    1.003 --    90 C    0.973
   110   1 H    1.003 --    91 C    0.974
   111   1 H    1.003 --    92 C    0.973
   112   1 H    1.004 --    93 C    0.973
   113   6 C    3.928 --   114 C    2.373   117 C    1.333   116 C    0.191
   114   6 C    3.927 --   113 C    2.373   115 C    1.332   118 C    0.191
   115   6 C    3.937 --   116 C    2.455   114 C    1.332
   116   6 C    3.891 --   115 C    2.455    14 C    1.185   113 C    0.191
   117   6 C    3.935 --   118 C    2.453   113 C    1.333
   118   6 C    3.892 --   117 C    2.453   126 C    1.187   114 C    0.191
   119   6 C    3.927 --   120 C    2.373   123 C    1.332   122 C    0.191
   120   6 C    3.928 --   119 C    2.373   121 C    1.333   124 C    0.191
   121   6 C    3.935 --   122 C    2.453   120 C    1.333
   122   6 C    3.892 --   121 C    2.453   138 C    1.187   119 C    0.191
   123   6 C    3.937 --   124 C    2.455   119 C    1.332
   124   6 C    3.891 --   123 C    2.455    70 C    1.185   120 C    0.191
   125  28 Ni   2.997 --   155 N    0.660   131 N    0.660   154 N    0.660
                           136 N    0.660
   126   6 C    3.933 --   127 C    1.260   153 C    1.260   118 C    1.187
   127   6 C    3.904 --   126 C    1.260   131 N    1.241   128 C    1.193
   128   6 C    3.959 --   129 C    1.633   127 C    1.193   162 H    0.973
   129   6 C    3.960 --   128 C    1.633   130 C    1.186   163 H    0.973
   130   6 C    3.913 --   132 C    1.327   131 N    1.205   129 C    1.186
   131   7 N    3.400 --   127 C    1.241   130 C    1.205   125 Ni   0.660
   132   6 C    3.934 --   133 C    1.327   130 C    1.327   156 C    1.023
   133   6 C    3.913 --   132 C    1.327   136 N    1.204   134 C    1.186
   134   6 C    3.960 --   135 C    1.633   133 C    1.186   164 H    0.973
   135   6 C    3.959 --   134 C    1.633   137 C    1.193   165 H    0.973
   136   7 N    3.400 --   137 C    1.241   133 C    1.204   125 Ni   0.660
   137   6 C    3.904 --   138 C    1.260   136 N    1.241   135 C    1.193
   138   6 C    3.933 --   139 C    1.260   137 C    1.260   122 C    1.187
   139   6 C    3.904 --   138 C    1.260   155 N    1.241   140 C    1.193
   140   6 C    3.959 --   141 C    1.633   139 C    1.193   166 H    0.973
   141   6 C    3.960 --   140 C    1.633   142 C    1.186   167 H    0.973
   142   6 C    3.913 --   143 C    1.327   155 N    1.205   141 C    1.186
   143   6 C    3.934 --   150 C    1.327   142 C    1.327   144 C    1.023
   144   6 C    3.988 --   145 C    1.396   149 C    1.396   143 C    1.023
                           147 C    0.108
   145   6 C    3.989 --   146 C    1.447   144 C    1.396   168 H    0.973
                           148 C    0.110
   146   6 C    3.995 --   145 C    1.447   147 C    1.438   169 H    0.973
                           149 C    0.110
   147   6 C    3.991 --   146 C    1.438   148 C    1.438   170 H    0.974
                           144 C    0.108
   148   6 C    3.995 --   149 C    1.447   147 C    1.438   171 H    0.973
                           145 C    0.110
   149   6 C    3.989 --   148 C    1.447   144 C    1.396   172 H    0.973
                           146 C    0.110
   150   6 C    3.913 --   143 C    1.327   154 N    1.204   151 C    1.186
   151   6 C    3.960 --   152 C    1.633   150 C    1.186   173 H    0.973
   152   6 C    3.959 --   151 C    1.633   153 C    1.193   174 H    0.973
   153   6 C    3.904 --   126 C    1.260   154 N    1.241   152 C    1.193
   154   7 N    3.400 --   153 C    1.241   150 C    1.204   125 Ni   0.660
   155   7 N    3.400 --   139 C    1.241   142 C    1.205   125 Ni   0.660
   156   6 C    3.988 --   161 C    1.396   157 C    1.396   132 C    1.023
                           159 C    0.108
   157   6 C    3.989 --   158 C    1.447   156 C    1.396   175 H    0.973
                           160 C    0.110
   158   6 C    3.995 --   157 C    1.447   159 C    1.438   176 H    0.973
                           161 C    0.110
   159   6 C    3.991 --   160 C    1.438   158 C    1.438   177 H    0.974
                           156 C    0.108
   160   6 C    3.995 --   161 C    1.447   159 C    1.438   178 H    0.973
                           157 C    0.110
   161   6 C    3.989 --   160 C    1.447   156 C    1.396   179 H    0.973
                           158 C    0.110
   162   1 H    1.002 --   128 C    0.973
   163   1 H    1.004 --   129 C    0.973
   164   1 H    1.004 --   134 C    0.973
   165   1 H    1.002 --   135 C    0.973
   166   1 H    1.002 --   140 C    0.973
   167   1 H    1.004 --   141 C    0.973
   168   1 H    1.004 --   145 C    0.973
   169   1 H    1.003 --   146 C    0.973
   170   1 H    1.003 --   147 C    0.974
   171   1 H    1.003 --   148 C    0.973
   172   1 H    1.004 --   149 C    0.973
   173   1 H    1.004 --   151 C    0.973
   174   1 H    1.002 --   152 C    0.973
   175   1 H    1.004 --   157 C    0.973
   176   1 H    1.003 --   158 C    0.973
   177   1 H    1.003 --   159 C    0.974
   178   1 H    1.003 --   160 C    0.973
   179   1 H    1.004 --   161 C    0.973
 ---------------------------------------------------------------------------

           -------------------------------------------------
          | TOTAL ENERGY             -308.905120139831 Eh   |
          | GRADIENT NORM               0.000365458507 Eh/α |
          | HOMO-LUMO GAP               1.028902430081 eV   |
           -------------------------------------------------

 * finished run on 2022/07/30 at 05:46:26.877
