   * xtb version 6.5.1 (b24c23e) compiled by 'conda@728c89f4b128' on 2022-07-12
          program call               : xtb H_C2_6.xyz --gfn 1 --opt -T 48

   ID    Z sym.   atoms
    1    6 C      1-5, 7-10, 12-17, 19-23, 38-42, 44-47, 49-54, 56-60, 75-89,
                  91-94, 96-101, 103-107, 121-125, 127-130, 132-137, 139-143,
                  157-161, 163-166, 168-173, 175-179, 193-197, 199-202,
                  204-209, 211-215
    2    7 N      6, 11, 18, 24, 43, 48, 55, 61, 90, 95, 102, 108, 126, 131,
                  138, 144, 162, 167, 174, 180, 198, 203, 210, 216
    3    1 H      25-37, 62-74, 109-120, 145-156, 181-192, 217-228

          :  Hamiltonian                  GFN1-xTB          :
 * total energy  :  -389.9412190 Eh     change       -0.1271576E-07 Eh
 * total energy  :  -390.1728401 Eh     change       -0.2316212E+00 Eh
 * total energy  :  -390.3294698 Eh     change       -0.1566297E+00 Eh
 * total energy  :  -390.3789172 Eh     change       -0.4944736E-01 Eh
 * total energy  :  -390.4083077 Eh     change       -0.2939048E-01 Eh
 * total energy  :  -390.4257225 Eh     change       -0.1741486E-01 Eh
 * total energy  :  -390.4375332 Eh     change       -0.1181070E-01 Eh
 * total energy  :  -390.4497713 Eh     change       -0.1223809E-01 Eh
 * total energy  :  -390.4653462 Eh     change       -0.1557490E-01 Eh
 * total energy  :  -390.4840257 Eh     change       -0.1867947E-01 Eh
 * total energy  :  -390.8867628 Eh     change       -0.2330985E-04 Eh
 * total energy  :  -390.8867847 Eh     change       -0.2194233E-04 Eh
 * total energy  :  -390.8868047 Eh     change       -0.2003220E-04 Eh
 * total energy  :  -390.8868227 Eh     change       -0.1796705E-04 Eh
 * total energy  :  -390.8868379 Eh     change       -0.1516237E-04 Eh
 * total energy  :  -390.8868495 Eh     change       -0.1158285E-04 Eh
 * total energy  :  -390.8868595 Eh     change       -0.1002474E-04 Eh
 * total energy  :  -390.8868705 Eh     change       -0.1100494E-04 Eh
 * total energy  :  -390.8868744 Eh     change       -0.3949078E-05 Eh
   *** GEOMETRY OPTIMIZATION CONVERGED AFTER 152 ITERATIONS ***

 final structure:
================
228
 xtb: 6.5.1 (b24c23e)
C           42.58591636118799        0.03805421702286       -0.03789222176795
C           43.18725857952027       -1.18320131876663       -0.31401193882152
C           42.55050938012867       -2.42215801565469       -0.61257104995135
C           43.52560462622640       -3.35745788680548       -0.81659038007572
C           44.78872956480837       -2.72007065525272       -0.64839587922911
N           44.53324941195322       -1.41338837968719       -0.34769664346195
C           46.04642398862811       -3.29991354527435       -0.76385468191939
C           47.27900299991461       -2.68324696296632       -0.60144321689339
C           48.54253423200061       -3.38291720293201       -0.75187377764418
C           49.51152996808681       -2.47088265379234       -0.53031023728157
N           47.50025196689281       -1.37669592518621       -0.29335988451383
C           48.83743660702729       -1.21757741609027       -0.24301851313072
C           49.51608040798968       -0.01206971827657        0.02718331473627
C           48.88942004256529        1.21990260029936        0.29194226308200
C           49.51888958340543        2.45880796745341        0.58898422010356
C           48.53965944717324        3.39151110628979        0.79330529093311
C           47.28144555936287        2.74800654398840        0.62907395710932
N           47.54498877148288        1.43935103623811        0.32723345940192
C           46.02476854272106        3.32803894424386        0.75252011112057
C           44.79129855234476        2.70786286779393        0.59941273805966
C           43.52049209685948        3.40028437746646        0.74893697045195
C           42.55790380564159        2.48244990951285        0.52862273575083
C           43.24156904394345        1.23054640588518        0.24512571351185
N           44.58347792938820        1.40476899270422        0.29693226824100
H           41.50124178203534        0.05382088689057       -0.04676677559936
H           41.48254666822692       -2.56390379519998       -0.66186573566314
H           43.39581561569242       -4.39954624684086       -1.06231389392287
H           45.24011558526020       -0.70717231852594       -0.17237530179098
H           46.05708657376970       -4.35666139959298       -1.01128814704535
H           48.64121963939984       -4.42887139154358       -0.99666541083524
H           50.58109902730192       -2.60435464529282       -0.55746331268423
H           50.58549570473686        2.60614319926685        0.64315718730471
H           48.66618647361746        4.43391059069817        1.03874755209051
H           46.84085903516969        0.72858381988332        0.15788271678236
H           46.01675728435625        4.38533743783639        0.99735151687179
H           43.41576626083669        4.44672940487372        0.98989921415421
H           41.48636583999023        2.60665423524821        0.54849665279185
C          104.73209114789573       -0.00319287291051        0.02495076234805
C          104.12353760167331        1.19269658561947       -0.33396926796397
C          104.75269181398619        2.42062966837313       -0.68882994117410
C          103.77180046545197        3.33066281331974       -0.96618768601580
C          102.51255313483095        2.68792896560909       -0.78945650120362
N          102.77610053981211        1.40382078985157       -0.40904794995380
C          101.25125042356454        3.24348248237728       -0.96769649194911
C          100.02229247928616        2.62181483558287       -0.79699731040380
C           98.75503714148691        3.29521124420423       -1.01877126410806
C           97.79115836876831        2.38799142098209       -0.75847249310804
N           99.80822802853180        1.33462134831409       -0.41188986623874
C           98.47195632655958        1.16381394998742       -0.37706089063084
C           97.80020017426703       -0.02822940535746       -0.03798813507126
C           98.43465808549134       -1.23568643169505        0.30880615776459
C           97.81297710749534       -2.46161350560993        0.66908141018927
C           98.79805884115139       -3.36985452356796        0.94345433328470
C          100.05221871060665       -2.72316172131742        0.76181420705870
N           99.78048019167004       -1.43808438088260        0.37723377961223
C          101.31235378022079       -3.27970204659362        0.94413938762894
C          102.54204921636945       -2.65530476572591        0.77841436749261
C          103.81664098416195       -3.32201590794411        0.99674683675740
C          104.77394488395497       -2.40821976146213        0.73969464151402
C          104.08324873759878       -1.18428456566185        0.36563125969923
N          102.74244711399609       -1.37085062798037        0.40059740181793
H          105.81681515481648       -0.00672330946496        0.03871780373558
H          105.81981023005717        2.57276633616459       -0.72326631626381
H          103.89519654334670        4.35894939967344       -1.26714778406337
H          102.07371265337927        0.69976779151792       -0.20878487062420
H          101.23414478872337        4.28364530816285       -1.27726202181176
H           98.65064472037494        4.32185104502961       -1.33307410749856
H           96.72116696440651        2.50642066078454       -0.81793314456804
H           96.74718913699952       -2.61749246859856        0.71430286341269
H           98.67799034756459       -4.39733177593157        1.24795255635812
H          100.47995148209745       -0.73042404564488        0.17811227157066
H          101.32669237942591       -4.31989669826772        1.25347041738564
H          103.92721680373791       -4.35009002697300        1.30482773344618
H          105.84607061419503       -2.51814013733507        0.78943892991221
C           50.92448627677430       -0.02325310029541        0.03022728952958
C           52.14165404995803       -0.02846088098561        0.02893006898897
C           61.97216930521917       -0.00481286425645        0.00869304164439
C           63.19041219795856       -0.00130256376795        0.00667824937049
C           73.04510449993258        0.04274626221032       -0.01606851757479
C           74.26404659164575        0.04327382122103       -0.01027591350420
C           84.12158333638899       -0.00463287034326        0.01442761784465
C           85.33999811172187       -0.00634019776193        0.01886320977133
C           95.17459813393735       -0.02537487976236       -0.03142577978594
C           96.39183617473365       -0.02616274556344       -0.03953677399494
C           53.54924318543993       -0.02567449711729        0.02308208648226
C           54.18611928657738        1.19216231093364       -0.28274408542814
C           53.57328280334595        2.42955061661873       -0.61318895249258
C           54.56645143423140        3.33872459828262       -0.85829162180785
C           55.81456577710209        2.68006927019281       -0.68577516962885
N           55.53358395934528        1.38783803333376       -0.33688354572742
C           57.07861428306556        3.23703392396071       -0.84938532749570
C           58.31260137030490        2.62407921026306       -0.69708778544344
C           59.57090262255308        3.31586168980992       -0.91147048967659
C           60.54611870505845        2.41417726023707       -0.67435002933314
N           58.54399770993601        1.33145340958012       -0.33864906600859
C           59.88178830507132        1.17616483093342       -0.31254182664066
C           60.56570924284007       -0.01482088427007        0.01095944274819
C           59.92742516084912       -1.22719749223970        0.33803804416339
C           60.53771552465687       -2.45859630375037        0.69420331144918
C           59.54377299439118       -3.36871707702580        0.93074099040748
C           58.29653849032097       -2.71652520460413        0.72887484274801
N           58.57972883826453       -1.42597080501670        0.37410779591238
C           57.03295701009706       -3.28053448468526        0.86770914618152
C           55.79806515707300       -2.67335099009898        0.69698815918545
C           54.53884996617293       -3.37257090329902        0.88289767858719
C           53.56359353521543       -2.47017375517141        0.64888096831557
C           54.22954523101130       -1.22400566452580        0.31832855159691
N           55.56811149953597       -1.37705500322734        0.35479079142155
H           52.50877195131785        2.59283299426939       -0.66176187097719
H           54.45428561587234        4.37428891624927       -1.13735951548003
H           56.22372718388167        0.66730718621497       -0.15129191427471
H           57.08981133046044        4.28407722123123       -1.13629736376583
H           59.66248793914832        4.34969680748638       -1.20557675313324
H           61.61422428860530        2.54579200378413       -0.73770132117543
H           61.60119195118133       -2.61817258475617        0.76420785343900
H           59.65448351294410       -4.40093973427275        1.22237633357810
H           57.89051047640595       -0.71014273253159        0.16806494797495
H           57.02240777119977       -4.32856712004136        1.15100518204798
H           54.44709078695139       -4.41163565083370        1.15785112493455
H           52.49489362884609       -2.60563826289040        0.69435163022544
C           64.59663177757399        0.00998871056429        0.00329270484517
C           65.23570878837980        1.26407002986076        0.06378849095947
C           64.62821430729744        2.54404748163600        0.14961668052009
C           65.62468944595415        3.48080205999619        0.19699414553764
C           66.87029762968058        2.79733764393585        0.14515676479121
N           66.58398809610887        1.46236350035177        0.06394914050068
C           68.13495979056160        3.37529697181929        0.18247130188279
C           69.37140933805969        2.74924373607285        0.15088599772140
C           70.62563619917293        3.47735361778666        0.21622179628393
C           71.60592823696324        2.55174032657159        0.16537499338518
N           69.61070554570526        1.41219240486967        0.06176565696749
C           70.94964510911487        1.26234373674175        0.06468540138902
C           71.63876341515802        0.03316766591801       -0.01834495518272
C           70.99703428870284       -1.21907930912289       -0.10314083660576
C           71.60188956285025       -2.49815758570864       -0.21303799343157
C           70.60504140931178       -3.43419585841274       -0.26100665846971
C           69.36066216125975       -2.75122887492543       -0.18552027347438
N           69.64854634319181       -1.41698349952767       -0.09351812169910
C           68.09681214233022       -3.33164306521410       -0.20583792630229
C           66.85997282412966       -2.70785628776685       -0.15457530653875
C           65.60491387975227       -3.43639131048330       -0.19953939589946
C           64.62506421258733       -2.51044037645445       -0.14417248979145
C           65.28353269908457       -1.22055209341727       -0.06157200322671
N           66.62234021346447       -1.37061714976503       -0.07037914322688
H           63.56504024643787        2.71776131010603        0.17747215055893
H           65.51643136803864        4.55151726634883        0.26509673903055
H           67.27007429273111        0.71597019497856        0.01623612732419
H           68.14455815337354        4.45887418832815        0.25136479794393
H           70.71150854667594        4.54992805194370        0.29308565507952
H           72.67298967240912        2.70014271513667        0.19593891342408
H           72.66393009781069       -2.67283239426797       -0.25585929752040
H           70.71238447673173       -4.50393898981087       -0.34392362656169
H           68.96328214798577       -0.67109949247547       -0.02862163116998
H           68.08854632631974       -4.41504904713344       -0.27740748556226
H           65.51832651844182       -4.50950912771809       -0.26759038415257
H           63.55735875111225       -2.65836781995250       -0.16276934188133
C           75.67037618532500        0.04401816463703       -0.00431115638517
C           76.32341465467506        1.28637753785339       -0.13358155329906
C           75.73137686150257        2.56740070408633       -0.28387494725591
C           76.73812391814806        3.49034927175449       -0.36828762922242
C           77.97564654210392        2.79692718872372       -0.27545292419052
N           77.67392869662207        1.47002421815227       -0.13552634685469
C           79.24594263603883        3.36149207112088       -0.32426938533395
C           80.47643309324009        2.72676996993365       -0.25542946008227
C           81.73824371291997        3.44040300627264       -0.33601357632304
C           82.70931036876645        2.50799302077942       -0.24617801784308
N           80.70178542346498        1.39174830052427       -0.11740761123102
C           82.03917882783088        1.22915879624657       -0.10695263764170
C           82.71535101793280       -0.00374785228589        0.01069597962283
C           82.06378945304100       -1.24774470070062        0.12519000338554
C           82.65750657731752       -2.52948101100382        0.26375932239005
C           81.65120030417899       -3.45287877785745        0.34987604577380
C           80.41305014955486       -2.75880973110224        0.27032273870537
N           80.71347159076122       -1.43149844526303        0.13390097506211
C           79.14243822702147       -3.32115452004908        0.33299567744272
C           77.91261204168556       -2.68408266638362        0.27712390307729
C           76.65168402399954       -3.39635780580352        0.37669104609354
C           75.68051821899351       -2.46415855613286        0.28782333152576
C           76.34875827000735       -1.18684009953471        0.12968160561197
N           77.68617087171809       -1.34971305862112        0.13117556475417
H           74.67075865007970        2.75189667629877       -0.32553769904480
H           76.64197686856058        4.55784382351388       -0.48660270882844
H           78.35144383234834        0.71937927701685       -0.04768154974547
H           79.26601132499633        4.44125212003630       -0.43703288567071
H           81.83505128603566        4.50881774046106       -0.44916314278709
H           83.77816338734381        2.64463821668698       -0.27573276963438
H           83.71864827541209       -2.71360457726498        0.29828580674359
H           81.74798554048024       -4.52100649593214        0.46182274035541
H           80.03538736887423       -0.68033496910646        0.05564383794369
H           79.12138811817067       -4.40074264414989        0.44714939998970
H           76.55538929168067       -4.46358832114841        0.50080689214144
H           74.61244139168272       -2.60058729615164        0.32950504939108
C           86.74644179384489       -0.00501530664325        0.02089831632108
C           87.39323220922887        1.22447571276950        0.25518990050594
C           86.79202155255611        2.48239796550156        0.52276486892215
C           87.79227946198158        3.40134519953331        0.68748867602524
C           89.03465687631437        2.72861720949274        0.52780492081800
N           88.74224901215749        1.41717093896535        0.27056413847247
C           90.30164003888261        3.29510291703201        0.61649969945858
C           91.53290345309549        2.67234874359408        0.47950537282147
C           92.79585184740232        3.37873841746961        0.60158089545948
C           93.76605940011866        2.45858565741577        0.42212517094373
N           91.75567904626048        1.35385225959494        0.22977805544730
C           93.09333181551230        1.19398553750204        0.19014359840411
C           93.76715085113162       -0.02578023602736       -0.02121845636853
C           93.12260407246684       -1.26173571104083       -0.21941537388236
C           93.72674145611987       -2.52561079507544       -0.45033759606800
C           92.72729065259514       -3.44781868564356       -0.60439044246021
C           91.48377698433417       -2.77081272605667       -0.47496169708579
N           91.77383501183657       -1.45489820976393       -0.24103475439404
C           90.21601207875761       -3.33344904008105       -0.58024744334156
C           88.98545496858029       -2.70398215948867       -0.47473981911983
C           87.72347612432760       -3.40497293294892       -0.62871933988942
C           86.75312613044230       -2.48165472467734       -0.46686414900662
C           87.42383389756408       -1.22139842285530       -0.20916688077124
N           88.76084670216437       -1.38493357969866       -0.22425020962983
H           85.73000487702751        2.65334408927921        0.58618395604586
H           87.68905217842548        4.45287217079785        0.90293261351103
H           89.42599513758998        0.68357208425810        0.11480905175498
H           90.31836987011417        4.36088397305770        0.82289537290229
H           92.89351594580835        4.43448636452425        0.80045624810290
H           94.83546418668456        2.59347590115179        0.44680635663234
H           94.78996744323302       -2.69745139766985       -0.49709913778178
H           92.83214120341682       -4.50410490559447       -0.79440097570297
H           91.08886965065388       -0.71784605186045       -0.10869723543647
H           90.19843503416739       -4.40111585129282       -0.77662569220991
H           87.62616284725384       -4.45915470504151       -0.83592403923699
H           85.68439189056917       -2.61283645497651       -0.51796117023493

          :  Hamiltonian                  GFN1-xTB          :
         :: total energy            -390.886874432175 Eh    ::
         :: gradient norm              0.000364239696 Eh/a0 ::
         :: HOMO-LUMO gap              0.667320266707 eV    ::
         :: SCC energy              -397.311223827041 Eh    ::
         :: repulsion energy           6.619126373358 Eh    ::

    * Orbital Energies and Occupations

         #    Occupation            Energy/Eh            Energy/eV
      -------------------------------------------------------------
         1        2.0000           -0.8047430             -21.8982
       ...           ...                  ...                  ...
       345        2.0000           -0.4160114             -11.3202
       346        2.0000           -0.4003804             -10.8949
       347        2.0000           -0.4001781             -10.8894
       348        2.0000           -0.4000585             -10.8861
       349        2.0000           -0.4000496             -10.8859
       350        2.0000           -0.3991107             -10.8604
       351        2.0000           -0.3990717             -10.8593
       352        2.0000           -0.3973201             -10.8116
       353        2.0000           -0.3938542             -10.7173
       354        2.0000           -0.3894548             -10.5976
       355        2.0000           -0.3841284             -10.4527
       356        2.0000           -0.3787832             -10.3072
       357        2.0000           -0.3741938             -10.1823 (HOMO)
       358        0.0000           -0.3496702              -9.5150 (LUMO)
       359                         -0.3441781              -9.3656
       360                         -0.3381036              -9.2003
       361                         -0.3322230              -9.0402
       362                         -0.3315702              -9.0225
       363                         -0.3315193              -9.0211
       364                         -0.3314718              -9.0198
       365                         -0.3313368              -9.0161
       366                         -0.3309163              -9.0047
       367                         -0.3305631              -8.9951
       368                         -0.3258488              -8.8668
       ...                                ...                  ...
       764                          1.3381796              36.4137
      -------------------------------------------------------------
                  HL-Gap            0.0245236 Eh            0.6673 eV

Wiberg/Mayer (AO) data.
largest (>0.10) Wiberg bond orders for each atom

     #   Z sym  total        # sym  WBO       # sym  WBO       # sym  WBO
 ---------------------------------------------------------------------------
     1   6 C    3.930 --    23 C    1.363     2 C    1.350    25 H    0.972
     2   6 C    3.903 --     1 C    1.350     3 C    1.225     6 N    1.172
     3   6 C    3.954 --     4 C    1.603     2 C    1.225    26 H    0.977
     4   6 C    3.958 --     3 C    1.603     5 C    1.226    27 H    0.977
     5   6 C    3.897 --     7 C    1.344     4 C    1.226     6 N    1.174
     6   7 N    3.471 --     5 C    1.174     2 C    1.172    28 H    0.873
     7   6 C    3.944 --     8 C    1.377     5 C    1.344    29 H    0.971
     8   6 C    3.916 --     7 C    1.377    11 N    1.280     9 C    1.119
     9   6 C    3.965 --    10 C    1.717     8 C    1.119    30 H    0.976
    10   6 C    3.964 --     9 C    1.717    12 C    1.124    31 H    0.971
    11   7 N    3.026 --    12 C    1.349     8 C    1.280
    12   6 C    3.914 --    11 N    1.349    13 C    1.258    10 C    1.124
    13   6 C    3.942 --    12 C    1.258    14 C    1.257    75 C    1.180
    14   6 C    3.890 --    13 C    1.257    15 C    1.245    18 N    1.191
    15   6 C    3.959 --    16 C    1.588    14 C    1.245    32 H    0.972
    16   6 C    3.953 --    15 C    1.588    17 C    1.234    33 H    0.977
    17   6 C    3.899 --    19 C    1.348    16 C    1.234    18 N    1.163
    18   7 N    3.476 --    14 C    1.191    17 C    1.163    34 H    0.873
    19   6 C    3.929 --    20 C    1.365    17 C    1.348    35 H    0.971
    20   6 C    3.931 --    19 C    1.365    24 N    1.307    21 C    1.112
    21   6 C    3.967 --    22 C    1.730    20 C    1.112    36 H    0.976
    22   6 C    3.966 --    21 C    1.730    23 C    1.113    37 H    0.976
    23   6 C    3.929 --     1 C    1.363    24 N    1.309    22 C    1.113
    24   7 N    3.015 --    23 C    1.309    20 C    1.307
    25   1 H    1.002 --     1 C    0.972
    26   1 H    0.998 --     3 C    0.977
    27   1 H    0.998 --     4 C    0.977
    28   1 H    0.986 --     6 N    0.873
    29   1 H    1.002 --     7 C    0.971
    30   1 H    0.998 --     9 C    0.976
    31   1 H    1.005 --    10 C    0.971
    32   1 H    1.004 --    15 C    0.972
    33   1 H    0.998 --    16 C    0.977
    34   1 H    0.987 --    18 N    0.873
    35   1 H    1.002 --    19 C    0.971
    36   1 H    0.998 --    21 C    0.976
    37   1 H    0.998 --    22 C    0.976
    38   6 C    3.930 --    60 C    1.363    39 C    1.350    62 H    0.972
    39   6 C    3.903 --    38 C    1.350    40 C    1.225    43 N    1.172
    40   6 C    3.954 --    41 C    1.602    39 C    1.225    63 H    0.977
    41   6 C    3.958 --    40 C    1.602    42 C    1.226    64 H    0.977
    42   6 C    3.897 --    44 C    1.344    41 C    1.226    43 N    1.174
    43   7 N    3.471 --    42 C    1.174    39 C    1.172    65 H    0.873
    44   6 C    3.944 --    45 C    1.377    42 C    1.344    66 H    0.971
    45   6 C    3.916 --    44 C    1.377    48 N    1.280    46 C    1.119
    46   6 C    3.965 --    47 C    1.717    45 C    1.119    67 H    0.976
    47   6 C    3.964 --    46 C    1.717    49 C    1.124    68 H    0.971
    48   7 N    3.026 --    49 C    1.350    45 C    1.280
    49   6 C    3.914 --    48 N    1.350    50 C    1.258    47 C    1.124
    50   6 C    3.942 --    49 C    1.258    51 C    1.257    84 C    1.181
    51   6 C    3.890 --    50 C    1.257    52 C    1.245    55 N    1.191
    52   6 C    3.959 --    53 C    1.588    51 C    1.245    69 H    0.972
    53   6 C    3.953 --    52 C    1.588    54 C    1.234    70 H    0.977
    54   6 C    3.899 --    56 C    1.348    53 C    1.234    55 N    1.163
    55   7 N    3.476 --    51 C    1.191    54 C    1.163    71 H    0.873
    56   6 C    3.929 --    57 C    1.365    54 C    1.348    72 H    0.971
    57   6 C    3.931 --    56 C    1.365    61 N    1.307    58 C    1.112
    58   6 C    3.967 --    59 C    1.730    57 C    1.112    73 H    0.976
    59   6 C    3.966 --    58 C    1.730    60 C    1.113    74 H    0.976
    60   6 C    3.929 --    38 C    1.363    61 N    1.309    59 C    1.113
    61   7 N    3.015 --    60 C    1.309    57 C    1.307
    62   1 H    1.002 --    38 C    0.972
    63   1 H    0.998 --    40 C    0.977
    64   1 H    0.998 --    41 C    0.977
    65   1 H    0.986 --    43 N    0.873
    66   1 H    1.002 --    44 C    0.971
    67   1 H    0.998 --    46 C    0.976
    68   1 H    1.005 --    47 C    0.971
    69   1 H    1.005 --    52 C    0.972
    70   1 H    0.998 --    53 C    0.977
    71   1 H    0.987 --    55 N    0.873
    72   1 H    1.002 --    56 C    0.971
    73   1 H    0.998 --    58 C    0.976
    74   1 H    0.998 --    59 C    0.976
    75   6 C    3.929 --    76 C    2.572    13 C    1.180
    76   6 C    3.933 --    75 C    2.572    85 C    1.182
    77   6 C    3.930 --    78 C    2.563    97 C    1.190
    78   6 C    3.930 --    77 C    2.563   121 C    1.191
    79   6 C    3.930 --    80 C    2.561   133 C    1.194
    80   6 C    3.930 --    79 C    2.561   157 C    1.194
    81   6 C    3.930 --    82 C    2.563   169 C    1.191
    82   6 C    3.930 --    81 C    2.563   193 C    1.191
    83   6 C    3.933 --    84 C    2.572   205 C    1.183
    84   6 C    3.929 --    83 C    2.572    50 C    1.181
    85   6 C    3.927 --   107 C    1.258    86 C    1.253    76 C    1.182
    86   6 C    3.891 --    85 C    1.253    87 C    1.250    90 N    1.191
    87   6 C    3.956 --    88 C    1.582    86 C    1.250   109 H    0.973
    88   6 C    3.954 --    87 C    1.582    89 C    1.239   110 H    0.977
    89   6 C    3.894 --    91 C    1.337    88 C    1.239    90 N    1.165
    90   7 N    3.472 --    86 C    1.191    89 C    1.165   111 H    0.872
    91   6 C    3.931 --    92 C    1.383    89 C    1.337   112 H    0.970
    92   6 C    3.918 --    91 C    1.383    95 N    1.274    93 C    1.120
    93   6 C    3.965 --    94 C    1.714    92 C    1.120   113 H    0.976
    94   6 C    3.964 --    93 C    1.714    96 C    1.126   114 H    0.970
    95   7 N    3.013 --    96 C    1.354    92 C    1.274
    96   6 C    3.913 --    95 N    1.354    97 C    1.252    94 C    1.126
    97   6 C    3.929 --    96 C    1.252    98 C    1.251    77 C    1.190
    98   6 C    3.889 --    97 C    1.251    99 C    1.249   102 N    1.192
    99   6 C    3.956 --   100 C    1.583    98 C    1.249   115 H    0.971
   100   6 C    3.954 --    99 C    1.583   101 C    1.238   116 H    0.977
   101   6 C    3.894 --   103 C    1.339   100 C    1.238   102 N    1.164
   102   7 N    3.472 --    98 C    1.192   101 C    1.164   117 H    0.872
   103   6 C    3.930 --   104 C    1.380   101 C    1.339   118 H    0.970
   104   6 C    3.918 --   103 C    1.380   108 N    1.278   105 C    1.119
   105   6 C    3.966 --   106 C    1.716   104 C    1.119   119 H    0.976
   106   6 C    3.964 --   105 C    1.716   107 C    1.125   120 H    0.971
   107   6 C    3.915 --   108 N    1.349    85 C    1.258   106 C    1.125
   108   7 N    3.012 --   107 C    1.349   104 C    1.278
   109   1 H    1.004 --    87 C    0.973
   110   1 H    0.998 --    88 C    0.977
   111   1 H    0.986 --    90 N    0.872
   112   1 H    1.002 --    91 C    0.970
   113   1 H    0.998 --    93 C    0.976
   114   1 H    1.006 --    94 C    0.970
   115   1 H    1.005 --    99 C    0.971
   116   1 H    0.998 --   100 C    0.977
   117   1 H    0.986 --   102 N    0.872
   118   1 H    1.002 --   103 C    0.970
   119   1 H    0.998 --   105 C    0.976
   120   1 H    1.005 --   106 C    0.971
   121   6 C    3.926 --   143 C    1.252   122 C    1.250    78 C    1.191
   122   6 C    3.889 --   123 C    1.250   121 C    1.250   126 N    1.192
   123   6 C    3.955 --   124 C    1.581   122 C    1.250   145 H    0.970
   124   6 C    3.954 --   123 C    1.581   125 C    1.239   146 H    0.977
   125   6 C    3.894 --   127 C    1.337   124 C    1.239   126 N    1.164
   126   7 N    3.471 --   122 C    1.192   125 C    1.164   147 H    0.872
   127   6 C    3.930 --   128 C    1.383   125 C    1.337   148 H    0.970
   128   6 C    3.918 --   127 C    1.383   131 N    1.274   129 C    1.120
   129   6 C    3.965 --   130 C    1.714   128 C    1.120   149 H    0.976
   130   6 C    3.963 --   129 C    1.714   132 C    1.127   150 H    0.968
   131   7 N    3.011 --   132 C    1.354   128 C    1.274
   132   6 C    3.913 --   131 N    1.354   133 C    1.250   130 C    1.127
   133   6 C    3.927 --   132 C    1.250   134 C    1.248    79 C    1.194
   134   6 C    3.889 --   135 C    1.251   133 C    1.248   138 N    1.193
   135   6 C    3.955 --   136 C    1.581   134 C    1.251   151 H    0.968
   136   6 C    3.953 --   135 C    1.581   137 C    1.239   152 H    0.977
   137   6 C    3.894 --   139 C    1.338   136 C    1.239   138 N    1.164
   138   7 N    3.471 --   134 C    1.193   137 C    1.164   153 H    0.872
   139   6 C    3.929 --   140 C    1.382   137 C    1.338   154 H    0.970
   140   6 C    3.918 --   139 C    1.382   144 N    1.275   141 C    1.120
   141   6 C    3.965 --   142 C    1.714   140 C    1.120   155 H    0.976
   142   6 C    3.964 --   141 C    1.714   143 C    1.127   156 H    0.970
   143   6 C    3.913 --   144 N    1.353   121 C    1.252   142 C    1.127
   144   7 N    3.011 --   143 C    1.353   140 C    1.275
   145   1 H    1.005 --   123 C    0.970
   146   1 H    0.998 --   124 C    0.977
   147   1 H    0.986 --   126 N    0.872
   148   1 H    1.002 --   127 C    0.970
   149   1 H    0.998 --   129 C    0.976
   150   1 H    1.006 --   130 C    0.968
   151   1 H    1.007 --   135 C    0.968
   152   1 H    0.998 --   136 C    0.977
   153   1 H    0.986 --   138 N    0.872
   154   1 H    1.002 --   139 C    0.970
   155   1 H    0.998 --   141 C    0.976
   156   1 H    1.006 --   142 C    0.970
   157   6 C    3.927 --   179 C    1.250   158 C    1.249    80 C    1.194
   158   6 C    3.889 --   159 C    1.251   157 C    1.249   162 N    1.193
   159   6 C    3.955 --   160 C    1.581   158 C    1.251   181 H    0.969
   160   6 C    3.953 --   159 C    1.581   161 C    1.239   182 H    0.977
   161   6 C    3.894 --   163 C    1.337   160 C    1.239   162 N    1.164
   162   7 N    3.471 --   158 C    1.193   161 C    1.164   183 H    0.872
   163   6 C    3.929 --   164 C    1.382   161 C    1.337   184 H    0.970
   164   6 C    3.918 --   163 C    1.382   167 N    1.275   165 C    1.120
   165   6 C    3.965 --   166 C    1.714   164 C    1.120   185 H    0.976
   166   6 C    3.964 --   165 C    1.714   168 C    1.127   186 H    0.969
   167   7 N    3.011 --   168 C    1.353   164 C    1.275
   168   6 C    3.913 --   167 N    1.353   169 C    1.252   166 C    1.127
   169   6 C    3.926 --   168 C    1.252   170 C    1.250    81 C    1.191
   170   6 C    3.889 --   171 C    1.251   169 C    1.250   174 N    1.192
   171   6 C    3.955 --   172 C    1.581   170 C    1.251   187 H    0.970
   172   6 C    3.953 --   171 C    1.581   173 C    1.239   188 H    0.977
   173   6 C    3.894 --   175 C    1.337   172 C    1.239   174 N    1.164
   174   7 N    3.471 --   170 C    1.192   173 C    1.164   189 H    0.872
   175   6 C    3.930 --   176 C    1.383   173 C    1.337   190 H    0.970
   176   6 C    3.918 --   175 C    1.383   180 N    1.273   177 C    1.120
   177   6 C    3.965 --   178 C    1.713   176 C    1.120   191 H    0.976
   178   6 C    3.963 --   177 C    1.713   179 C    1.127   192 H    0.967
   179   6 C    3.913 --   180 N    1.354   157 C    1.250   178 C    1.127
   180   7 N    3.011 --   179 C    1.354   176 C    1.273
   181   1 H    1.006 --   159 C    0.969
   182   1 H    0.998 --   160 C    0.977
   183   1 H    0.986 --   162 N    0.872
   184   1 H    1.002 --   163 C    0.970
   185   1 H    0.998 --   165 C    0.976
   186   1 H    1.006 --   166 C    0.969
   187   1 H    1.005 --   171 C    0.970
   188   1 H    0.998 --   172 C    0.977
   189   1 H    0.986 --   174 N    0.872
   190   1 H    1.002 --   175 C    0.970
   191   1 H    0.998 --   177 C    0.976
   192   1 H    1.007 --   178 C    0.967
   193   6 C    3.929 --   215 C    1.251   194 C    1.250    82 C    1.191
   194   6 C    3.889 --   193 C    1.250   195 C    1.250   198 N    1.192
   195   6 C    3.956 --   196 C    1.582   194 C    1.250   217 H    0.970
   196   6 C    3.953 --   195 C    1.582   197 C    1.238   218 H    0.977
   197   6 C    3.894 --   199 C    1.339   196 C    1.238   198 N    1.164
   198   7 N    3.471 --   194 C    1.192   197 C    1.164   219 H    0.872
   199   6 C    3.930 --   200 C    1.380   197 C    1.339   220 H    0.970
   200   6 C    3.918 --   199 C    1.380   203 N    1.277   201 C    1.119
   201   6 C    3.966 --   202 C    1.716   200 C    1.119   221 H    0.976
   202   6 C    3.964 --   201 C    1.716   204 C    1.125   222 H    0.971
   203   7 N    3.012 --   204 C    1.349   200 C    1.277
   204   6 C    3.915 --   203 N    1.349   205 C    1.257   202 C    1.125
   205   6 C    3.927 --   204 C    1.257   206 C    1.252    83 C    1.183
   206   6 C    3.891 --   205 C    1.252   207 C    1.250   210 N    1.191
   207   6 C    3.956 --   208 C    1.581   206 C    1.250   223 H    0.972
   208   6 C    3.954 --   207 C    1.581   209 C    1.239   224 H    0.977
   209   6 C    3.894 --   211 C    1.337   208 C    1.239   210 N    1.165
   210   7 N    3.472 --   206 C    1.191   209 C    1.165   225 H    0.872
   211   6 C    3.931 --   212 C    1.383   209 C    1.337   226 H    0.970
   212   6 C    3.918 --   211 C    1.383   216 N    1.274   213 C    1.120
   213   6 C    3.965 --   214 C    1.714   212 C    1.120   227 H    0.976
   214   6 C    3.964 --   213 C    1.714   215 C    1.126   228 H    0.969
   215   6 C    3.913 --   216 N    1.354   193 C    1.251   214 C    1.126
   216   7 N    3.012 --   215 C    1.354   212 C    1.274
   217   1 H    1.005 --   195 C    0.970
   218   1 H    0.998 --   196 C    0.977
   219   1 H    0.986 --   198 N    0.872
   220   1 H    1.002 --   199 C    0.970
   221   1 H    0.998 --   201 C    0.976
   222   1 H    1.005 --   202 C    0.971
   223   1 H    1.004 --   207 C    0.972
   224   1 H    0.998 --   208 C    0.977
   225   1 H    0.986 --   210 N    0.872
   226   1 H    1.002 --   211 C    0.970
   227   1 H    0.998 --   213 C    0.976
   228   1 H    1.006 --   214 C    0.969
 ---------------------------------------------------------------------------

           -------------------------------------------------
          | TOTAL ENERGY             -390.886874432175 Eh   |
          | GRADIENT NORM               0.000364239696 Eh/α |
          | HOMO-LUMO GAP               0.667320266707 eV   |
           -------------------------------------------------

 * finished run on 2022/07/26 at 13:26:30.494
