   * xtb version 6.5.1 (b24c23e) compiled by 'conda@728c89f4b128' on 2022-07-12
          program call               : xtb Fe_m-CP_C4_3.xyz --gfn 1 --opt -T 48

   ID    Z sym.   atoms
    1   26 Fe     1, 63, 133
    2    6 C      2-6, 8-12, 15-20, 22-27, 29-35, 38-42, 64-68, 70-74, 77-82,
                  84-89, 91-97, 100-104, 125-132, 134-138, 140-144, 147-152,
                  154-159, 161-167, 170-174
    3    7 N      7, 21, 28, 43, 69, 83, 90, 105, 139, 153, 160, 175
    4    8 O      13, 14, 36, 37, 75, 76, 98, 99, 145, 146, 168, 169
    5    1 H      44-62, 106-124, 176-193
########################################################################
[WARNING] Please study the warnings concerning your input carefully
-1- prog_main_parseArguments: Unknown option '-T' provided
########################################################################

          :  Hamiltonian                  GFN1-xTB          :
 * total energy  :  -364.5485566 Eh     change       -0.3239956E-07 Eh
 * total energy  :  -365.5158635 Eh     change       -0.9673069E+00 Eh
 * total energy  :  -365.7308105 Eh     change       -0.2149470E+00 Eh
 * total energy  :  -365.8654135 Eh     change       -0.1346030E+00 Eh
 * total energy  :  -365.9385157 Eh     change       -0.7310210E-01 Eh
 * total energy  :  -365.9936634 Eh     change       -0.5514776E-01 Eh
 * total energy  :  -366.0370183 Eh     change       -0.4335491E-01 Eh
 * total energy  :  -366.0675482 Eh     change       -0.3052989E-01 Eh
 * total energy  :  -366.0897526 Eh     change       -0.2220434E-01 Eh
 * total energy  :  -366.1089119 Eh     change       -0.1915930E-01 Eh
 * total energy  :  -366.3389418 Eh     change       -0.1774796E-04 Eh
 * total energy  :  -366.3389636 Eh     change       -0.2180480E-04 Eh
 * total energy  :  -366.3389658 Eh     change       -0.2188877E-05 Eh
 * total energy  :  -366.3389661 Eh     change       -0.3443581E-06 Eh
 * total energy  :  -366.3389771 Eh     change       -0.1093754E-04 Eh
 * total energy  :  -366.3389652 Eh     change        0.1188338E-04 Eh
 * total energy  :  -366.3389811 Eh     change       -0.1595644E-04 Eh
 * total energy  :  -366.3389845 Eh     change       -0.3413946E-05 Eh
 * total energy  :  -366.3389884 Eh     change       -0.3879659E-05 Eh
   *** GEOMETRY OPTIMIZATION CONVERGED AFTER 128 ITERATIONS ***

 final structure:
================
193
 xtb: 6.5.1 (b24c23e)
Fe          31.74085527043040        0.08452169632673       -0.25265275861891
C           28.36715818299577        0.03970861479023       -0.01497520042209
C           28.99382723445610        1.26818875035830       -0.07134656154308
C           28.30123323657276        2.52141647524903       -0.07741135988545
C           29.24727126963857        3.48839002250148       -0.01952799209747
C           30.51700175329228        2.82300922168474        0.04403997210874
N           30.34911049041668        1.46783504175833       -0.04497135510751
C           31.73056272149523        3.46727369236156        0.26399908676351
C           31.72950533334149        4.93367985640097        0.47531916089037
C           31.01291529574240        5.49885165505952        1.52650243172240
C           31.01340616757197        6.87945253581400        1.72076838704438
C           30.22893893025861        7.42132513426628        2.85908639522368
O           30.29941289691719        8.75550746021977        2.97137911780052
O           29.58222174340313        6.74834705136696        3.62008636355087
C           31.73279296501407        7.70685059714210        0.85860991456804
C           32.44706263833524        7.14652714666900       -0.18882410326086
C           32.44877581100877        5.77214236579664       -0.38003400703335
C           32.94255267355040        2.79140151556978        0.30944776813931
C           34.19740946902539        3.40442138546854        0.62997299330238
C           35.15053404968769        2.45556547731356        0.46179955371600
N           33.12804195889635        1.46636791157388       -0.00283764024110
C           34.47565899480754        1.26749951849167        0.04189037202014
C           35.14076608052786        0.11191402189019       -0.38938917902335
C           34.46311854021453       -1.04576567779883       -0.79501435989130
C           35.12004953484784       -2.20540102164688       -1.31148318940104
C           34.16544346408151       -3.15450347942190       -1.46893857410829
C           32.93025601605594       -2.57523663314315       -1.03002516591123
N           33.12366541143071       -1.26203051320973       -0.67184206351146
C           31.73933986914389       -3.27575849172837       -0.89916553207816
C           31.73091023350890       -4.72904936206447       -1.18789135180326
C           32.54819909304942       -5.60122730253046       -0.46518186862219
C           32.53718707904606       -6.96344265037379       -0.73075900754741
C           31.71362812598827       -7.47140536018362       -1.72144539637079
C           30.89271803264742       -6.60995997342766       -2.45095531572316
C           30.02366262922128       -7.19319849938527       -3.50394191153148
O           29.26327662826728       -6.28700187961824       -4.13527554889925
O           29.98527111826883       -8.36469428617614       -3.78073180863899
C           30.90120661391229       -5.24285193595181       -2.18253979365068
C           30.55104638594658       -2.67227364931794       -0.49693346489321
C           29.32133998213083       -3.37712316912124       -0.27482600333829
C           28.37521803547534       -2.44284295393862       -0.01828774127735
C           29.02837796216620       -1.16996685065778       -0.07775350948032
N           30.36741180819437       -1.32801784481311       -0.32425551981284
H           27.28656205343110        0.02408257673515        0.07108263422081
H           27.22906857029610        2.62792982449408       -0.12176915313111
H           29.10937712997103        4.55740145762645       -0.01736281557369
H           30.45985855383789        4.87022433502038        2.21579342171353
H           29.76314079635695        9.02932983569234        3.73320893284984
H           31.72990819944028        8.77948445478094        1.00981397673483
H           33.00627161005843        7.78388670030185       -0.86440738086747
H           32.99915623035004        5.34132083625859       -1.20897496205994
H           34.32246020977520        4.42619513709144        0.94960370508979
H           36.21647039098131        2.54004157292081        0.59964190569817
H           36.17546241439067       -2.27021845369552       -1.52186824214928
H           34.27809574544203       -4.15699469165822       -1.84847527071793
H           33.18267548035606       -5.20739428114247        0.32087245895110
H           33.17364038999433       -7.62875181377454       -0.15862547917521
H           31.69297522714717       -8.53268584046061       -1.94196631461990
H           28.72812354948031       -6.74524535884472       -4.80347256045960
H           30.27276869057845       -4.57442383755822       -2.75908924508580
H           29.20961731203473       -4.44872729301499       -0.30848052643499
H           27.32629062598503       -2.58330529728760        0.18885825979586
Fe          58.46921487303230        0.13199585794483       -0.11573138882360
C           61.84901975265296        0.05448922420936        0.10630816959109
C           61.20602207359359       -1.08406401293708       -0.33417334137558
C           61.88811391656339       -2.27646543046605       -0.73817429392983
C           60.93275238029389       -3.19030477814177       -1.02881428066440
C           59.66752043628424       -2.56073599042311       -0.77979332338839
N           59.84861087512464       -1.25877080216309       -0.39901092574400
C           58.44276278986958       -3.21650390187513       -0.84986786081088
C           58.42991043971004       -4.66153328586388       -1.17977857863141
C           59.08210209819122       -5.58110779527368       -0.36324251641263
C           59.07017357893272       -6.93929343319026       -0.67814023710187
C           59.78620952542293       -7.86986223630674        0.23072140659138
O           59.70760994666926       -9.15403439041338       -0.14690446848840
O           60.38843927748044       -7.52847528286445        1.21611950395333
C           58.40356211737072       -7.38695045586171       -1.81859731416914
C           57.75332068785541       -6.47317411568187       -2.63309667134202
C           57.76334023058647       -5.12176584303930       -2.31796335774529
C           57.23247511750532       -2.58134148064814       -0.60856433343186
C           55.96584446763315       -3.25117676333460       -0.58532593848352
C           55.02261002088814       -2.29700657880828       -0.39643935904557
N           57.06258947670461       -1.23443364323489       -0.39536024878366
C           55.71531345162762       -1.05016330111124       -0.30221399961489
C           55.06231472060463        0.18621115355430       -0.22057550235145
C           55.74777479929586        1.40448708391971       -0.12601103514248
C           55.09105114308599        2.67423622179731       -0.11931418397996
C           56.05574291962593        3.60887441594784        0.05743637760908
C           57.29739730287741        2.90331377144971        0.17614893609432
N           57.09417401071321        1.55244514233200        0.01929614026678
C           58.50951550544364        3.50861888541297        0.47342286041581
C           58.53393162738455        4.97214117133772        0.71065854005398
C           57.81478326283524        5.53202693278373        1.76870230290929
C           57.83772983036627        6.90183379386932        1.99156308581494
C           58.57350957944765        7.72862117665957        1.15926905859657
C           59.29563621048332        7.18058861826689        0.09800546685684
C           60.06913975311423        8.10084486009736       -0.77331200511918
O           60.73370810396359        7.47724078346768       -1.75679140388492
O           60.11179604356337        9.29586959238227       -0.63000575785371
C           59.27760196214305        5.80494797080885       -0.12250196780485
C           59.70395999031840        2.80198826260820        0.57062528447944
C           60.95473192808794        3.38941204922791        0.95616313798145
C           61.88889338726603        2.41356508337143        0.86753494518332
C           61.20788080941954        1.23252717127488        0.42934928601270
N           59.86642835690436        1.47399381747734        0.28612180453416
H           62.92979209142127        0.02687890027289        0.18741288926768
H           62.96019976480145       -2.38019850528017       -0.79024074043559
H           61.06122721204544       -4.20121760642935       -1.37990598513404
H           59.59351560005513       -5.25323909921612        0.53516700257565
H           60.19864348598909       -9.69400551711951        0.49362054349576
H           58.39746221231096       -8.44228810444532       -2.06284635354550
H           57.23546175678212       -6.81385754218396       -3.52255879872062
H           57.26352611639120       -4.41065198109187       -2.96616209360848
H           55.82701428152158       -4.31485455459972       -0.69046896643176
H           53.95273796344254       -2.41135091645005       -0.32814879298394
H           54.02920285162710        2.81692885792082       -0.23923913837424
H           55.94624285904009        4.68015740388623        0.10242597785799
H           57.24730199780493        4.88463444749091        2.42779124942977
H           57.27850185664430        7.32220140772136        2.81959981016548
H           58.60028616781751        8.80081569250402        1.31757910503023
H           61.20933542412202        8.14392392165686       -2.27850683173649
H           59.83022982426227        5.38234494987433       -0.95323516466809
H           61.08643989037598        4.41534571680585        1.25959185729881
H           62.94651766288167        2.47022583208900        1.07023373756985
C           37.76262785973079        0.14383114761529       -0.49117068672633
C           36.53933430631877        0.12447306942853       -0.44008906588662
C           39.10512487614342        0.17905512829117       -0.56785701348657
C           40.32610411468247        0.22366654964828       -0.65262334100192
C           51.09884640322274        0.28027491781766       -0.41271993885325
C           49.87957298040057        0.31787052876950       -0.52072545741811
C           52.44052348083685        0.24190181589661       -0.32181768519954
C           53.66322713375737        0.21052646527152       -0.26545920020222
Fe          45.10628693239719        0.40639485644776       -0.95546113929687
C           41.71799758493825        0.28922346447303       -0.77199738072308
C           42.38433738437592       -0.74602228813072       -1.44596279856277
C           41.71050198889714       -1.80737167372878       -2.12531691964658
C           42.67267734850311       -2.60090980115317       -2.65691662270564
C           43.93110312036393       -2.04479778268969       -2.25799073712566
N           43.73385923285008       -0.87550467349563       -1.56188354362303
C           45.15726147253236       -2.67370073268741       -2.42783818100901
C           45.20830152908978       -3.98228620434316       -3.12127401702469
C           44.52184223717762       -5.08653476142415       -2.62549859932349
C           44.58763708538856       -6.31287088324569       -3.28595543572634
C           43.83822332518321       -7.45607325813420       -2.70519373857019
O           43.98005649294628       -8.59550418717569       -3.39668452800547
O           43.16167349701255       -7.38956103212270       -1.71127307740543
C           45.34019644103661       -6.43969546078665       -4.45320661698253
C           46.02561826638026       -5.34105541054832       -4.94788695424159
C           45.96576800730453       -4.12274687142781       -4.28687571597212
C           46.34667824210175       -2.15933600563176       -1.92087546676679
C           47.58236160977629       -2.88113790480294       -1.87970676810114
C           48.49930236881448       -2.05355254798156       -1.31985305489236
N           46.50643892250753       -0.90982576080752       -1.38057670745399
C           47.82581361356348       -0.82283633513134       -1.04736359281317
C           48.49014732940586        0.35476454763172       -0.67688641844332
C           47.83055271017484        1.58772659729719       -0.55543771203880
C           48.51000312667787        2.83385885105000       -0.39250651808525
C           47.55223289861804        3.78964620836038       -0.30322423606965
C           46.29037602766189        3.11469514594420       -0.36625602022760
N           46.48209005246262        1.76991536724056       -0.57819411597921
C           45.06430670889949        3.71437849384885       -0.10807877711457
C           45.02440535738647        5.16060271105600        0.21224065374858
C           44.28152142472119        6.03173901633251       -0.58805054178047
C           44.23652698209496        7.38894789508095       -0.30217317098065
C           44.92526536333006        7.89164044522474        0.78913048577958
C           45.66378414010401        7.02973083158876        1.60113535562985
C           46.38213382058438        7.60720883163010        2.76571486817528
O           47.06810181646710        6.70084270682275        3.47612805327935
O           46.36652782130461        8.77445396111197        3.06109121272654
C           45.71333727552553        5.66765134201760        1.31184810547794
C           43.86797232380390        3.00461799697913       -0.07596092575447
C           42.62563145659547        3.54141579874863        0.39123421029587
C           41.70241480057278        2.55608964874095        0.26491725353401
C           42.37976813514013        1.43181703189693       -0.30024748396375
N           43.70547097307323        1.70125437142334       -0.46966417148267
H           40.63958985332393       -1.91119472626974       -2.19266251994027
H           42.54869761349060       -3.48898284182753       -3.25465590095589
H           43.94535558879311       -5.01165192046239       -1.71000533199622
H           43.46375797768349       -9.29030652143820       -2.95650990858718
H           45.38733234712078       -7.39274404681138       -4.96591329271894
H           46.61231334605059       -5.43242993751782       -5.85490309310321
H           46.49882144620288       -3.26473114561602       -4.68092128989658
H           47.71700850270861       -3.89549975859658       -2.21842839315745
H           49.54241944249802       -2.24025717264323       -1.12179105506105
H           49.58147634828283        2.95031556013640       -0.36684210529690
H           47.68177628640037        4.85405653109966       -0.19516044988448
H           43.74894818293880        5.63976389937116       -1.44730662738411
H           43.66093567397319        8.05409978333588       -0.93565192455999
H           44.89999698960472        8.94888885271135        1.02784121199549
H           47.50470766392459        7.15426453529160        4.21560862891389
H           46.27283467986954        4.99852911166346        1.95468620036634
H           42.49022461672513        4.53688444581415        0.78171992273659
H           40.65339632626954        2.58072288508011        0.51223390867582

          :  Hamiltonian                  GFN1-xTB          :
         :: total energy            -366.338988425256 Eh    ::
         :: gradient norm              0.000415596504 Eh/a0 ::
         :: HOMO-LUMO gap              0.056419959786 eV    ::
         :: SCC energy              -371.698570183343 Eh    ::
         :: repulsion energy           5.535375259207 Eh    ::

    * Orbital Energies and Occupations

         #    Occupation            Energy/Eh            Energy/eV
      -------------------------------------------------------------
         1        2.0000           -0.8375876             -22.7919
       ...           ...                  ...                  ...
       314        2.0000           -0.4038875             -10.9903
       315        2.0000           -0.4037078             -10.9854
       316        1.9998           -0.3987861             -10.8515
       317        1.9952           -0.3959038             -10.7731
       318        1.9925           -0.3954702             -10.7613
       319        1.9917           -0.3953773             -10.7588
       320        1.9750           -0.3943208             -10.7300
       321        1.9698           -0.3941369             -10.7250
       322        1.9546           -0.3937418             -10.7143
       323        1.9526           -0.3937006             -10.7131
       324        1.9502           -0.3936521             -10.7118
       325        1.9477           -0.3936038             -10.7105
       326        1.2969           -0.3907496             -10.6328 (HOMO)
       327        0.3444           -0.3886762             -10.5764 (LUMO)
       328        0.3413           -0.3886658             -10.5761
       329        0.2883           -0.3884757             -10.5710
       330                         -0.3527465              -9.5987
       331                         -0.3405244              -9.2661
       332                         -0.3396281              -9.2418
       333                         -0.3356278              -9.1329
       334                         -0.3355731              -9.1314
       335                         -0.3319244              -9.0321
       336                         -0.3170724              -8.6280
       337                         -0.3155005              -8.5852
       ...                                ...                  ...
       675                          1.5007463              40.8374
      -------------------------------------------------------------
                  HL-Gap            0.0020734 Eh            0.0564 eV

Wiberg/Mayer (AO) data.
largest (>0.10) Wiberg bond orders for each atom

     #   Z sym  total        # sym  WBO       # sym  WBO       # sym  WBO
 ---------------------------------------------------------------------------
     1  26 Fe   3.113 --     7 N    0.667    43 N    0.666    28 N    0.658
                            21 N    0.657
     2   6 C    3.917 --    42 C    1.364     3 C    1.362    44 H    0.970
     3   6 C    3.923 --     2 C    1.362     7 N    1.208     4 C    1.173
     4   6 C    3.959 --     5 C    1.650     3 C    1.173    45 H    0.975
     5   6 C    3.962 --     4 C    1.650     6 C    1.174    46 H    0.972
     6   6 C    3.921 --     8 C    1.313     7 N    1.224     5 C    1.174
     7   7 N    3.379 --     6 C    1.224     3 C    1.208     1 Fe   0.667
     8   6 C    3.920 --    18 C    1.332     6 C    1.313     9 C    1.030
     9   6 C    3.988 --    10 C    1.407    17 C    1.386     8 C    1.030
                            15 C    0.102
    10   6 C    3.983 --     9 C    1.407    11 C    1.397    47 H    0.967
                            16 C    0.104
    11   6 C    3.988 --    10 C    1.397    15 C    1.391    12 C    1.004
    12   6 C    3.836 --    14 O    1.693    13 O    1.090    11 C    1.004
    13   8 O    2.099 --    12 C    1.090    48 H    0.838    14 O    0.129
    14   8 O    1.962 --    12 C    1.693    13 O    0.129
    15   6 C    3.986 --    16 C    1.447    11 C    1.391    49 H    0.970
                             9 C    0.102
    16   6 C    3.994 --    15 C    1.447    17 C    1.442    50 H    0.972
                            10 C    0.104
    17   6 C    3.986 --    16 C    1.442     9 C    1.386    51 H    0.972
    18   6 C    3.918 --     8 C    1.332    21 N    1.201    19 C    1.180
    19   6 C    3.956 --    20 C    1.637    18 C    1.180    52 H    0.973
    20   6 C    3.960 --    19 C    1.637    22 C    1.189    53 H    0.974
    21   7 N    3.376 --    22 C    1.245    18 C    1.201     1 Fe   0.657
    22   6 C    3.903 --    23 C    1.248    21 N    1.245    20 C    1.189
    23   6 C    3.916 --    22 C    1.248    24 C    1.247   126 C    1.209
    24   6 C    3.903 --    28 N    1.248    23 C    1.247    25 C    1.189
    25   6 C    3.960 --    26 C    1.638    24 C    1.189    54 H    0.973
    26   6 C    3.956 --    25 C    1.638    27 C    1.179    55 H    0.973
    27   6 C    3.919 --    29 C    1.336    28 N    1.198    26 C    1.179
    28   7 N    3.376 --    24 C    1.248    27 C    1.198     1 Fe   0.658
    29   6 C    3.920 --    27 C    1.336    39 C    1.309    30 C    1.030
    30   6 C    3.988 --    38 C    1.404    31 C    1.388    29 C    1.030
                            33 C    0.102
    31   6 C    3.986 --    32 C    1.440    30 C    1.388    56 H    0.972
    32   6 C    3.994 --    33 C    1.450    31 C    1.440    57 H    0.972
                            38 C    0.104
    33   6 C    3.985 --    32 C    1.450    34 C    1.387    58 H    0.969
                            30 C    0.102
    34   6 C    3.988 --    38 C    1.400    33 C    1.387    35 C    1.005
    35   6 C    3.836 --    37 O    1.693    36 O    1.090    34 C    1.005
    36   8 O    2.099 --    35 C    1.090    59 H    0.838    37 O    0.129
    37   8 O    1.961 --    35 C    1.693    36 O    0.129
    38   6 C    3.984 --    30 C    1.404    34 C    1.400    60 H    0.969
                            32 C    0.104
    39   6 C    3.920 --    29 C    1.309    43 N    1.227    40 C    1.175
    40   6 C    3.962 --    41 C    1.649    39 C    1.175    61 H    0.973
    41   6 C    3.959 --    40 C    1.649    42 C    1.173    62 H    0.975
    42   6 C    3.924 --     2 C    1.364    43 N    1.206    41 C    1.173
    43   7 N    3.378 --    39 C    1.227    42 C    1.206     1 Fe   0.666
    44   1 H    1.000 --     2 C    0.970
    45   1 H    0.997 --     4 C    0.975
    46   1 H    1.003 --     5 C    0.972
    47   1 H    1.007 --    10 C    0.967
    48   1 H    0.872 --    13 O    0.838
    49   1 H    1.005 --    15 C    0.970
    50   1 H    1.002 --    16 C    0.972
    51   1 H    1.004 --    17 C    0.972
    52   1 H    1.003 --    19 C    0.973
    53   1 H    1.002 --    20 C    0.974
    54   1 H    1.001 --    25 C    0.973
    55   1 H    1.003 --    26 C    0.973
    56   1 H    1.004 --    31 C    0.972
    57   1 H    1.001 --    32 C    0.972
    58   1 H    1.005 --    33 C    0.969
    59   1 H    0.873 --    36 O    0.838
    60   1 H    1.007 --    38 C    0.969
    61   1 H    1.003 --    40 C    0.973
    62   1 H    0.997 --    41 C    0.975
    63  26 Fe   3.097 --    69 N    0.665   105 N    0.663    90 N    0.655
                            83 N    0.655
    64   6 C    3.918 --   104 C    1.364    65 C    1.363   106 H    0.970
    65   6 C    3.924 --    64 C    1.363    69 N    1.209    66 C    1.172
    66   6 C    3.959 --    67 C    1.651    65 C    1.172   107 H    0.975
    67   6 C    3.962 --    66 C    1.651    68 C    1.173   108 H    0.972
    68   6 C    3.921 --    70 C    1.314    69 N    1.225    67 C    1.173
    69   7 N    3.379 --    68 C    1.225    65 C    1.209    63 Fe   0.665
    70   6 C    3.920 --    80 C    1.333    68 C    1.314    71 C    1.028
    71   6 C    3.988 --    72 C    1.407    79 C    1.387    70 C    1.028
                            77 C    0.102
    72   6 C    3.983 --    71 C    1.407    73 C    1.397   109 H    0.967
                            78 C    0.104
    73   6 C    3.988 --    72 C    1.397    77 C    1.391    74 C    1.004
    74   6 C    3.836 --    76 O    1.693    75 O    1.090    73 C    1.004
    75   8 O    2.099 --    74 C    1.090   110 H    0.838    76 O    0.129
    76   8 O    1.962 --    74 C    1.693    75 O    0.129
    77   6 C    3.987 --    78 C    1.448    73 C    1.391   111 H    0.970
                            71 C    0.102
    78   6 C    3.994 --    77 C    1.448    79 C    1.441   112 H    0.972
                            72 C    0.104
    79   6 C    3.987 --    78 C    1.441    71 C    1.387   113 H    0.973
    80   6 C    3.919 --    70 C    1.333    83 N    1.201    81 C    1.179
    81   6 C    3.956 --    82 C    1.638    80 C    1.179   114 H    0.973
    82   6 C    3.960 --    81 C    1.638    84 C    1.188   115 H    0.973
    83   7 N    3.376 --    84 C    1.247    80 C    1.201    63 Fe   0.655
    84   6 C    3.904 --    85 C    1.249    83 N    1.247    82 C    1.188
    85   6 C    3.917 --    84 C    1.249    86 C    1.247   132 C    1.207
    86   6 C    3.904 --    90 N    1.249    85 C    1.247    87 C    1.188
    87   6 C    3.960 --    88 C    1.639    86 C    1.188   116 H    0.973
    88   6 C    3.956 --    87 C    1.639    89 C    1.178   117 H    0.973
    89   6 C    3.919 --    91 C    1.337    90 N    1.198    88 C    1.178
    90   7 N    3.376 --    86 C    1.249    89 C    1.198    63 Fe   0.655
    91   6 C    3.920 --    89 C    1.337   101 C    1.311    92 C    1.026
    92   6 C    3.988 --   100 C    1.406    93 C    1.389    91 C    1.026
                            95 C    0.103
    93   6 C    3.987 --    94 C    1.439    92 C    1.389   118 H    0.972
                            96 C    0.100
    94   6 C    3.994 --    95 C    1.451    93 C    1.439   119 H    0.972
                           100 C    0.104
    95   6 C    3.986 --    94 C    1.451    96 C    1.388   120 H    0.969
                            92 C    0.103
    96   6 C    3.988 --   100 C    1.400    95 C    1.388    97 C    1.004
                            93 C    0.100
    97   6 C    3.836 --    99 O    1.693    98 O    1.090    96 C    1.004
    98   8 O    2.099 --    97 C    1.090   121 H    0.838    99 O    0.129
    99   8 O    1.961 --    97 C    1.693    98 O    0.129
   100   6 C    3.985 --    92 C    1.406    96 C    1.400   122 H    0.969
                            94 C    0.104
   101   6 C    3.921 --    91 C    1.311   105 N    1.227   102 C    1.175
   102   6 C    3.962 --   103 C    1.650   101 C    1.175   123 H    0.973
   103   6 C    3.959 --   102 C    1.650   104 C    1.172   124 H    0.975
   104   6 C    3.924 --    64 C    1.364   105 N    1.208   103 C    1.172
   105   7 N    3.378 --   101 C    1.227   104 C    1.208    63 Fe   0.663
   106   1 H    1.000 --    64 C    0.970
   107   1 H    0.997 --    66 C    0.975
   108   1 H    1.003 --    67 C    0.972
   109   1 H    1.007 --    72 C    0.967
   110   1 H    0.872 --    75 O    0.838
   111   1 H    1.005 --    77 C    0.970
   112   1 H    1.002 --    78 C    0.972
   113   1 H    1.004 --    79 C    0.973
   114   1 H    1.004 --    81 C    0.973
   115   1 H    1.002 --    82 C    0.973
   116   1 H    1.002 --    87 C    0.973
   117   1 H    1.004 --    88 C    0.973
   118   1 H    1.004 --    93 C    0.972
   119   1 H    1.001 --    94 C    0.972
   120   1 H    1.005 --    95 C    0.969
   121   1 H    0.873 --    98 O    0.838
   122   1 H    1.007 --   100 C    0.969
   123   1 H    1.003 --   102 C    0.973
   124   1 H    0.997 --   103 C    0.975
   125   6 C    3.923 --   126 C    2.440   127 C    1.333
   126   6 C    3.910 --   125 C    2.440    23 C    1.209   128 C    0.195
   127   6 C    3.917 --   128 C    2.437   125 C    1.333
   128   6 C    3.916 --   127 C    2.437   134 C    1.214   126 C    0.195
   129   6 C    3.917 --   130 C    2.438   131 C    1.332
   130   6 C    3.917 --   129 C    2.438   155 C    1.214   132 C    0.195
   131   6 C    3.923 --   132 C    2.441   129 C    1.332
   132   6 C    3.910 --   131 C    2.441    85 C    1.207   130 C    0.195
   133  26 Fe   3.129 --   139 N    0.653   160 N    0.652   175 N    0.649
                           153 N    0.648
   134   6 C    3.908 --   174 C    1.246   135 C    1.238   128 C    1.214
   135   6 C    3.905 --   139 N    1.256   134 C    1.238   136 C    1.191
   136   6 C    3.959 --   137 C    1.635   135 C    1.191   176 H    0.973
   137   6 C    3.959 --   136 C    1.635   138 C    1.181   177 H    0.972
   138   6 C    3.917 --   140 C    1.331   139 N    1.198   137 C    1.181
   139   7 N    3.370 --   135 C    1.256   138 C    1.198   133 Fe   0.653
   140   6 C    3.918 --   138 C    1.331   150 C    1.313   141 C    1.028
   141   6 C    3.988 --   142 C    1.408   149 C    1.386   140 C    1.028
                           147 C    0.102
   142   6 C    3.983 --   141 C    1.408   143 C    1.396   178 H    0.967
                           148 C    0.104
   143   6 C    3.988 --   142 C    1.396   147 C    1.392   144 C    1.004
                           149 C    0.100
   144   6 C    3.837 --   146 O    1.694   145 O    1.091   143 C    1.004
   145   8 O    2.099 --   144 C    1.091   179 H    0.837   146 O    0.130
   146   8 O    1.963 --   144 C    1.694   145 O    0.130
   147   6 C    3.986 --   148 C    1.447   143 C    1.392   180 H    0.970
                           141 C    0.102
   148   6 C    3.994 --   147 C    1.447   149 C    1.443   181 H    0.972
                           142 C    0.104
   149   6 C    3.985 --   148 C    1.443   141 C    1.386   182 H    0.973
                           143 C    0.100
   150   6 C    3.915 --   140 C    1.313   153 N    1.212   151 C    1.185
   151   6 C    3.960 --   152 C    1.633   150 C    1.185   183 H    0.973
   152   6 C    3.959 --   151 C    1.633   154 C    1.191   184 H    0.973
   153   7 N    3.367 --   154 C    1.243   150 C    1.212   133 Fe   0.648
   154   6 C    3.905 --   155 C    1.247   153 N    1.243   152 C    1.191
   155   6 C    3.909 --   154 C    1.247   156 C    1.238   130 C    1.214
   156   6 C    3.906 --   160 N    1.256   155 C    1.238   157 C    1.192
   157   6 C    3.959 --   158 C    1.633   156 C    1.192   185 H    0.973
   158   6 C    3.959 --   157 C    1.633   159 C    1.182   186 H    0.972
   159   6 C    3.917 --   161 C    1.329   160 N    1.199   158 C    1.182
   160   7 N    3.370 --   156 C    1.256   159 C    1.199   133 Fe   0.652
   161   6 C    3.918 --   159 C    1.329   171 C    1.314   162 C    1.029
   162   6 C    3.988 --   170 C    1.405   163 C    1.387   161 C    1.029
                           165 C    0.102
   163   6 C    3.985 --   164 C    1.441   162 C    1.387   187 H    0.973
                           166 C    0.100
   164   6 C    3.994 --   165 C    1.449   163 C    1.441   188 H    0.972
                           170 C    0.104
   165   6 C    3.985 --   164 C    1.449   166 C    1.389   189 H    0.969
                           162 C    0.102
   166   6 C    3.988 --   170 C    1.400   165 C    1.389   167 C    1.004
                           163 C    0.100
   167   6 C    3.837 --   169 O    1.694   168 O    1.091   166 C    1.004
   168   8 O    2.100 --   167 C    1.091   190 H    0.837   169 O    0.129
   169   8 O    1.962 --   167 C    1.694   168 O    0.129
   170   6 C    3.984 --   162 C    1.405   166 C    1.400   191 H    0.969
                           164 C    0.104
   171   6 C    3.916 --   161 C    1.314   175 N    1.211   172 C    1.185
   172   6 C    3.960 --   173 C    1.633   171 C    1.185   192 H    0.973
   173   6 C    3.959 --   172 C    1.633   174 C    1.191   193 H    0.973
   174   6 C    3.905 --   134 C    1.246   175 N    1.244   173 C    1.191
   175   7 N    3.367 --   174 C    1.244   171 C    1.211   133 Fe   0.649
   176   1 H    1.001 --   136 C    0.973
   177   1 H    1.003 --   137 C    0.972
   178   1 H    1.007 --   142 C    0.967
   179   1 H    0.872 --   145 O    0.837
   180   1 H    1.005 --   147 C    0.970
   181   1 H    1.001 --   148 C    0.972
   182   1 H    1.004 --   149 C    0.973
   183   1 H    1.003 --   151 C    0.973
   184   1 H    1.001 --   152 C    0.973
   185   1 H    1.001 --   157 C    0.973
   186   1 H    1.003 --   158 C    0.972
   187   1 H    1.004 --   163 C    0.973
   188   1 H    1.001 --   164 C    0.972
   189   1 H    1.005 --   165 C    0.969
   190   1 H    0.872 --   168 O    0.837
   191   1 H    1.008 --   170 C    0.969
   192   1 H    1.003 --   172 C    0.973
   193   1 H    1.001 --   173 C    0.973
 ---------------------------------------------------------------------------

           -------------------------------------------------
          | TOTAL ENERGY             -366.338988425256 Eh   |
          | GRADIENT NORM               0.000415596504 Eh/α |
          | HOMO-LUMO GAP               0.056419959786 eV   |
           -------------------------------------------------

 * finished run on 2022/07/29 at 16:38:39.408
