   * xtb version 6.5.1 (b24c23e) compiled by 'conda@728c89f4b128' on 2022-07-12
          program call               : xtb Ni_Ph2OMe_C6_3.xyz --gfn 1 --opt -T 48

   ID    Z sym.   atoms
    1   28 Ni     1, 73, 157
    2    6 C      2-6, 8-11, 13-21, 23-27, 29-33, 36, 37, 39-43, 45, 74-78,
                  80-83, 85-93, 95-99, 101-105, 108, 109, 111-115, 117,
                  145-156, 158-162, 164-167, 169-177, 179-183, 185-189, 192,
                  193, 195-199, 201
    3    7 N      7, 12, 34, 35, 79, 84, 106, 107, 163, 168, 190, 191
    4    8 O      22, 28, 38, 44, 94, 100, 110, 116, 178, 184, 194, 200
    5    1 H      46-72, 118-144, 202-227

          :  Hamiltonian                  GFN1-xTB          :
 * total energy  :  -402.8480637 Eh     change       -0.9235919E-08 Eh
 * total energy  :  -403.2314838 Eh     change       -0.3834202E+00 Eh
 * total energy  :  -403.3677988 Eh     change       -0.1363149E+00 Eh
 * total energy  :  -403.4690003 Eh     change       -0.1012015E+00 Eh
 * total energy  :  -403.5467652 Eh     change       -0.7776490E-01 Eh
 * total energy  :  -403.5974985 Eh     change       -0.5073333E-01 Eh
 * total energy  :  -403.6272187 Eh     change       -0.2972021E-01 Eh
 * total energy  :  -403.6471382 Eh     change       -0.1991950E-01 Eh
 * total energy  :  -403.6574952 Eh     change       -0.1035699E-01 Eh
 * total energy  :  -403.6660623 Eh     change       -0.8567131E-02 Eh
 * total energy  :  -403.7224455 Eh     change       -0.2691720E-04 Eh
 * total energy  :  -403.7224731 Eh     change       -0.2754758E-04 Eh
 * total energy  :  -403.7224978 Eh     change       -0.2476418E-04 Eh
 * total energy  :  -403.7225217 Eh     change       -0.2385067E-04 Eh
 * total energy  :  -403.7225438 Eh     change       -0.2206986E-04 Eh
 * total energy  :  -403.7225618 Eh     change       -0.1808168E-04 Eh
 * total energy  :  -403.7225765 Eh     change       -0.1468337E-04 Eh
 * total energy  :  -403.7225894 Eh     change       -0.1291931E-04 Eh
 * total energy  :  -403.7225927 Eh     change       -0.3291002E-05 Eh
   *** GEOMETRY OPTIMIZATION CONVERGED AFTER 94 ITERATIONS ***

 final structure:
================
227
 xtb: 6.5.1 (b24c23e)
Ni          28.60970959577183        0.11779217968872       -0.08260402757188
C           25.22859975320736        0.36340937232188       -0.29979629955893
C           25.87972756472865        1.17603154933914        0.60443511225644
C           25.20018212094362        2.09720410691075        1.46395254128840
C           26.14646720118331        2.66892796153296        2.24403049599479
C           27.40519708671288        2.10872512435527        1.84893433741027
N           27.23118466035503        1.19260600914889        0.84163699756371
C           28.61653782191568        2.44875029014466        2.43382952288424
C           29.82725646905084        1.91348132158049        2.02103929238452
C           31.09066356482242        2.30795471107100        2.56620038940481
C           32.04250076219703        1.64156765465564        1.87110346546900
N           30.00437057067798        1.00082642491498        1.00513414651803
C           31.35852401355124        0.83721670095983        0.90840616698166
C           32.02314461898293        0.00691933620821        0.00238373185610
C           31.34917037872870       -0.81962076241445       -0.90021822628633
C           32.02404012415282       -1.72763955168848       -1.77308583400023
C           31.06387320943962       -2.40325637716601       -2.44744509292001
C           29.80477466238224       -1.89226531054134       -1.99795758118850
C           28.58239596479901       -2.34420554917253       -2.47045112956205
C           28.56821953585226       -3.42984374875994       -3.49045266900963
C           28.99592507908757       -3.18016185711294       -4.80100616638628
O           29.40068847806518       -1.90903820538286       -5.06117844250824
C           29.84592766766391       -1.54947190966905       -6.35338161679226
C           28.98221978418509       -4.19927958466671       -5.75281941569735
C           28.54456762956875       -5.46378215877926       -5.38891028364358
C           28.11584855725083       -5.73382729349220       -4.09813265358323
C           28.12445293344236       -4.71358239366359       -3.14741167536351
O           27.72749191975610       -4.87875838574300       -1.85812382448168
C           27.25495758570218       -6.13287785602373       -1.40971265961764
C           27.37076014548312       -1.81477689047309       -2.05064353901564
C           26.10259805250506       -2.21632236101471       -2.58417002677698
C           25.16474753070080       -1.44092521775235       -1.99213589218025
C           25.86047369795240       -0.57179466141479       -1.09239521455285
N           27.21150591702973       -0.80773632343825       -1.13197113135366
N           29.99285955946369       -0.91800572388855       -1.04265056747528
C           28.62272938588375        3.45320679855273        3.53365145117503
C           28.91936235487027        3.06456962076524        4.84666962280421
O           29.17534390303486        1.74259597476898        5.03060897588077
C           29.48597035317927        1.24567819409497        6.31664802234058
C           28.93089585972855        4.00641174438125        5.87511302014072
C           28.65069413037763        5.33320080718764        5.58544057434420
C           28.35569434353834        5.74133604844617        4.29341681546985
C           28.33964085152071        4.79910210010165        3.26558172697996
O           28.06878675412760        5.10176647687808        1.96837222846289
C           27.75560666780248        6.42747508409973        1.59214642675641
H           24.15086104423703        0.45029889654955       -0.37672344012868
H           24.13409559581526        2.26132567263169        1.46159634353339
H           26.01938865073042        3.40642401834845        3.01969514116937
H           31.22008840655798        3.01226096586540        3.37159957179968
H           33.11376639321475        1.67876133475083        1.98717813881950
H           33.09517522426859       -1.83104684064450       -1.83928727746103
H           31.18506218648434       -3.17765922788933       -3.18701218974962
H           29.05769737906382       -1.68887078096322       -7.10318848541662
H           30.10742172606434       -0.49099305237929       -6.30080809793084
H           30.73198756240486       -2.12498789101744       -6.64773034141086
H           29.30848800237302       -4.01671595505304       -6.76793054652829
H           28.53704083687474       -6.25693746044524       -6.12848169467538
H           27.78069996556379       -6.73001301602911       -3.84216794413411
H           26.99221092620820       -6.00020029627216       -0.35858508273310
H           26.36426490292427       -6.44891625424772       -1.96628640452248
H           28.02775661268106       -6.90667371858122       -1.49287859381794
H           25.96506872872805       -2.98841343723031       -3.32376718315798
H           24.09571807193453       -1.44190198621954       -2.13586637692005
H           29.64612642778523        0.17260643792834        6.19697072809477
H           28.66159479672044        1.41036952214719        7.02105498945082
H           30.39957090853966        1.70398901851694        6.71440914609472
H           29.15634550002411        3.71624620509075        6.89256259884446
H           28.66271125741958        6.06600341473830        6.38479257359395
H           28.14317141092572        6.78349449954536        4.09592183558424
H           28.58877872460522        7.11094496779980        1.79614533118985
H           27.56824119257703        6.40171825487477        0.51704424414619
H           26.85622878959919        6.78887973036199        2.10561480908490
Ni          60.63036765276046        0.06263714385700       -0.13575228724803
C           64.00807982103844        0.35717774393407       -0.34954955057390
C           63.37474505915588       -0.48772266777890       -1.23700150860993
C           64.06981145425800       -1.26568996069367       -2.21726325188358
C           63.12940612834275       -1.96157655303375       -2.89743966409915
C           61.85926607639870       -1.59219105939477       -2.34561595708640
N           62.02176482043077       -0.70274787116188       -1.31285378524989
C           60.64456045392920       -2.05078755247838       -2.83393152689418
C           59.42456480287301       -1.65415018858234       -2.30779250080965
C           58.16280820584218       -2.04372968776670       -2.85962182983921
C           57.20592671801052       -1.46289406633087       -2.09745607393938
N           59.24137042193264       -0.83335932354140       -1.21765112079675
C           57.88513920360454       -0.72839443913319       -1.07722027770593
C           57.21662370994918       -0.05788311125288       -0.04934332024654
C           57.88942446586413        0.61210073187139        0.97653349127163
C           57.21638530036003        1.22484116235898        2.07795597660347
C           58.17381835257466        1.78411220141399        2.85536636871198
C           59.42814044145461        1.52682721210267        2.21611406416305
C           60.64012525822214        2.00840620800413        2.68552988899066
C           60.64935329391829        2.83698757058547        3.92343090162262
C           60.12789133451106        4.13731833175324        3.91113756297162
O           59.63755385012661        4.56865992918402        2.71942699026352
C           59.09682692536212        5.86856302515671        2.59563970429921
C           60.14085097032331        4.91229469193520        5.07045694466124
C           60.67164763235422        4.38224085867384        6.23673826769578
C           61.19373305431018        3.09808318682050        6.27217680759526
C           61.18571168518923        2.32459344270379        5.11176435837180
O           61.66996550716972        1.05647024322126        5.04537904673574
C           62.23490114009520        0.44562232698872        6.18767957188228
C           61.84473677000975        1.77368252142898        2.03863780688371
C           63.09513491617586        2.33182329274637        2.46141449838311
C           64.03561461301071        1.88771393443907        1.59544664500189
C           63.35956359614281        1.05253066491914        0.64955775169528
N           62.01471463303091        1.00124922475886        0.91737435989147
N           59.24234327690953        0.78477481464165        1.07061991645591
C           60.64626130293944       -2.98407514515278       -3.99475670955725
C           60.27262950001425       -4.32373055554521       -3.82544510955057
O           59.93664606938501       -4.69038256991357       -2.56096324663904
C           59.55250988435262       -6.02100299345970       -2.27928493562015
C           60.26971994041359       -5.19703454939784       -4.91280411356237
C           60.63439142319771       -4.72539145254714       -6.16474780309281
C           61.00554762539835       -3.40307887930679       -6.35646677148822
C           61.01385002962096       -2.53083542432558       -5.26852071228317
O           61.35555684333683       -1.21810419134911       -5.35530188453301
C           61.75231952210770       -0.66108723366930       -6.59195373450137
H           65.08429009463109        0.46149502759364       -0.42608150592767
H           65.14075382407901       -1.26952970823728       -2.34599383165216
H           63.26659410344792       -2.65889774838459       -3.70789994241697
H           58.03889254461291       -2.67658156136504       -3.72325771397539
H           56.13411047081362       -1.52236829842957       -2.19823178058665
H           56.14844530657141        1.21342955626334        2.22572386966080
H           58.05384678431597        2.33108462366500        3.77623333782517
H           59.84591520127397        6.63804729065451        2.81862877554616
H           58.77974986595258        5.96769772329248        1.55586727746841
H           58.22879064403213        6.00686698326885        3.25156599207354
H           59.74319013960976        5.91831884408098        5.07154467530253
H           60.67925162625075        4.98418335423045        7.13880813928714
H           61.60080327810898        2.71050864252187        7.19646163958173
H           62.54863865373608       -0.55197102753533        5.87481404244348
H           63.10886559050604        1.00097588627102        6.54932547561314
H           61.50219866636144        0.35485019023207        6.99874131524285
H           63.21988589137106        2.98221824586934        3.31207710923612
H           65.09523787396409        2.08911899081630        1.58420430463466
H           59.33901769555692       -6.05528803870265       -1.20938159130030
H           60.35835559608744       -6.72877286892240       -2.50859991933566
H           58.65115652696633       -6.30533050601700       -2.83567301053652
H           59.98600728300892       -6.23401146565132       -4.79271214663099
H           60.62882233594936       -5.40389268081724       -7.01075442302355
H           61.28271152446202       -3.06203468244766       -7.34495663718457
H           60.94731318106281       -0.71685053836819       -7.33478200752170
H           61.98389519332409        0.38685663457867       -6.39246112575674
H           62.64623320775206       -1.15805732204996       -6.98816972676775
C           37.22576851600651       -0.05056964628032        0.02480099030989
C           35.99811851190206       -0.03778294567465        0.02520896231307
C           34.65228423918241       -0.02880487687653        0.01841311942880
C           33.42911607641330       -0.01393403144489        0.01377688369571
C           38.57150926642992       -0.05694217731660        0.02692969228575
C           39.79488797022993       -0.05955490935665        0.01854850850401
C           53.24265523078788       -0.10120030515129       -0.00285112023388
C           52.01465499296139       -0.10465894144594        0.01319284349486
C           50.66932617160331       -0.10675396892608        0.02182024667509
C           49.44568686265364       -0.10386041955520        0.02666020200802
C           54.58798743732180       -0.08774230827854       -0.01663938213553
C           55.81140758600723       -0.07912388933987       -0.03091488535720
Ni          44.62052597455713       -0.04796650447093        0.02415835306436
C           41.20029011908832       -0.05422429006490        0.02057802428596
C           41.87097711311844       -0.15872975501620        1.24235730247262
C           41.19606861494609       -0.29118331344283        2.49459059472878
C           42.15104097811594       -0.26142018738015        3.45483600070015
C           43.40583864728476       -0.10840266041502        2.78490622412181
N           43.22407749350740       -0.07629465677276        1.42086306723903
C           44.61729566413390        0.03316012595287        3.44453799039865
C           45.83091898932185        0.13233437859284        2.78129538932398
C           47.08650627814566        0.30187172073372        3.44556744221357
C           48.04393773248312        0.26332626402588        2.48794479488079
N           46.01499802684754        0.02630244233695        1.42105124635584
C           47.36951092099266        0.07823918212400        1.24231368520618
C           48.04085973830493       -0.09171518494152        0.02786028018718
C           47.36751719568679       -0.23728995115414       -1.18869943025645
C           48.03970525252019       -0.42242464430345       -2.43552507746369
C           47.08518390647756       -0.40760104688546       -3.39672606188146
C           45.83340687328933       -0.21130604658101       -2.73275738585248
C           44.62479846777597       -0.06653378790865       -3.39732603340230
C           44.63089717465726       -0.05801318425950       -4.88652830002533
C           44.08941670589931       -1.13185245746780       -5.60542307469107
O           43.58275286543186       -2.14929980141754       -4.86080759022441
C           43.01036386355601       -3.27948716627758       -5.48733361606664
C           44.10073633349307       -1.12286883111689       -6.99991549365521
C           44.64837786521345       -0.03856226599946       -7.66866051590323
C           45.18694186954119        1.03661391500126       -6.97819658091552
C           45.18071849332824        1.02608768247114       -5.58371946486555
O           45.67674958510882        2.03330190332078       -4.81862251168925
C           46.25950310357788        3.17104956050405       -5.42158124254112
C           43.41253752622669        0.06667448056835       -2.73763348883039
C           42.15860245185618        0.23092021274299       -3.40656778393003
C           41.20058432937888        0.22341510813091       -2.44896858746423
C           41.87330285089782        0.06614759162147       -1.19848245728655
N           43.22731863666763       -0.00171701971306       -1.37506829590839
N           46.01577178006338       -0.14008852730391       -1.37023993298872
C           44.61354128741134        0.07529660896043        4.93331602806876
C           45.12782378698689       -0.99722378220310        5.67380308737055
O           45.60622018670437       -2.04262475655154        4.94970417577194
C           46.14353725409787       -3.17738887848208        5.59871181885052
C           45.11883428346649       -0.95886000314167        7.06781451714812
C           44.60089489414442        0.15331620558618        7.71410834615089
C           44.08906991909662        1.22735850833908        7.00183641543131
C           44.09248129019086        1.18730959880848        5.60785181669410
O           43.61977459755851        2.18986283856849        4.82197053326389
C           43.06795020429134        3.35480633874653        5.40147134792893
H           40.12816782457037       -0.38828312986485        2.60689131318706
H           42.02931006582623       -0.33223401988248        4.52344123579828
H           47.20719597031412        0.42653533858486        4.50932976920533
H           49.11313969750449        0.34768134554609        2.59830336562146
H           49.10574110344385       -0.54131046391285       -2.54459652341780
H           47.20576917514783       -0.51539665341471       -4.46236392712491
H           42.14643985765412       -3.00245191747359       -6.10360684097359
H           42.67976190387925       -3.93799465896107       -4.68201905949169
H           43.74334590791858       -3.80919376156969       -6.10781804874313
H           43.68909144170868       -1.94853141085006       -7.56474099668211
H           44.65550446828622       -0.03124251953234       -8.75309818279938
H           45.60534028739565        1.87017133878199       -7.52620667389868
H           46.58247198329632        3.81652083602189       -4.60272844863974
H           45.53520848079309        3.71212628549605       -6.04250193523942
H           47.12973668274591        2.90070438214320       -6.03184903290717
H           42.03901505335381        0.33021028096102       -4.47308854160456
H           40.13215163108218        0.31421237174536       -2.56164335077554
H           45.39432966757588       -3.67212429679907        6.22861334302632
H           46.45405857983274       -3.86128900303420        4.80668773469907
H           47.01527203576022       -2.91503115778501        6.21034113844851
H           45.50943037340254       -1.78306266213303        7.64947028607864
H           44.59587707123160        0.18365546303609        8.79816339650276
H           43.69319224507990        2.08273891035578        7.53269018480026
H           43.80742834345222        3.89024522967328        6.00924926186234
H           42.19257548250508        3.12012926513320        6.01914670746330
H           42.75957208042153        3.99074203416590        4.56963661408760

          :  Hamiltonian                  GFN1-xTB          :
         :: total energy            -403.722592740278 Eh    ::
         :: gradient norm              0.000952174123 Eh/a0 ::
         :: HOMO-LUMO gap              1.088330085503 eV    ::
         :: SCC energy              -409.478557692779 Eh    ::
         :: repulsion energy           5.955768130135 Eh    ::

    * Orbital Energies and Occupations

         #    Occupation            Energy/Eh            Energy/eV
      -------------------------------------------------------------
         1        2.0000           -0.8060127             -21.9327
       ...           ...                  ...                  ...
       349        2.0000           -0.3826649             -10.4128
       350        2.0000           -0.3826214             -10.4117
       351        2.0000           -0.3819772             -10.3941
       352        2.0000           -0.3818958             -10.3919
       353        2.0000           -0.3818082             -10.3895
       354        2.0000           -0.3816042             -10.3840
       355        2.0000           -0.3809725             -10.3668
       356        2.0000           -0.3809537             -10.3663
       357        2.0000           -0.3808813             -10.3643
       358        2.0000           -0.3808674             -10.3639
       359        2.0000           -0.3782817             -10.2936
       360        2.0000           -0.3737472             -10.1702
       361        2.0000           -0.3677077             -10.0058 (HOMO)
       362                         -0.3277123              -8.9175 (LUMO)
       363                         -0.3199482              -8.7062
       364                         -0.3150719              -8.5735
       365                         -0.3143099              -8.5528
       366                         -0.3138588              -8.5405
       367                         -0.3137977              -8.5389
       368                         -0.3134867              -8.5304
       369                         -0.3134263              -8.5288
       370                         -0.3133879              -8.5277
       371                         -0.2911277              -7.9220
       372                         -0.2828265              -7.6961
       ...                                ...                  ...
       763                          1.5913232              43.3021
      -------------------------------------------------------------
                  HL-Gap            0.0399954 Eh            1.0883 eV

Wiberg/Mayer (AO) data.
largest (>0.10) Wiberg bond orders for each atom

     #   Z sym  total        # sym  WBO       # sym  WBO       # sym  WBO
 ---------------------------------------------------------------------------
     1  28 Ni   3.010 --     7 N    0.664    34 N    0.664    12 N    0.662
                            35 N    0.662
     2   6 C    3.935 --     3 C    1.364    33 C    1.363    46 H    0.971
     3   6 C    3.925 --     2 C    1.364     7 N    1.216     4 C    1.174
     4   6 C    3.960 --     5 C    1.650     3 C    1.174    47 H    0.975
     5   6 C    3.963 --     4 C    1.650     6 C    1.177    48 H    0.974
     6   6 C    3.918 --     8 C    1.327     7 N    1.220     5 C    1.177
     7   7 N    3.404 --     6 C    1.220     3 C    1.216     1 Ni   0.664
     8   6 C    3.940 --     9 C    1.336     6 C    1.327    36 C    1.013
     9   6 C    3.914 --     8 C    1.336    12 N    1.204    10 C    1.182
    10   6 C    3.960 --    11 C    1.639     9 C    1.182    49 H    0.974
    11   6 C    3.962 --    10 C    1.639    13 C    1.189    50 H    0.973
    12   7 N    3.408 --    13 C    1.241     9 C    1.204     1 Ni   0.662
    13   6 C    3.906 --    14 C    1.264    12 N    1.241    11 C    1.189
    14   6 C    3.944 --    13 C    1.264    15 C    1.264   148 C    1.180
    15   6 C    3.906 --    14 C    1.264    35 N    1.242    16 C    1.189
    16   6 C    3.962 --    17 C    1.639    15 C    1.189    51 H    0.973
    17   6 C    3.960 --    16 C    1.639    18 C    1.183    52 H    0.974
    18   6 C    3.914 --    19 C    1.337    35 N    1.203    17 C    1.183
    19   6 C    3.940 --    18 C    1.337    30 C    1.327    20 C    1.012
    20   6 C    3.977 --    27 C    1.344    21 C    1.343    19 C    1.012
                            25 C    0.101
    21   6 C    3.904 --    24 C    1.362    20 C    1.343    22 O    1.032
    22   8 O    2.145 --    21 C    1.032    23 C    0.935
    23   6 C    3.907 --    54 H    0.983    55 H    0.980    53 H    0.980
                            22 O    0.935
    24   6 C    3.983 --    25 C    1.442    21 C    1.362    56 H    0.969
    25   6 C    3.993 --    26 C    1.442    24 C    1.442    57 H    0.974
                            20 C    0.101
    26   6 C    3.983 --    25 C    1.442    27 C    1.361    58 H    0.969
    27   6 C    3.904 --    26 C    1.361    20 C    1.344    28 O    1.032
    28   8 O    2.145 --    27 C    1.032    29 C    0.935
    29   6 C    3.907 --    59 H    0.983    60 H    0.980    61 H    0.980
                            28 O    0.935
    30   6 C    3.918 --    19 C    1.327    34 N    1.220    31 C    1.177
    31   6 C    3.963 --    32 C    1.650    30 C    1.177    62 H    0.974
    32   6 C    3.960 --    31 C    1.650    33 C    1.174    63 H    0.975
    33   6 C    3.925 --     2 C    1.363    34 N    1.216    32 C    1.174
    34   7 N    3.404 --    30 C    1.220    33 C    1.216     1 Ni   0.664
    35   7 N    3.408 --    15 C    1.242    18 C    1.203     1 Ni   0.662
    36   6 C    3.977 --    37 C    1.343    43 C    1.343     8 C    1.013
                            41 C    0.101
    37   6 C    3.904 --    40 C    1.361    36 C    1.343    38 O    1.032
    38   8 O    2.145 --    37 C    1.032    39 C    0.935
    39   6 C    3.907 --    64 H    0.983    66 H    0.980    65 H    0.980
                            38 O    0.935
    40   6 C    3.983 --    41 C    1.442    37 C    1.361    67 H    0.969
    41   6 C    3.993 --    40 C    1.442    42 C    1.442    68 H    0.974
                            36 C    0.101
    42   6 C    3.983 --    41 C    1.442    43 C    1.362    69 H    0.969
    43   6 C    3.903 --    42 C    1.362    36 C    1.343    44 O    1.031
    44   8 O    2.145 --    43 C    1.031    45 C    0.935
    45   6 C    3.907 --    71 H    0.983    72 H    0.980    70 H    0.980
                            44 O    0.935
    46   1 H    1.001 --     2 C    0.971
    47   1 H    0.998 --     4 C    0.975
    48   1 H    1.002 --     5 C    0.974
    49   1 H    1.002 --    10 C    0.974
    50   1 H    1.002 --    11 C    0.973
    51   1 H    1.002 --    16 C    0.973
    52   1 H    1.002 --    17 C    0.974
    53   1 H    1.009 --    23 C    0.980
    54   1 H    1.015 --    23 C    0.983
    55   1 H    1.009 --    23 C    0.980
    56   1 H    1.000 --    24 C    0.969
    57   1 H    1.003 --    25 C    0.974
    58   1 H    1.000 --    26 C    0.969
    59   1 H    1.015 --    29 C    0.983
    60   1 H    1.009 --    29 C    0.980
    61   1 H    1.009 --    29 C    0.980
    62   1 H    1.002 --    31 C    0.974
    63   1 H    0.998 --    32 C    0.975
    64   1 H    1.015 --    39 C    0.983
    65   1 H    1.009 --    39 C    0.980
    66   1 H    1.009 --    39 C    0.980
    67   1 H    1.000 --    40 C    0.969
    68   1 H    1.003 --    41 C    0.974
    69   1 H    1.000 --    42 C    0.969
    70   1 H    1.009 --    45 C    0.980
    71   1 H    1.015 --    45 C    0.983
    72   1 H    1.009 --    45 C    0.980
    73  28 Ni   3.011 --    79 N    0.664   106 N    0.664    84 N    0.662
                           107 N    0.662
    74   6 C    3.934 --   105 C    1.364    75 C    1.363   118 H    0.971
    75   6 C    3.925 --    74 C    1.363    79 N    1.216    76 C    1.174
    76   6 C    3.960 --    77 C    1.650    75 C    1.174   119 H    0.975
    77   6 C    3.963 --    76 C    1.650    78 C    1.177   120 H    0.974
    78   6 C    3.918 --    80 C    1.328    79 N    1.219    77 C    1.177
    79   7 N    3.403 --    78 C    1.219    75 C    1.216    73 Ni   0.664
    80   6 C    3.939 --    81 C    1.335    78 C    1.328   108 C    1.013
    81   6 C    3.914 --    80 C    1.335    84 N    1.204    82 C    1.183
    82   6 C    3.960 --    83 C    1.638    81 C    1.183   121 H    0.974
    83   6 C    3.961 --    82 C    1.638    85 C    1.189   122 H    0.973
    84   7 N    3.408 --    85 C    1.241    81 C    1.204    73 Ni   0.662
    85   6 C    3.905 --    86 C    1.263    84 N    1.241    83 C    1.189
    86   6 C    3.944 --    85 C    1.263    87 C    1.262   156 C    1.184
    87   6 C    3.905 --    86 C    1.262   107 N    1.243    88 C    1.190
    88   6 C    3.962 --    89 C    1.638    87 C    1.190   123 H    0.973
    89   6 C    3.959 --    88 C    1.638    90 C    1.183   124 H    0.974
    90   6 C    3.914 --    91 C    1.337   107 N    1.202    89 C    1.183
    91   6 C    3.939 --    90 C    1.337   102 C    1.326    92 C    1.012
    92   6 C    3.977 --    99 C    1.344    93 C    1.343    91 C    1.012
                            97 C    0.101
    93   6 C    3.904 --    96 C    1.361    92 C    1.343    94 O    1.032
    94   8 O    2.145 --    93 C    1.032    95 C    0.935
    95   6 C    3.907 --   126 H    0.983   125 H    0.980   127 H    0.980
                            94 O    0.935
    96   6 C    3.983 --    97 C    1.442    93 C    1.361   128 H    0.969
    97   6 C    3.993 --    98 C    1.442    96 C    1.442   129 H    0.974
                            92 C    0.101
    98   6 C    3.983 --    97 C    1.442    99 C    1.361   130 H    0.969
    99   6 C    3.904 --    98 C    1.361    92 C    1.344   100 O    1.032
   100   8 O    2.145 --    99 C    1.032   101 C    0.935
   101   6 C    3.908 --   131 H    0.983   132 H    0.980   133 H    0.980
                           100 O    0.935
   102   6 C    3.918 --    91 C    1.326   106 N    1.221   103 C    1.177
   103   6 C    3.963 --   104 C    1.650   102 C    1.177   134 H    0.974
   104   6 C    3.960 --   103 C    1.650   105 C    1.174   135 H    0.975
   105   6 C    3.925 --    74 C    1.364   106 N    1.215   104 C    1.174
   106   7 N    3.403 --   102 C    1.221   105 C    1.215    73 Ni   0.664
   107   7 N    3.407 --    87 C    1.243    90 C    1.202    73 Ni   0.662
   108   6 C    3.977 --   115 C    1.343   109 C    1.343    80 C    1.013
                           113 C    0.101
   109   6 C    3.904 --   112 C    1.361   108 C    1.343   110 O    1.033
   110   8 O    2.145 --   109 C    1.033   111 C    0.935
   111   6 C    3.907 --   136 H    0.983   137 H    0.980   138 H    0.980
                           110 O    0.935
   112   6 C    3.983 --   113 C    1.443   109 C    1.361   139 H    0.969
   113   6 C    3.993 --   112 C    1.443   114 C    1.442   140 H    0.974
                           108 C    0.101
   114   6 C    3.983 --   113 C    1.442   115 C    1.362   141 H    0.969
   115   6 C    3.903 --   114 C    1.362   108 C    1.343   116 O    1.031
   116   8 O    2.145 --   115 C    1.031   117 C    0.935
   117   6 C    3.907 --   143 H    0.983   144 H    0.980   142 H    0.980
                           116 O    0.935
   118   1 H    1.001 --    74 C    0.971
   119   1 H    0.998 --    76 C    0.975
   120   1 H    1.002 --    77 C    0.974
   121   1 H    1.002 --    82 C    0.974
   122   1 H    1.002 --    83 C    0.973
   123   1 H    1.002 --    88 C    0.973
   124   1 H    1.002 --    89 C    0.974
   125   1 H    1.009 --    95 C    0.980
   126   1 H    1.015 --    95 C    0.983
   127   1 H    1.009 --    95 C    0.980
   128   1 H    1.000 --    96 C    0.969
   129   1 H    1.003 --    97 C    0.974
   130   1 H    1.000 --    98 C    0.969
   131   1 H    1.015 --   101 C    0.983
   132   1 H    1.009 --   101 C    0.980
   133   1 H    1.009 --   101 C    0.980
   134   1 H    1.002 --   103 C    0.974
   135   1 H    0.998 --   104 C    0.975
   136   1 H    1.015 --   111 C    0.983
   137   1 H    1.009 --   111 C    0.980
   138   1 H    1.009 --   111 C    0.980
   139   1 H    1.000 --   112 C    0.969
   140   1 H    1.003 --   113 C    0.974
   141   1 H    1.000 --   114 C    0.969
   142   1 H    1.009 --   117 C    0.980
   143   1 H    1.015 --   117 C    0.983
   144   1 H    1.009 --   117 C    0.980
   145   6 C    3.927 --   146 C    2.378   149 C    1.328   148 C    0.191
   146   6 C    3.926 --   145 C    2.378   147 C    1.327   150 C    0.191
   147   6 C    3.938 --   148 C    2.459   146 C    1.327
   148   6 C    3.890 --   147 C    2.459    14 C    1.180   145 C    0.191
   149   6 C    3.935 --   150 C    2.457   145 C    1.328
   150   6 C    3.891 --   149 C    2.457   158 C    1.183   146 C    0.191
   151   6 C    3.926 --   152 C    2.375   155 C    1.330   154 C    0.191
   152   6 C    3.928 --   151 C    2.375   153 C    1.331   156 C    0.191
   153   6 C    3.935 --   154 C    2.455   152 C    1.331
   154   6 C    3.891 --   153 C    2.455   170 C    1.186   151 C    0.191
   155   6 C    3.938 --   156 C    2.456   151 C    1.330
   156   6 C    3.891 --   155 C    2.456    86 C    1.184   152 C    0.191
   157  28 Ni   3.003 --   191 N    0.661   190 N    0.661   168 N    0.661
                           163 N    0.661
   158   6 C    3.934 --   159 C    1.262   189 C    1.262   150 C    1.183
   159   6 C    3.906 --   158 C    1.262   163 N    1.241   160 C    1.191
   160   6 C    3.960 --   161 C    1.636   159 C    1.191   202 H    0.974
   161   6 C    3.960 --   160 C    1.636   162 C    1.185   203 H    0.974
   162   6 C    3.912 --   164 C    1.331   163 N    1.204   161 C    1.185
   163   7 N    3.401 --   159 C    1.241   162 C    1.204   157 Ni   0.661
   164   6 C    3.935 --   165 C    1.332   162 C    1.331   192 C    1.013
   165   6 C    3.912 --   164 C    1.332   168 N    1.203   166 C    1.185
   166   6 C    3.960 --   167 C    1.636   165 C    1.185   204 H    0.974
   167   6 C    3.960 --   166 C    1.636   169 C    1.191   205 H    0.974
   168   7 N    3.402 --   169 C    1.242   165 C    1.203   157 Ni   0.661
   169   6 C    3.905 --   170 C    1.261   168 N    1.242   167 C    1.191
   170   6 C    3.934 --   169 C    1.261   171 C    1.261   154 C    1.186
   171   6 C    3.905 --   170 C    1.261   191 N    1.242   172 C    1.191
   172   6 C    3.960 --   173 C    1.636   171 C    1.191   206 H    0.974
   173   6 C    3.960 --   172 C    1.636   174 C    1.186   207 H    0.974
   174   6 C    3.912 --   175 C    1.331   191 N    1.203   173 C    1.186
   175   6 C    3.935 --   186 C    1.332   174 C    1.331   176 C    1.014
   176   6 C    3.977 --   177 C    1.343   183 C    1.342   175 C    1.014
                           181 C    0.101
   177   6 C    3.904 --   180 C    1.361   176 C    1.343   178 O    1.032
   178   8 O    2.145 --   177 C    1.032   179 C    0.935
   179   6 C    3.907 --   209 H    0.983   208 H    0.980   210 H    0.980
                           178 O    0.935
   180   6 C    3.983 --   181 C    1.442   177 C    1.361   211 H    0.969
   181   6 C    3.993 --   182 C    1.442   180 C    1.442   212 H    0.974
                           176 C    0.101
   182   6 C    3.983 --   181 C    1.442   183 C    1.361   213 H    0.969
   183   6 C    3.904 --   182 C    1.361   176 C    1.342   184 O    1.033
   184   8 O    2.146 --   183 C    1.033   185 C    0.935
   185   6 C    3.907 --   214 H    0.983   216 H    0.980   215 H    0.980
                           184 O    0.935
   186   6 C    3.912 --   175 C    1.332   190 N    1.203   187 C    1.185
   187   6 C    3.960 --   188 C    1.636   186 C    1.185   217 H    0.974
   188   6 C    3.960 --   187 C    1.636   189 C    1.191   218 H    0.974
   189   6 C    3.906 --   158 C    1.262   190 N    1.242   188 C    1.191
   190   7 N    3.401 --   189 C    1.242   186 C    1.203   157 Ni   0.661
   191   7 N    3.402 --   171 C    1.242   174 C    1.203   157 Ni   0.661
   192   6 C    3.977 --   199 C    1.343   193 C    1.343   164 C    1.013
                           197 C    0.101
   193   6 C    3.904 --   196 C    1.361   192 C    1.343   194 O    1.033
   194   8 O    2.145 --   193 C    1.033   195 C    0.935
   195   6 C    3.907 --   220 H    0.983   221 H    0.980   219 H    0.980
                           194 O    0.935
   196   6 C    3.983 --   197 C    1.442   193 C    1.361   222 H    0.969
   197   6 C    3.993 --   196 C    1.442   198 C    1.442   223 H    0.974
                           192 C    0.101
   198   6 C    3.983 --   197 C    1.442   199 C    1.361   224 H    0.969
   199   6 C    3.904 --   198 C    1.361   192 C    1.343   200 O    1.033
   200   8 O    2.145 --   199 C    1.033   201 C    0.935
   201   6 C    3.907 --   227 H    0.983   226 H    0.980   225 H    0.980
                           200 O    0.935
   202   1 H    1.002 --   160 C    0.974
   203   1 H    1.002 --   161 C    0.974
   204   1 H    1.002 --   166 C    0.974
   205   1 H    1.002 --   167 C    0.974
   206   1 H    1.002 --   172 C    0.974
   207   1 H    1.002 --   173 C    0.974
   208   1 H    1.009 --   179 C    0.980
   209   1 H    1.015 --   179 C    0.983
   210   1 H    1.009 --   179 C    0.980
   211   1 H    1.000 --   180 C    0.969
   212   1 H    1.003 --   181 C    0.974
   213   1 H    1.000 --   182 C    0.969
   214   1 H    1.015 --   185 C    0.983
   215   1 H    1.009 --   185 C    0.980
   216   1 H    1.009 --   185 C    0.980
   217   1 H    1.002 --   187 C    0.974
   218   1 H    1.002 --   188 C    0.974
   219   1 H    1.009 --   195 C    0.980
   220   1 H    1.015 --   195 C    0.983
   221   1 H    1.009 --   195 C    0.980
   222   1 H    1.000 --   196 C    0.969
   223   1 H    1.003 --   197 C    0.974
   224   1 H    1.000 --   198 C    0.969
   225   1 H    1.009 --   201 C    0.980
   226   1 H    1.009 --   201 C    0.980
   227   1 H    1.015 --   201 C    0.983
 ---------------------------------------------------------------------------

           -------------------------------------------------
          | TOTAL ENERGY             -403.722592740278 Eh   |
          | GRADIENT NORM               0.000952174123 Eh/α |
          | HOMO-LUMO GAP               1.088330085503 eV   |
           -------------------------------------------------

 * finished run on 2022/07/30 at 10:14:10.849
