   * xtb version 6.5.1 (b24c23e) compiled by 'conda@728c89f4b128' on 2022-07-12
          program call               : xtb Fe_Ph2OMe_C8_2.xyz --gfn 1 --opt -T 48

   ID    Z sym.   atoms
    1   26 Fe     1, 73
    2    6 C      2-6, 8-11, 13-21, 23-27, 29-33, 36, 37, 39-43, 45, 74-78,
                  80-83, 85-93, 95-99, 101-105, 108, 109, 111-115, 117,
                  145-152
    3    7 N      7, 12, 34, 35, 79, 84, 106, 107
    4    8 O      22, 28, 38, 44, 94, 100, 110, 116
    5    1 H      46-72, 118-144
########################################################################
[WARNING] Please study the warnings concerning your input carefully
-1- prog_main_parseArguments: Unknown option '-T' provided
########################################################################

          :  Hamiltonian                  GFN1-xTB          :
 * total energy  :  -266.5309389 Eh     change        0.2307274E-09 Eh
 * total energy  :  -267.0138042 Eh     change       -0.4828653E+00 Eh
 * total energy  :  -267.1154595 Eh     change       -0.1016553E+00 Eh
 * total energy  :  -267.1622951 Eh     change       -0.4683555E-01 Eh
 * total energy  :  -267.1816802 Eh     change       -0.1938515E-01 Eh
 * total energy  :  -267.1925445 Eh     change       -0.1086427E-01 Eh
 * total energy  :  -267.1983273 Eh     change       -0.5782774E-02 Eh
 * total energy  :  -267.2022185 Eh     change       -0.3891291E-02 Eh
 * total energy  :  -267.2042425 Eh     change       -0.2023994E-02 Eh
 * total energy  :  -267.2063925 Eh     change       -0.2149936E-02 Eh
 * total energy  :  -267.2121075 Eh     change       -0.9825171E-05 Eh
 * total energy  :  -267.2121190 Eh     change       -0.1144816E-04 Eh
 * total energy  :  -267.2121325 Eh     change       -0.1349556E-04 Eh
 * total energy  :  -267.2121514 Eh     change       -0.1891207E-04 Eh
 * total energy  :  -267.2121734 Eh     change       -0.2199910E-04 Eh
 * total energy  :  -267.2121914 Eh     change       -0.1805581E-04 Eh
 * total energy  :  -267.2121895 Eh     change        0.1915236E-05 Eh
 * total energy  :  -267.2122007 Eh     change       -0.1121880E-04 Eh
 * total energy  :  -267.2122013 Eh     change       -0.5725931E-06 Eh
   *** GEOMETRY OPTIMIZATION CONVERGED AFTER 46 ITERATIONS ***

 final structure:
================
152
 xtb: 6.5.1 (b24c23e)
Fe          11.89968362112026       -0.02047601458171        0.06294221076471
C            8.50411830307516        0.07346710105096        0.03998620024912
C            9.16396093185180        0.86936905842088        0.95359994893266
C            8.49554682948210        1.71101771199154        1.90060077657948
C            9.46152525648704        2.37844556941651        2.57468029262346
C           10.71708864193594        1.94124675344823        2.03844693451378
N           10.52255526845378        1.01054365171603        1.05432687229041
C           11.94510224805254        2.43624093435979        2.45334573020534
C           13.15296594634109        1.98995837106453        1.94669185362171
C           14.42472963076267        2.49012650975171        2.37504565328948
C           15.36675791347162        1.78247613612092        1.70715416275940
N           13.31866797680933        0.99950688515718        1.00704949473407
C           14.66670747501389        0.85649274688545        0.87143152770868
C           15.31622386431178       -0.07645483351984        0.05343702040421
C           14.62863176715026       -0.97228521549114       -0.77424566695017
C           15.29016161518477       -1.93878756380269       -1.59424285063477
C           14.32296489267255       -2.58534108512599       -2.28746958202631
C           13.07340733949186       -2.00798497204898       -1.89148447345936
C           11.84867933863037       -2.39252867838565       -2.41454441788481
C           11.82594237173801       -3.43345626165444       -3.47858351398947
C           12.33394355006588       -3.15191511656577       -4.75409831966441
O           12.81980993092205       -1.89625123802713       -4.93506539197638
C           13.36806504668878       -1.51157370015379       -6.17952603194814
C           12.31051120609472       -4.12505314811520       -5.75260909316266
C           11.78537684690292       -5.37691722766319       -5.47008876792242
C           11.27976578684462       -5.67922142742388       -4.21478543203865
C           11.29693961881868       -4.70466873042251       -3.21752056564623
O           10.83177292120408       -4.90663835498491       -1.95690946540052
C           10.26543400194434       -6.14912438207982       -1.59222101289967
C           10.64045134856609       -1.85473198791406       -1.98825419745795
C            9.36611765890151       -2.22842973553791       -2.52953168056415
C            8.42908032574460       -1.54025582451770       -1.83665685899209
C            9.13271585860895       -0.74006952212336       -0.87963506115049
N           10.48581897806701       -0.92249885485320       -0.99808497884866
N           13.27772928474742       -1.02812904711592       -0.94874343720369
C           11.96317612117478        3.50111903929609        3.49779184951021
C           12.09904423717823        3.16431880964642        4.84934177181696
O           12.20628944499823        1.83746957618828        5.12019898456301
C           12.34000301242341        1.38871384949464        6.45373379757955
C           12.11541168149583        4.16311078130783        5.82291897773377
C           11.99726750272289        5.48981586531258        5.43678548708758
C           11.86199212960745        5.84475836535938        4.10297307750043
C           11.84400967125714        4.84614880098938        3.12945316254441
O           11.71762389125844        5.08467682325650        1.79810940692369
C           11.60186500263488        6.40812445483476        1.31619284479796
H            7.41987754173029        0.09171051278002        0.04201721643674
H            7.42472037855598        1.77064270663343        2.01615658206868
H            9.35183859565121        3.10400525603860        3.36483451763243
H           14.56269930113555        3.27709896623049        3.09896676483068
H           16.44027551577553        1.86527041741079        1.76463593383750
H           16.35731773075678       -2.09024945820312       -1.62305579637812
H           14.43289609876122       -3.38297792850839       -3.00387313791323
H           12.62150051766279       -1.56429763647001       -6.98118248166109
H           13.69375153586439       -0.47657343798578       -6.06046546997384
H           14.23166499216271       -2.13247008718865       -6.44682529668123
H           12.69579249832571       -3.91611435628218       -6.74158950844023
H           11.76968242289577       -6.13435255861572       -6.24603959483476
H           10.87839883138941       -6.66506679598802       -4.02188781078406
H            9.95960439699796       -6.04872122264737       -0.54920616527672
H            9.38620679832544       -6.38468688378967       -2.20415438427582
H           10.99489538805075       -6.96371047551162       -1.67691253809860
H            9.22224609188901       -2.93177206891005       -3.33361858268467
H            7.35622439988304       -1.55844895420976       -1.94725509546566
H           12.40226676084521        0.30015201071924        6.40318117354425
H           11.47206170968253        1.67199046307797        7.06157138540301
H           13.25219180369441        1.78051734081523        6.91986857319190
H           12.21918292162462        3.91697786479487        6.87119961086357
H           12.01084684377541        6.26619755912765        6.19388060136389
H           11.77209526285542        6.88816342008953        3.83194032349434
H           12.48627985414306        7.00594185823330        1.56790071104774
H           11.51916368572266        6.32984225976336        0.23060043975083
H           10.70593232195218        6.90254220729252        1.71094965723291
Fe          30.46481269667009       -0.00368010496827       -0.03812251058119
C           33.86126907349431        0.02010969050361       -0.11460144503005
C           33.20369296164639       -0.77754362199972       -1.02814614482334
C           33.87466889755260       -1.57349249916584       -2.01208299518109
C           32.90979395885495       -2.16609759280535       -2.75410651912297
C           31.65234080400313       -1.73074612953119       -2.22076983414301
N           31.84484088822020       -0.89714048335915       -1.15264763498394
C           30.42388989970174       -2.10037236958843       -2.74943693239716
C           29.21450627826221       -1.68052633225012       -2.22393113999164
C           27.94308817753976       -2.04220462285682       -2.77493411492618
C           27.00043678206355       -1.47322146367731       -1.98628509097282
N           29.04774467044242       -0.89219138260883       -1.10958640438596
C           27.69973607681847       -0.76792549829525       -0.95697394673132
C           27.04962411429327       -0.08117708880120        0.07612529799458
C           27.73661042471049        0.61593979552693        1.07715049376101
C           27.07325355264173        1.29641672598646        2.14548775539850
C           28.04002714264290        1.88397844483632        2.88967196230467
C           29.29085816586654        1.56797347170146        2.26728249036245
C           30.51454823704599        2.03432966568154        2.72092593794959
C           30.53773809938894        2.93959620209275        3.90264531754525
C           30.02714413962616        4.24131093983283        3.80792151290429
O           29.53445784217554        4.59847818895438        2.59322846218029
C           28.98575714131550        5.88523304151586        2.39197127575836
C           30.05504432962037        5.09131099058280        4.91304348713925
C           30.58757961940735        4.63464913916880        6.10913675626188
C           31.09629865818094        3.35009968412255        6.22713630564073
C           31.07471267950782        2.50157730627550        5.12072189380908
O           31.54323581610669        1.22634312491274        5.13820677786912
C           32.11945714403159        0.69037332471360        6.31220018855180
C           31.72246452850408        1.70235359733049        2.11941962413668
C           32.99347531711339        2.20430619713268        2.55399625213589
C           33.93126436425217        1.63643291521361        1.76026965415997
C           33.23104135422910        0.79520088007544        0.83664893847731
N           31.87999750877416        0.85237619978464        1.05851891896084
N           29.08851469891015        0.76483490353847        1.16920137381870
C           30.40645118259392       -2.98282041161570       -3.95186217620127
C           30.26200943408036       -4.36772620606651       -3.81119402539866
O           30.14931035139029       -4.82406071473711       -2.53674774503105
C           30.01025881475076       -6.20736698880111       -2.28241574751996
C           30.24394648913787       -5.18921035739715       -4.93839352077609
C           30.36823065235782       -4.61899481964202       -6.19639006056776
C           30.51190100698038       -3.24905705753944       -6.35763211458227
C           30.53222766463719       -2.42768870347096       -5.23063959398173
O           30.66596699711020       -1.07656489264531       -5.27724232380090
C           30.78346852342427       -0.41169860148179       -6.51874052058891
H           34.94481988130566        0.04351796400110       -0.15002784828294
H           34.94626851241406       -1.65068912371022       -2.10836557218599
H           33.02139653285478       -2.83716993847309       -3.59073463791169
H           27.80569386072344       -2.65249585358083       -3.65301202449864
H           25.92704331425801       -1.51833300814839       -2.07753045704257
H           26.00520608742291        1.31115998228208        2.29285031347070
H           27.92875195604789        2.48326685467625        3.77848089070822
H           29.73373394320187        6.67083156351964        2.55369519401043
H           28.65426067902211        5.91439308531545        1.35239377764463
H           28.12591865864303        6.06233082610277        3.04929723389572
H           29.66795713911762        6.09939152682314        4.84889868458277
H           30.60697038379628        5.29519109156087        6.96899884173055
H           31.50391385150251        3.01991395103148        7.17318591832737
H           32.42592451567465       -0.32708089005612        6.06253519423698
H           32.99958537659495        1.26488576393556        6.62572406103034
H           31.39608240070685        0.65686397779344        7.13588772641415
H           33.13476078950020        2.90054313423682        3.36473071919311
H           35.00216965804287        1.76419969196935        1.77996610081156
H           29.94697693692864       -6.31197326104960       -1.19777859142682
H           30.87632093884324       -6.77192778890531       -2.64880032502823
H           29.09682819056027       -6.60957112517122       -2.73712076865922
H           30.13368833318947       -6.26121624534334       -4.84417121009150
H           30.35274933820565       -5.25781611430486       -7.07263330152836
H           30.60619443430624       -2.83282884252423       -7.35165797173092
H           29.89776215621247       -0.57204872888325       -7.14543607344977
H           30.87085462898973        0.65136047189462       -6.28684774491752
H           31.67752364351846       -0.73577475927942       -7.06517951533440
C           16.71654983240778       -0.10813959526976        0.06273596647821
C           17.94285666295906       -0.12258881497862        0.07027833511422
C           19.28262749413818       -0.12949894049758        0.07897741247937
C           20.51529651790765       -0.12720320727523        0.09240560054667
C           21.85041100257219       -0.12699324238456        0.10089745100377
C           23.08306083664203       -0.12061782185056        0.10957601115494
C           24.42284780065597       -0.10617301509978        0.10941950994076
C           25.64913305981262       -0.08723590600696        0.10255909665116

          :  Hamiltonian                  GFN1-xTB          :
         :: total energy            -267.212201304339 Eh    ::
         :: gradient norm              0.000996278067 Eh/a0 ::
         :: HOMO-LUMO gap              0.099249954042 eV    ::
         :: SCC energy              -271.069580284481 Eh    ::
         :: repulsion energy           3.988798486371 Eh    ::

    * Orbital Energies and Occupations

         #    Occupation            Energy/Eh            Energy/eV
      -------------------------------------------------------------
         1        2.0000           -0.8067663             -21.9532
       ...           ...                  ...                  ...
       227        2.0000           -0.4112090             -11.1896
       228        2.0000           -0.4060116             -11.0481
       229        2.0000           -0.3995480             -10.8723
       230        2.0000           -0.3828580             -10.4181
       231        2.0000           -0.3828287             -10.4173
       232        2.0000           -0.3811626             -10.3720
       233        1.9912           -0.3757884             -10.2257
       234        1.9911           -0.3757770             -10.2254
       235        1.9411           -0.3739577             -10.1759
       236        1.9408           -0.3739526             -10.1758
       237        1.9381           -0.3739094             -10.1746
       238        1.9372           -0.3738960             -10.1742
       239        1.7676           -0.3725651             -10.1380 (HOMO)
       240        0.2812           -0.3689177             -10.0388 (LUMO)
       241        0.2118           -0.3686108             -10.0304
       242                         -0.3269194              -8.8959
       243                         -0.3156089              -8.5882
       244                         -0.3127237              -8.5096
       245                         -0.3126914              -8.5088
       246                         -0.2937339              -7.9929
       247                         -0.2897050              -7.8833
       248                         -0.2886666              -7.8550
       249                         -0.2885364              -7.8515
       250                         -0.2788178              -7.5870
       ...                                ...                  ...
       510                          1.6096186              43.8000
      -------------------------------------------------------------
                  HL-Gap            0.0036474 Eh            0.0992 eV

Wiberg/Mayer (AO) data.
largest (>0.10) Wiberg bond orders for each atom

     #   Z sym  total        # sym  WBO       # sym  WBO       # sym  WBO
 ---------------------------------------------------------------------------
     1  26 Fe   3.166 --    34 N    0.674     7 N    0.669    12 N    0.666
                            35 N    0.665
     2   6 C    3.926 --    33 C    1.364     3 C    1.361    46 H    0.971
     3   6 C    3.926 --     2 C    1.361     7 N    1.212     4 C    1.173
     4   6 C    3.959 --     5 C    1.650     3 C    1.173    47 H    0.975
     5   6 C    3.962 --     4 C    1.650     6 C    1.176    48 H    0.974
     6   6 C    3.919 --     8 C    1.321     7 N    1.222     5 C    1.176
     7   7 N    3.384 --     6 C    1.222     3 C    1.212     1 Fe   0.669
     8   6 C    3.928 --     9 C    1.346     6 C    1.321    36 C    1.002
     9   6 C    3.916 --     8 C    1.346    12 N    1.195    10 C    1.179
    10   6 C    3.957 --    11 C    1.641     9 C    1.179    49 H    0.974
    11   6 C    3.960 --    10 C    1.641    13 C    1.186    50 H    0.974
    12   7 N    3.384 --    13 C    1.250     9 C    1.195     1 Fe   0.666
    13   6 C    3.905 --    12 N    1.250    14 C    1.248    11 C    1.186
    14   6 C    3.927 --    15 C    1.251    13 C    1.248   145 C    1.204
    15   6 C    3.905 --    14 C    1.251    35 N    1.247    16 C    1.187
    16   6 C    3.960 --    17 C    1.640    15 C    1.187    51 H    0.974
    17   6 C    3.958 --    16 C    1.640    18 C    1.179    52 H    0.974
    18   6 C    3.916 --    19 C    1.339    35 N    1.198    17 C    1.179
    19   6 C    3.929 --    18 C    1.339    30 C    1.317    20 C    1.016
    20   6 C    3.976 --    27 C    1.341    21 C    1.341    19 C    1.016
                            25 C    0.100
    21   6 C    3.903 --    24 C    1.362    20 C    1.341    22 O    1.033
    22   8 O    2.146 --    21 C    1.033    23 C    0.935
    23   6 C    3.907 --    54 H    0.983    55 H    0.980    53 H    0.980
                            22 O    0.935
    24   6 C    3.983 --    25 C    1.442    21 C    1.362    56 H    0.969
    25   6 C    3.992 --    24 C    1.442    26 C    1.442    57 H    0.973
                            20 C    0.100
    26   6 C    3.983 --    25 C    1.442    27 C    1.362    58 H    0.969
    27   6 C    3.903 --    26 C    1.362    20 C    1.341    28 O    1.032
    28   8 O    2.146 --    27 C    1.032    29 C    0.935
    29   6 C    3.907 --    59 H    0.983    60 H    0.980    61 H    0.980
                            28 O    0.935
    30   6 C    3.919 --    19 C    1.317    34 N    1.224    31 C    1.175
    31   6 C    3.962 --    32 C    1.651    30 C    1.175    62 H    0.974
    32   6 C    3.959 --    31 C    1.651    33 C    1.172    63 H    0.975
    33   6 C    3.926 --     2 C    1.364    34 N    1.210    32 C    1.172
    34   7 N    3.385 --    30 C    1.224    33 C    1.210     1 Fe   0.674
    35   7 N    3.383 --    15 C    1.247    18 C    1.198     1 Fe   0.665
    36   6 C    3.977 --    37 C    1.347    43 C    1.347     8 C    1.002
                            41 C    0.102
    37   6 C    3.905 --    40 C    1.360    36 C    1.347    38 O    1.033
    38   8 O    2.145 --    37 C    1.033    39 C    0.935
    39   6 C    3.907 --    64 H    0.983    65 H    0.980    66 H    0.980
                            38 O    0.935
    40   6 C    3.983 --    41 C    1.444    37 C    1.360    67 H    0.969
    41   6 C    3.995 --    40 C    1.444    42 C    1.443    68 H    0.974
                            36 C    0.102
    42   6 C    3.983 --    41 C    1.443    43 C    1.360    69 H    0.969
    43   6 C    3.905 --    42 C    1.360    36 C    1.347    44 O    1.033
    44   8 O    2.145 --    43 C    1.033    45 C    0.935
    45   6 C    3.907 --    71 H    0.983    72 H    0.980    70 H    0.980
                            44 O    0.935
    46   1 H    1.001 --     2 C    0.971
    47   1 H    0.998 --     4 C    0.975
    48   1 H    1.002 --     5 C    0.974
    49   1 H    1.002 --    10 C    0.974
    50   1 H    1.002 --    11 C    0.974
    51   1 H    1.002 --    16 C    0.974
    52   1 H    1.002 --    17 C    0.974
    53   1 H    1.009 --    23 C    0.980
    54   1 H    1.015 --    23 C    0.983
    55   1 H    1.009 --    23 C    0.980
    56   1 H    1.000 --    24 C    0.969
    57   1 H    1.003 --    25 C    0.973
    58   1 H    1.000 --    26 C    0.969
    59   1 H    1.015 --    29 C    0.983
    60   1 H    1.009 --    29 C    0.980
    61   1 H    1.009 --    29 C    0.980
    62   1 H    1.002 --    31 C    0.974
    63   1 H    0.998 --    32 C    0.975
    64   1 H    1.015 --    39 C    0.983
    65   1 H    1.009 --    39 C    0.980
    66   1 H    1.009 --    39 C    0.980
    67   1 H    0.999 --    40 C    0.969
    68   1 H    1.003 --    41 C    0.974
    69   1 H    0.999 --    42 C    0.969
    70   1 H    1.009 --    45 C    0.980
    71   1 H    1.015 --    45 C    0.983
    72   1 H    1.009 --    45 C    0.980
    73  26 Fe   3.168 --    79 N    0.672   106 N    0.670   107 N    0.667
                            84 N    0.664
    74   6 C    3.926 --   105 C    1.364    75 C    1.362   118 H    0.971
    75   6 C    3.926 --    74 C    1.362    79 N    1.212    76 C    1.173
    76   6 C    3.959 --    77 C    1.650    75 C    1.173   119 H    0.975
    77   6 C    3.962 --    76 C    1.650    78 C    1.176   120 H    0.974
    78   6 C    3.919 --    80 C    1.321    79 N    1.222    77 C    1.176
    79   7 N    3.385 --    78 C    1.222    75 C    1.212    73 Fe   0.672
    80   6 C    3.928 --    81 C    1.345    78 C    1.321   108 C    1.003
    81   6 C    3.916 --    80 C    1.345    84 N    1.195    82 C    1.179
    82   6 C    3.957 --    83 C    1.641    81 C    1.179   121 H    0.974
    83   6 C    3.960 --    82 C    1.641    85 C    1.186   122 H    0.974
    84   7 N    3.383 --    85 C    1.250    81 C    1.195    73 Fe   0.664
    85   6 C    3.905 --    84 N    1.250    86 C    1.248    83 C    1.186
    86   6 C    3.927 --    87 C    1.251    85 C    1.248   152 C    1.204
    87   6 C    3.905 --    86 C    1.251   107 N    1.248    88 C    1.186
    88   6 C    3.960 --    89 C    1.641    87 C    1.186   123 H    0.974
    89   6 C    3.958 --    88 C    1.641    90 C    1.179   124 H    0.974
    90   6 C    3.916 --    91 C    1.341   107 N    1.197    89 C    1.179
    91   6 C    3.929 --    90 C    1.341   102 C    1.316    92 C    1.016
    92   6 C    3.976 --    99 C    1.341    93 C    1.341    91 C    1.016
                            97 C    0.100
    93   6 C    3.903 --    96 C    1.362    92 C    1.341    94 O    1.033
    94   8 O    2.146 --    93 C    1.033    95 C    0.935
    95   6 C    3.907 --   126 H    0.983   127 H    0.980   125 H    0.980
                            94 O    0.935
    96   6 C    3.983 --    97 C    1.442    93 C    1.362   128 H    0.969
    97   6 C    3.992 --    98 C    1.442    96 C    1.442   129 H    0.973
                            92 C    0.100
    98   6 C    3.983 --    97 C    1.442    99 C    1.362   130 H    0.969
    99   6 C    3.903 --    98 C    1.362    92 C    1.341   100 O    1.033
   100   8 O    2.146 --    99 C    1.033   101 C    0.935
   101   6 C    3.907 --   131 H    0.983   132 H    0.980   133 H    0.980
                           100 O    0.935
   102   6 C    3.919 --    91 C    1.316   106 N    1.224   103 C    1.176
   103   6 C    3.962 --   104 C    1.650   102 C    1.176   134 H    0.974
   104   6 C    3.959 --   103 C    1.650   105 C    1.173   135 H    0.975
   105   6 C    3.926 --    74 C    1.364   106 N    1.210   104 C    1.173
   106   7 N    3.384 --   102 C    1.224   105 C    1.210    73 Fe   0.670
   107   7 N    3.384 --    87 C    1.248    90 C    1.197    73 Fe   0.667
   108   6 C    3.977 --   109 C    1.347   115 C    1.346    80 C    1.003
                           113 C    0.102
   109   6 C    3.905 --   112 C    1.359   108 C    1.347   110 O    1.033
   110   8 O    2.145 --   109 C    1.033   111 C    0.935
   111   6 C    3.907 --   136 H    0.983   137 H    0.980   138 H    0.980
                           110 O    0.935
   112   6 C    3.983 --   113 C    1.444   109 C    1.359   139 H    0.969
   113   6 C    3.995 --   112 C    1.444   114 C    1.443   140 H    0.974
                           108 C    0.102
   114   6 C    3.983 --   113 C    1.443   115 C    1.360   141 H    0.969
   115   6 C    3.905 --   114 C    1.360   108 C    1.346   116 O    1.033
   116   8 O    2.145 --   115 C    1.033   117 C    0.935
   117   6 C    3.907 --   143 H    0.983   144 H    0.980   142 H    0.980
                           116 O    0.935
   118   1 H    1.001 --    74 C    0.971
   119   1 H    0.998 --    76 C    0.975
   120   1 H    1.002 --    77 C    0.974
   121   1 H    1.002 --    82 C    0.974
   122   1 H    1.002 --    83 C    0.974
   123   1 H    1.002 --    88 C    0.974
   124   1 H    1.002 --    89 C    0.974
   125   1 H    1.009 --    95 C    0.980
   126   1 H    1.015 --    95 C    0.983
   127   1 H    1.009 --    95 C    0.980
   128   1 H    1.000 --    96 C    0.969
   129   1 H    1.003 --    97 C    0.973
   130   1 H    1.000 --    98 C    0.969
   131   1 H    1.015 --   101 C    0.983
   132   1 H    1.009 --   101 C    0.980
   133   1 H    1.009 --   101 C    0.980
   134   1 H    1.002 --   103 C    0.974
   135   1 H    0.998 --   104 C    0.975
   136   1 H    1.015 --   111 C    0.983
   137   1 H    1.009 --   111 C    0.980
   138   1 H    1.009 --   111 C    0.980
   139   1 H    0.999 --   112 C    0.969
   140   1 H    1.003 --   113 C    0.974
   141   1 H    0.999 --   114 C    0.969
   142   1 H    1.009 --   117 C    0.980
   143   1 H    1.015 --   117 C    0.983
   144   1 H    1.009 --   117 C    0.980
   145   6 C    3.867 --   146 C    2.414    14 C    1.204   148 C    0.183
   146   6 C    3.924 --   145 C    2.414   147 C    1.361
   147   6 C    3.882 --   148 C    2.310   146 C    1.361   150 C    0.178
   148   6 C    3.916 --   147 C    2.310   149 C    1.386   145 C    0.183
   149   6 C    3.916 --   150 C    2.310   148 C    1.386   152 C    0.183
   150   6 C    3.882 --   149 C    2.310   151 C    1.361   147 C    0.178
   151   6 C    3.924 --   152 C    2.414   150 C    1.361
   152   6 C    3.867 --   151 C    2.414    86 C    1.204   149 C    0.183
 ---------------------------------------------------------------------------

           -------------------------------------------------
          | TOTAL ENERGY             -267.212201304339 Eh   |
          | GRADIENT NORM               0.000996278067 Eh/α |
          | HOMO-LUMO GAP               0.099249954042 eV   |
           -------------------------------------------------

 * finished run on 2022/07/29 at 19:01:18.774
