   * xtb version 6.5.1 (b24c23e) compiled by 'conda@728c89f4b128' on 2022-07-12
          program call               : xtb PhNO2_C2_2.xyz --gfn 1 --opt -T 48

   ID    Z sym.   atoms
    1    6 C      1-5, 7-11, 15-19, 21-26, 28-32, 36-41, 62-66, 68-72, 76-80,
                  82-87, 89-93, 97-102, 123, 124
    2    7 N      6, 12, 20, 27, 33, 42, 67, 73, 81, 88, 94, 103
    3    8 O      13, 14, 34, 35, 74, 75, 95, 96
    4    1 H      43-61, 104-122
########################################################################
[WARNING] Please study the warnings concerning your input carefully
-1- prog_main_parseArguments: Unknown option '-T' provided
########################################################################

          :  Hamiltonian                  GFN1-xTB          :
 * total energy  :  -235.0044919 Eh     change        0.2020784E-10 Eh
 * total energy  :  -235.1959773 Eh     change       -0.1914854E+00 Eh
 * total energy  :  -235.2741082 Eh     change       -0.7813090E-01 Eh
 * total energy  :  -235.2971261 Eh     change       -0.2301793E-01 Eh
 * total energy  :  -235.3074297 Eh     change       -0.1030362E-01 Eh
 * total energy  :  -235.3132350 Eh     change       -0.5805224E-02 Eh
 * total energy  :  -235.3161527 Eh     change       -0.2917703E-02 Eh
 * total energy  :  -235.3177781 Eh     change       -0.1625465E-02 Eh
 * total energy  :  -235.3196511 Eh     change       -0.1872960E-02 Eh
 * total energy  :  -235.3210382 Eh     change       -0.1387106E-02 Eh
 * total energy  :  -235.3292967 Eh     change       -0.4891937E-05 Eh
 * total energy  :  -235.3293106 Eh     change       -0.1395525E-04 Eh
 * total energy  :  -235.3293262 Eh     change       -0.1556445E-04 Eh
 * total energy  :  -235.3293359 Eh     change       -0.9764388E-05 Eh
 * total energy  :  -235.3293514 Eh     change       -0.1542954E-04 Eh
 * total energy  :  -235.3293550 Eh     change       -0.3661417E-05 Eh
 * total energy  :  -235.3293654 Eh     change       -0.1037240E-04 Eh
 * total energy  :  -235.3293722 Eh     change       -0.6824061E-05 Eh
 * total energy  :  -235.3293761 Eh     change       -0.3831822E-05 Eh
   *** GEOMETRY OPTIMIZATION CONVERGED AFTER 62 ITERATIONS ***

 final structure:
================
124
 xtb: 6.5.1 (b24c23e)
C           13.81392187883567       -0.13987947951746       -0.06696237268567
C           14.42920758830586       -1.35004821844374        0.22462153293980
C           13.78936037339816       -2.59932060936868        0.46047662228738
C           14.75649262274871       -3.51877316699934        0.75261759666507
C           16.01791734915786       -2.85711348974916        0.71666568281130
N           15.77125137895800       -1.55853423109641        0.37536372495700
C           17.28144179530491       -3.39905468036136        0.97803097335615
C           17.32681333562359       -4.82150336504335        1.38639858102957
C           18.05979757552640       -5.74377070544647        0.63211780484924
C           18.10627731303550       -7.07561473088747        1.00026654939524
C           17.41793999398634       -7.48986754631464        2.13714061114712
N           17.46412985264944       -8.88736830593904        2.52936127130630
O           18.10804158124159       -9.63799085040982        1.84235931073845
O           16.85314643656591       -9.20979896486007        3.51585623305065
C           16.68612087108999       -6.58797358837776        2.90433242689244
C           16.64146003606422       -5.25905088850796        2.52410701473122
C           18.49215466044472       -2.70514518553672        0.88398001391278
C           19.77322495449892       -3.26241157231287        1.27865863818622
C           20.69625589863401       -2.31327516700751        1.02035620293382
N           18.65562455788373       -1.43406644719552        0.42811090379885
C           19.98062270624267       -1.17949870169085        0.47076837339615
C           20.62710959545483       -0.01027984880498        0.02087504901678
C           19.98358745287903        1.15877818446834       -0.42917559400338
C           20.61006625033463        2.33068292221784       -0.92722801002973
C           19.63678234729575        3.25576997358431       -1.18477534108652
C           18.38224121890583        2.67472464421470       -0.85155864618352
N           18.64101817247674        1.40160474041776       -0.42029387791872
C           17.11878413341149        3.26978865252810       -0.95785994797757
C           17.08921369112525        4.69748388779832       -1.34692980219504
C           16.39619898908225        5.11018331105018       -2.48962698131695
C           16.36172876686769        6.44545458867321       -2.84754282998871
C           17.02286903528763        7.37903911959503       -2.05436132909786
N           16.98389266637269        8.78346695691777       -2.42153770956551
O           16.36139899038161        9.08488805037063       -3.40743319582747
O           17.57631292939580        9.56020933592785       -1.71723534977096
C           17.72000390789849        6.98976927160003       -0.91405971108594
C           17.75239323687396        5.65160253117880       -0.56777484290984
C           15.90131317995478        2.62053485023702       -0.72520783956687
C           14.59865402826147        3.26660982457637       -0.79224487843302
C           13.68383308298595        2.30621658740943       -0.55350131202309
C           14.42653977018207        1.07953212397202       -0.32220227101036
N           15.75936563150023        1.31081726819714       -0.41539050468146
H           12.72919062310447       -0.15725793296278       -0.09076312849125
H           12.72487077509789       -2.76138881120524        0.40553998662415
H           14.61460651774740       -4.56564380771327        0.96636297697146
H           16.48749616114410       -0.85031910781006        0.25509854434428
H           18.58124033014654       -5.41041521969600       -0.25754785156329
H           18.66601945958972       -7.79787429145834        0.41828319512930
H           16.16449010402716       -6.93463971692896        3.78831435668348
H           16.08804908907343       -4.54513623178277        3.12301474586027
H           19.92296196627384       -4.23683828957891        1.71440725272438
H           21.75845399623690       -2.34745360610553        1.19692650134151
H           21.67038077798534        2.44242872359465       -1.07937202692663
H           19.77276069009604        4.24680059526206       -1.58578952568733
H           17.92868545190839        0.73724560884084       -0.13635555008434
H           15.89746625000608        4.37271813397585       -3.10751546664683
H           15.83140857372734        6.77354319904963       -3.73344059364293
H           18.22349807655576        7.73600062784251       -0.31128328040849
H           18.27848731375616        5.33860421196331        0.32667067624811
H           14.43157149390576        4.31440576691306       -0.98266018469066
H           12.60916003388558        2.39051528496313       -0.51907650639786
C           31.47817712111572        0.08570062618205       -0.12944767945826
C           30.86286629121278        1.27393509891196       -0.50036465258090
C           31.50268266413113        2.46716307931848       -0.93917532688526
C           30.53552926975441        3.40618835049276       -1.16034470704766
C           29.27412641861631        2.81986698878353       -0.85151204339864
N           29.52082088815347        1.53020727971410       -0.47793646472994
C           28.01059368610458        3.41911039488233       -0.90532106497020
C           27.96520827462701        4.84947093325286       -1.28504598926638
C           27.23227815118668        5.25377412483660       -2.40582435766338
C           27.18580442713704        6.58574334428106       -2.77353213322485
C           27.87412033357971        7.52483202764898       -2.01048356453377
N           27.82825019120457        8.92542833726316       -2.39143989860615
O           27.18393451351182        9.21709682896444       -3.36605586399904
O           28.43853572202843        9.70862302433797       -1.70981621386735
C           28.60577392127280        7.14464812511726       -0.88900792023546
C           28.65046201844374        5.80898920602386       -0.53319002208921
C           26.79989367319201        2.77529986783246       -0.62984837856171
C           25.51880440590280        3.45610678051530       -0.57731524252790
C           24.59579149476831        2.50896830172555       -0.31170943053066
N           26.63642642370294        1.45042520941990       -0.36876725057879
C           25.31143478046336        1.25384995432295       -0.20142738122981
C           24.66496418910312        0.01948475084844        0.01267414731314
C           25.30851209902143       -1.21480624402963        0.22653006411314
C           24.68206543833545       -2.47620886073308        0.40064838648142
C           25.65537685328659       -3.40229906458892        0.65446941080198
C           26.90990332986136       -2.73257197527109        0.64217268671042
N           26.65108764098143       -1.41860841210983        0.35879598852737
C           28.17337357696245       -3.29780098544222        0.85639313959671
C           28.20297185501291       -4.72275792429682        1.25536396021135
C           28.89602724588562       -5.66348054102951        0.48655845077185
C           28.93047885417684       -6.99314493276347        0.86477069152305
C           28.26936238710617       -7.38721198620994        2.02470426945599
N           28.30872194179579       -8.78088815904812        2.43072338194631
O           28.93047941353503       -9.54578259999031        1.73885750247438
O           27.71541111310596       -9.08620472061330        3.43329670424556
C           27.57206655022624       -6.46785016895555        2.80341111913179
C           27.53970407141530       -5.14166825290214        2.41373580020175
C           29.39083504417199       -2.62117251578524        0.72276145357625
C           30.69350439364514       -3.21002130274312        0.99686909861484
C           31.60830812831107       -2.26326896131557        0.70869348331472
C           30.86558417241817       -1.09181194919242        0.27751208801316
N           29.53275935219694       -1.33814583121509        0.31631741113652
H           32.56290548299172        0.08842793621159       -0.15883891898978
H           32.56716460277183        2.57808437133062       -1.06954515634596
H           30.67739438124160        4.41435056828910       -1.51423618544424
H           28.80461121555530        0.86065152896712       -0.21758908209443
H           26.71090196434325        4.51099825851327       -2.99826503412555
H           26.62618153776418        6.90684591839084       -3.64381090054369
H           29.12737183810511        7.89591321075547       -0.30829052285202
H           29.20378497928382        5.50374473507899        0.34731182201639
H           25.36905619849777        4.51603517364652       -0.70353598511546
H           23.53359808096057        2.62893313319929       -0.17765726022872
H           23.62175528252034       -2.65023427484497        0.32743110542382
H           25.51942662116408       -4.45865357048101        0.81901306848099
H           27.36339326069385       -0.70268036354918        0.26143798467549
H           29.39480768900063       -5.34772635325374       -0.42222759386366
H           29.46089461234056       -7.72942707193753        0.27295170361470
H           27.06856814882657       -6.79886578087755        3.70375432842707
H           27.01357263223785       -4.41394165585595        3.02067518963199
H           30.86060752455678       -4.20696339167018        1.37135107094079
H           32.68298269549894       -2.31794001458762        0.78146482419453
C           22.03709999878406        0.00234301792026        0.02115324448223
C           23.25497441118416        0.00877916013177        0.01938075414366

          :  Hamiltonian                  GFN1-xTB          :
         :: total energy            -235.329376063925 Eh    ::
         :: gradient norm              0.000730823025 Eh/a0 ::
         :: HOMO-LUMO gap              1.003697110725 eV    ::
         :: SCC energy              -238.589757206247 Eh    ::
         :: repulsion energy           3.367891490493 Eh    ::

    * Orbital Energies and Occupations

         #    Occupation            Energy/Eh            Energy/eV
      -------------------------------------------------------------
         1        2.0000           -0.9235964             -25.1323
       ...           ...                  ...                  ...
       193        2.0000           -0.4594318             -12.5018
       194        2.0000           -0.4485360             -12.2053
       195        2.0000           -0.4473328             -12.1725
       196        2.0000           -0.4445026             -12.0955
       197        2.0000           -0.4432457             -12.0613
       198        2.0000           -0.4427541             -12.0480
       199        2.0000           -0.4426257             -12.0445
       200        2.0000           -0.4397362             -11.9658
       201        2.0000           -0.4396920             -11.9646
       202        2.0000           -0.4244653             -11.5503
       203        2.0000           -0.4240287             -11.5384
       204        2.0000           -0.4172503             -11.3540
       205        2.0000           -0.4042838             -11.0011 (HOMO)
       206                         -0.3673986              -9.9974 (LUMO)
       207                         -0.3621769              -9.8553
       208                         -0.3615362              -9.8379
       209                         -0.3510533              -9.5526
       210                         -0.3505069              -9.5378
       211                         -0.3486810              -9.4881
       212                         -0.3445827              -9.3766
       213                         -0.3444648              -9.3734
       214                         -0.3217393              -8.7550
       215                         -0.3131655              -8.5217
       216                         -0.3039610              -8.2712
       ...                                ...                  ...
       420                          1.3077682              35.5862
      -------------------------------------------------------------
                  HL-Gap            0.0368852 Eh            1.0037 eV

Wiberg/Mayer (AO) data.
largest (>0.10) Wiberg bond orders for each atom

     #   Z sym  total        # sym  WBO       # sym  WBO       # sym  WBO
 ---------------------------------------------------------------------------
     1   6 C    3.926 --    41 C    1.367     2 C    1.348    43 H    0.970
     2   6 C    3.899 --     1 C    1.348     3 C    1.228     6 N    1.169
     3   6 C    3.952 --     4 C    1.598     2 C    1.228    44 H    0.976
     4   6 C    3.958 --     3 C    1.598     5 C    1.231    45 H    0.974
     5   6 C    3.898 --     7 C    1.302     4 C    1.231     6 N    1.180
     6   7 N    3.470 --     5 C    1.180     2 C    1.169    46 H    0.873
     7   6 C    3.935 --    17 C    1.326     5 C    1.302     8 C    1.038
     8   6 C    3.984 --    16 C    1.383     9 C    1.381     7 C    1.038
     9   6 C    3.985 --    10 C    1.465     8 C    1.381    47 H    0.971
                            15 C    0.101
    10   6 C    3.987 --     9 C    1.465    11 C    1.386    48 H    0.965
                            16 C    0.101
    11   6 C    3.940 --    15 C    1.387    10 C    1.386    12 N    0.921
    12   7 N    3.865 --    13 O    1.454    14 O    1.454    11 C    0.921
    13   8 O    1.829 --    12 N    1.454    14 O    0.252
    14   8 O    1.828 --    12 N    1.454    13 O    0.252
    15   6 C    3.987 --    16 C    1.464    11 C    1.387    49 H    0.965
                             9 C    0.101
    16   6 C    3.985 --    15 C    1.464     8 C    1.383    50 H    0.971
                            10 C    0.101
    17   6 C    3.914 --     7 C    1.326    20 N    1.292    18 C    1.125
    18   6 C    3.964 --    19 C    1.707    17 C    1.125    51 H    0.973
    19   6 C    3.964 --    18 C    1.707    21 C    1.129    52 H    0.968
    20   7 N    3.019 --    21 C    1.339    17 C    1.292
    21   6 C    3.911 --    20 N    1.339    22 C    1.259    19 C    1.129
    22   6 C    3.938 --    21 C    1.259    23 C    1.254   123 C    1.182
    23   6 C    3.887 --    22 C    1.254    24 C    1.250    27 N    1.186
    24   6 C    3.959 --    25 C    1.581    23 C    1.250    53 H    0.969
    25   6 C    3.954 --    24 C    1.581    26 C    1.241    54 H    0.974
    26   6 C    3.898 --    28 C    1.302    25 C    1.241    27 N    1.170
    27   7 N    3.474 --    23 C    1.186    26 C    1.170    55 H    0.873
    28   6 C    3.921 --    38 C    1.319    26 C    1.302    29 C    1.040
    29   6 C    3.984 --    30 C    1.381    37 C    1.381    28 C    1.040
    30   6 C    3.985 --    31 C    1.464    29 C    1.381    56 H    0.971
                            36 C    0.101
    31   6 C    3.987 --    30 C    1.464    32 C    1.386    57 H    0.965
                            37 C    0.101
    32   6 C    3.939 --    31 C    1.386    36 C    1.386    33 N    0.921
    33   7 N    3.865 --    35 O    1.454    34 O    1.454    32 C    0.921
    34   8 O    1.828 --    33 N    1.454    35 O    0.252
    35   8 O    1.829 --    33 N    1.454    34 O    0.252
    36   6 C    3.987 --    37 C    1.465    32 C    1.386    58 H    0.964
                            30 C    0.101
    37   6 C    3.985 --    36 C    1.465    29 C    1.381    59 H    0.971
                            31 C    0.101
    38   6 C    3.929 --    42 N    1.319    28 C    1.319    39 C    1.115
    39   6 C    3.967 --    40 C    1.726    38 C    1.115    60 H    0.973
    40   6 C    3.966 --    39 C    1.726    41 C    1.115    61 H    0.975
    41   6 C    3.926 --     1 C    1.367    42 N    1.299    40 C    1.115
    42   7 N    3.009 --    38 C    1.319    41 C    1.299
    43   1 H    1.001 --     1 C    0.970
    44   1 H    0.997 --     3 C    0.976
    45   1 H    1.003 --     4 C    0.974
    46   1 H    0.985 --     6 N    0.873
    47   1 H    1.004 --     9 C    0.971
    48   1 H    1.006 --    10 C    0.965
    49   1 H    1.006 --    15 C    0.965
    50   1 H    1.004 --    16 C    0.971
    51   1 H    1.004 --    18 C    0.973
    52   1 H    1.007 --    19 C    0.968
    53   1 H    1.006 --    24 C    0.969
    54   1 H    1.003 --    25 C    0.974
    55   1 H    0.986 --    27 N    0.873
    56   1 H    1.004 --    30 C    0.971
    57   1 H    1.006 --    31 C    0.965
    58   1 H    1.006 --    36 C    0.964
    59   1 H    1.004 --    37 C    0.971
    60   1 H    1.004 --    39 C    0.973
    61   1 H    0.997 --    40 C    0.975
    62   6 C    3.926 --   102 C    1.367    63 C    1.348   104 H    0.970
    63   6 C    3.899 --    62 C    1.348    64 C    1.228    67 N    1.169
    64   6 C    3.952 --    65 C    1.598    63 C    1.228   105 H    0.976
    65   6 C    3.958 --    64 C    1.598    66 C    1.231   106 H    0.974
    66   6 C    3.898 --    68 C    1.302    65 C    1.231    67 N    1.180
    67   7 N    3.470 --    66 C    1.180    63 C    1.169   107 H    0.873
    68   6 C    3.935 --    78 C    1.326    66 C    1.302    69 C    1.038
    69   6 C    3.984 --    77 C    1.383    70 C    1.381    68 C    1.038
    70   6 C    3.985 --    71 C    1.465    69 C    1.381   108 H    0.971
                            76 C    0.101
    71   6 C    3.987 --    70 C    1.465    72 C    1.386   109 H    0.965
                            77 C    0.101
    72   6 C    3.940 --    76 C    1.387    71 C    1.386    73 N    0.921
    73   7 N    3.865 --    74 O    1.454    75 O    1.454    72 C    0.921
    74   8 O    1.829 --    73 N    1.454    75 O    0.252
    75   8 O    1.828 --    73 N    1.454    74 O    0.252
    76   6 C    3.987 --    77 C    1.464    72 C    1.387   110 H    0.965
                            70 C    0.101
    77   6 C    3.985 --    76 C    1.464    69 C    1.383   111 H    0.971
                            71 C    0.101
    78   6 C    3.914 --    68 C    1.326    81 N    1.292    79 C    1.125
    79   6 C    3.964 --    80 C    1.707    78 C    1.125   112 H    0.973
    80   6 C    3.964 --    79 C    1.707    82 C    1.129   113 H    0.968
    81   7 N    3.019 --    82 C    1.339    78 C    1.292
    82   6 C    3.911 --    81 N    1.339    83 C    1.259    80 C    1.129
    83   6 C    3.938 --    82 C    1.259    84 C    1.254   124 C    1.182
    84   6 C    3.887 --    83 C    1.254    85 C    1.250    88 N    1.186
    85   6 C    3.959 --    86 C    1.581    84 C    1.250   114 H    0.969
    86   6 C    3.954 --    85 C    1.581    87 C    1.241   115 H    0.974
    87   6 C    3.898 --    89 C    1.302    86 C    1.241    88 N    1.170
    88   7 N    3.474 --    84 C    1.186    87 C    1.170   116 H    0.873
    89   6 C    3.921 --    99 C    1.319    87 C    1.302    90 C    1.040
    90   6 C    3.984 --    91 C    1.381    98 C    1.381    89 C    1.040
    91   6 C    3.985 --    92 C    1.464    90 C    1.381   117 H    0.971
                            97 C    0.101
    92   6 C    3.987 --    91 C    1.464    93 C    1.386   118 H    0.965
                            98 C    0.101
    93   6 C    3.939 --    92 C    1.386    97 C    1.386    94 N    0.921
    94   7 N    3.865 --    96 O    1.454    95 O    1.454    93 C    0.921
    95   8 O    1.828 --    94 N    1.454    96 O    0.252
    96   8 O    1.829 --    94 N    1.454    95 O    0.252
    97   6 C    3.987 --    98 C    1.465    93 C    1.386   119 H    0.964
                            91 C    0.101
    98   6 C    3.985 --    97 C    1.465    90 C    1.381   120 H    0.971
                            92 C    0.101
    99   6 C    3.929 --   103 N    1.319    89 C    1.319   100 C    1.115
   100   6 C    3.967 --   101 C    1.726    99 C    1.115   121 H    0.973
   101   6 C    3.966 --   100 C    1.726   102 C    1.115   122 H    0.975
   102   6 C    3.926 --    62 C    1.367   103 N    1.299   101 C    1.115
   103   7 N    3.009 --    99 C    1.319   102 C    1.299
   104   1 H    1.001 --    62 C    0.970
   105   1 H    0.997 --    64 C    0.976
   106   1 H    1.003 --    65 C    0.974
   107   1 H    0.985 --    67 N    0.873
   108   1 H    1.004 --    70 C    0.971
   109   1 H    1.006 --    71 C    0.965
   110   1 H    1.006 --    76 C    0.965
   111   1 H    1.004 --    77 C    0.971
   112   1 H    1.004 --    79 C    0.973
   113   1 H    1.007 --    80 C    0.968
   114   1 H    1.006 --    85 C    0.969
   115   1 H    1.003 --    86 C    0.974
   116   1 H    0.986 --    88 N    0.873
   117   1 H    1.004 --    91 C    0.971
   118   1 H    1.006 --    92 C    0.965
   119   1 H    1.006 --    97 C    0.964
   120   1 H    1.004 --    98 C    0.971
   121   1 H    1.004 --   100 C    0.973
   122   1 H    0.997 --   101 C    0.975
   123   6 C    3.933 --   124 C    2.574    22 C    1.182
   124   6 C    3.933 --   123 C    2.574    83 C    1.182
 ---------------------------------------------------------------------------

           -------------------------------------------------
          | TOTAL ENERGY             -235.329376063925 Eh   |
          | GRADIENT NORM               0.000730823025 Eh/α |
          | HOMO-LUMO GAP               1.003697110725 eV   |
           -------------------------------------------------

 * finished run on 2022/07/30 at 03:36:24.966
