   * xtb version 6.5.1 (b24c23e) compiled by 'conda@728c89f4b128' on 2022-07-12
          program call               : xtb Co_C2Py_C6_3.xyz --gfn 1 --opt -T 48

   ID    Z sym.   atoms
    1   27 Co     1, 59, 129
    2    6 C      2-6, 8-13, 15-19, 21-26, 28-33, 35-40, 60-64, 66-71, 73-77,
                  79-84, 86-91, 93-98, 117-128, 130-134, 136-141, 143-147,
                  149-154, 156-161, 163-168
    3    7 N      7, 14, 20, 27, 34, 41, 65, 72, 78, 85, 92, 99, 135, 142,
                  148, 155, 162, 169
    4    1 H      42-58, 100-116, 170-185
########################################################################
[WARNING] Please study the warnings concerning your input carefully
-1- prog_main_parseArguments: Unknown option '-T' provided
########################################################################

          :  Hamiltonian                  GFN1-xTB          :
 * total energy  :  -334.1270413 Eh     change        0.5265349E-08 Eh
 * total energy  :  -334.6953590 Eh     change       -0.5683177E+00 Eh
 * total energy  :  -334.8576189 Eh     change       -0.1622600E+00 Eh
 * total energy  :  -334.9603723 Eh     change       -0.1027533E+00 Eh
 * total energy  :  -335.0136001 Eh     change       -0.5322787E-01 Eh
 * total energy  :  -335.0502562 Eh     change       -0.3665603E-01 Eh
 * total energy  :  -335.0776274 Eh     change       -0.2737120E-01 Eh
 * total energy  :  -335.0985040 Eh     change       -0.2087663E-01 Eh
 * total energy  :  -335.1147053 Eh     change       -0.1620128E-01 Eh
 * total energy  :  -335.1279834 Eh     change       -0.1327810E-01 Eh
 * total energy  :  -335.2013094 Eh     change       -0.1039063E-04 Eh
 * total energy  :  -335.2013241 Eh     change       -0.1469859E-04 Eh
 * total energy  :  -335.2013376 Eh     change       -0.1349514E-04 Eh
 * total energy  :  -335.2013475 Eh     change       -0.9950942E-05 Eh
 * total energy  :  -335.2013563 Eh     change       -0.8781323E-05 Eh
 * total energy  :  -335.2013665 Eh     change       -0.1017617E-04 Eh
 * total energy  :  -335.2013777 Eh     change       -0.1117657E-04 Eh
 * total energy  :  -335.2013852 Eh     change       -0.7526755E-05 Eh
 * total energy  :  -335.2013898 Eh     change       -0.4658983E-05 Eh
   *** GEOMETRY OPTIMIZATION CONVERGED AFTER 93 ITERATIONS ***

 final structure:
================
185
 xtb: 6.5.1 (b24c23e)
Co          29.83283163843961       -0.04239429461953        0.00166597919491
C           26.44893681005566       -0.01877784880670       -0.11429590174848
C           27.07431653711420        0.67105502058811        0.90157543121041
C           26.37761552919680        1.38134976646993        1.93035020348453
C           27.31497396612389        2.05475068187774        2.63901978914818
C           28.57800116041266        1.75685010640166        2.03595720160376
N           28.42941035135361        0.87503528969208        1.00233697946987
C           29.76627619553368        2.40221035540832        2.37655468972480
C           29.74052756116126        3.40380697221276        3.37070183154893
C           29.71933806606080        4.26444647705864        4.22561915291875
C           29.69796421792257        5.26813966669263        5.22120825867558
C           30.84973503943431        5.99636602449310        5.54108045701168
C           30.77660271060473        6.96861152896470        6.52263088933545
N           29.65784042531873        7.24995962250053        7.18573194295752
C           28.55878929914083        6.56169185636701        6.88780452846456
C           28.52536244545702        5.57050435323704        5.92312213468121
C           30.97681776783628        2.09659287623968        1.75775092762430
C           32.20508397895244        2.76388016213477        2.05433987753872
C           33.17946884384912        2.09713057709698        1.38871896554545
N           31.18345955283870        1.05983302141285        0.88467048866788
C           32.53948290985360        1.02486350051258        0.69480553684272
C           33.23727190362914        0.00754373168000        0.04263132931651
C           32.58247333937702       -1.03350016659828       -0.61833164138727
C           33.26517745186340       -2.10709068866735       -1.26798085739456
C           32.32486777288619       -2.81233451032429       -1.94310913028795
C           31.07517642462120       -2.16279792618649       -1.70217254820024
N           31.23477923772680       -1.09878740640655       -0.85214602672165
C           29.89452110711364       -2.49793107563432       -2.36212861078132
C           29.91991136684049       -3.52232157341081       -3.33285222643482
C           29.94163936639309       -4.39883156993059       -4.17152913376322
C           29.96988549405076       -5.41764112054800       -5.15154869573708
C           31.15277131774765       -6.10331530808114       -5.45131051664690
C           31.12795255594708       -7.09005193053940       -6.42076827929718
N           30.02759424200346       -7.42495186555256       -7.08971776328657
C           28.89891152752461       -6.77814885145564       -6.81015291379020
C           28.81685669350632       -5.77645942828372       -5.85935040498272
C           28.68936790187096       -1.84841706942343       -2.09691577216718
C           27.46192436581715       -2.15314765654484       -2.76654966664283
C           26.49060974513582       -1.45116521432544       -2.13594375122784
C           27.13025825827389       -0.72301571800879       -1.08260634648323
N           28.48819313687002       -0.93611467773650       -1.09945037331374
H           25.36581973464557       -0.01334212434332       -0.14886540851379
H           25.30832467466383        1.36234549355230        2.06844425938114
H           27.18191082962013        2.71058128122830        3.48448631960716
H           31.78188601516410        5.79942918980988        5.02545581075276
H           31.65455989162265        7.54929298501142        6.79063408247004
H           27.66388086737280        6.81683657914247        7.44807125741452
H           27.60801692798488        5.03433768593565        5.71211726329150
H           32.29414509412195        3.62248110449402        2.70024622912804
H           34.24014851192140        2.28922719974642        1.37195132499244
H           34.32831046286511       -2.27752633720489       -1.21431900583971
H           32.45082828919923       -3.68541614884593       -2.56294928727231
H           32.07157112671354       -5.86213843447976       -4.93055802087967
H           32.03118207856532       -7.63768741493497       -6.67398098037783
H           28.02013698243973       -7.07662116521802       -7.37453530017865
H           27.87671909589880       -5.27516373165758       -5.66342328678881
H           27.37379261355812       -2.83030503047974       -3.60101729363910
H           25.43180498017396       -1.42706281812135       -2.33892520457621
Co          61.69578309496370       -0.08342495565592       -0.03789144536292
C           65.07772137469644       -0.21546956241845       -0.15618784122918
C           64.37329822561408       -1.39750931857617       -0.22459731323495
C           64.98886705202816       -2.68569209764327       -0.32559566292763
C           63.99147682903872       -3.57510251930667       -0.54488333462496
C           62.77275524830313       -2.82589038720716       -0.57529079198482
N           63.00759693472443       -1.50066939680446       -0.33805051093668
C           61.53942921640773       -3.37448926698773       -0.92481616165631
C           61.47432429007217       -4.73795857905274       -1.28448998597206
C           61.41686106314035       -5.91035155408466       -1.59154748668413
C           61.34928254907376       -7.27681066704068       -1.94865523368302
C           60.13683981938283       -7.87163542478608       -2.31664576382219
C           60.12443917369706       -9.21261360773510       -2.65693555581404
N           61.21546744028596       -9.97425504528175       -2.65267260371693
C           62.37195536894666       -9.41624212202791       -2.30391823091325
C           62.49209518774256       -8.08502271349213       -1.94673165824642
C           60.36862779831407       -2.61926589381003       -0.92617672257022
C           59.09121389181398       -3.14993522872004       -1.28445510094536
C           58.17937335567126       -2.18675860317594       -1.00640424868102
N           60.25287494832360       -1.32824516976935       -0.47834337093320
C           58.90680348217820       -1.07487380777685       -0.48129856826661
C           58.29405744166533        0.05572241863619        0.06127844057952
C           59.03024161863706        1.13538946623134        0.54994782252643
C           58.43191086974925        2.30069231984065        1.11965004767458
C           59.43244412860849        3.19423696475010        1.31364511345852
C           60.63431737641289        2.56678579468069        0.86247254297947
N           60.38625986138034        1.28858852939933        0.43322652861991
C           61.85692398950231        3.22835555593153        0.76535002204202
C           61.92437474197396        4.59556002120986        1.10980841751310
C           61.98326047060610        5.77052864901974        1.40650158406831
C           62.05164223103237        7.13948291770284        1.75355767683528
C           60.93147355704715        7.82057252669011        2.24399090013642
C           61.05115306263687        9.15992159300434        2.56951157734857
N           62.18641028774307        9.84158015742784        2.43897942101318
C           63.25577693678726        9.20123050212807        1.97330876548088
C           63.24198133450416        7.86366196977893        1.61987536993671
C           63.01794288290947        2.57900699882858        0.34811623618706
C           64.29051654617942        3.22549667003283        0.24476069233890
C           65.19996479140435        2.25461677538269       -0.00782122218898
C           64.47694052854192        1.02050522434139       -0.06072334466963
N           63.13064019537584        1.23742315340974        0.11142807853087
H           66.16014298101375       -0.26015970837743       -0.18229370706577
H           66.04981663101881       -2.86280919083526       -0.24921790765657
H           64.05578893492222       -4.64185060923992       -0.68819025269105
H           59.22431176181185       -7.28805962552902       -2.33360222609898
H           59.19783127418020       -9.69997557309784       -2.94633255110899
H           63.24212675349516      -10.06632725712294       -2.31127751884085
H           63.45401305094772       -7.67121133703225       -1.66919868156533
H           58.92933078645965       -4.13901206902552       -1.68171594541141
H           57.10857014840883       -2.21526656906755       -1.12754287651947
H           57.37908063681304        2.40870144985186        1.32496296586934
H           59.37746408428268        4.19387839085193        1.71367392012051
H           59.98732535198018        7.30360372116031        2.36601246104023
H           60.19841460805380        9.71307404212537        2.95253266451835
H           64.16537754357662        9.78747122149182        1.87935913559996
H           64.13640961117272        7.38119505028780        1.24467530937224
H           64.44852790244668        4.28488763081811        0.36864216537691
H           66.26690840765110        2.34277055943746       -0.13690196300709
C           38.43849216141384       -0.01222976566542        0.01199084332855
C           37.21113902273184        0.01720006282532        0.03825430526566
C           35.86594632864082        0.03006906913419        0.05264844783787
C           34.64246168756616        0.02506989895479        0.05400292671941
C           39.78103571001954       -0.07559484404950       -0.04039091991898
C           41.00035728964183       -0.15750335970540       -0.10694228054651
C           54.32161273722858        0.11983863546778        0.14977449680856
C           53.09422807891283        0.08544198900973        0.13762830141511
C           51.75191411256768        0.00843639696765        0.09123087398777
C           50.53436879792059       -0.09476177852291        0.02603746253729
C           55.66716517167941        0.12318187775583        0.13865992002639
C           56.88991899209677        0.10428044595770        0.10991758747082
Co          45.77352042413613       -0.51842797260552       -0.32629512185906
C           42.39514588716028       -0.29137925287239       -0.19922173801151
C           43.09050158685947        0.46327049432584       -1.14717014212022
C           42.44795780543794        1.31425487011977       -2.09811378365038
C           43.38621767364910        1.64132733025821       -3.02145293034929
C           44.60341928493207        1.02204287466587       -2.60416297579437
N           44.42068011682349        0.32254283144983       -1.44282058373201
C           45.80680592152450        1.11916829555628       -3.30477379733145
C           45.81141904352261        1.73686090001334       -4.57296842438069
C           45.81684295682300        2.26168351646590       -5.66705727506710
C           45.82530984588922        2.88098064135639       -6.93793339301565
C           47.01486794594756        3.04347035439910       -7.65740685463196
C           46.96957077804022        3.65885970643961       -8.89576197405023
N           45.84339837259228        4.10829000288744       -9.44348215910980
C           44.70833164731560        3.95721267438174       -8.76599338611384
C           44.64511286867122        3.35632557619678       -7.52133274655233
C           47.01712605240043        0.70924836848387       -2.74718711060746
C           48.28911858379662        0.98691197597169       -3.33597096346487
C           49.22305922571710        0.68245541291418       -2.40116633568082
N           47.16859533983160        0.17326254865769       -1.49465494785333
C           48.51676274400923        0.18218911108911       -1.26507033320599
C           49.14318334875536       -0.24862627216119       -0.09162649679418
C           48.44734898317527       -0.93878758461647        0.90363361579858
C           49.08609273127394       -1.56823077445140        2.01581635384789
C           48.15514563255548       -2.36535626658524        2.59699376840936
C           46.94543525889337       -2.18523103784443        1.85983879006150
N           47.12517146945975       -1.29169210796856        0.83977369170249
C           45.75198549275773       -2.84992502163144        2.14744414740442
C           45.75477873526345       -3.86711081369582        3.12484138987729
C           45.75553221756328       -4.74868043508055        3.95870219291257
C           45.75167485886014       -5.77260193696228        4.93355072828911
C           44.56651269892480       -6.42413538088010        5.29419397673223
C           44.61482421873560       -7.41930620270040        6.25411012562395
N           45.74003660212133       -7.79281334449248        6.85798127940917
C           46.87077537546006       -7.17798414227255        6.52099207936604
C           46.93068532867230       -6.17097859880867        5.57407434731540
C           44.54266234166564       -2.47578454244684        1.56350669901315
C           43.27467672346388       -2.98288917569956        1.98400158649015
C           42.33222972451887       -2.21110750034543        1.38811367872567
C           43.03072587313738       -1.26590886541810        0.57666903066516
N           44.38242241465501       -1.45304289058878        0.66470204485751
H           41.40629450655990        1.59020657695435       -2.06706880427472
H           43.28148383902926        2.25393197749742       -3.90241516811452
H           47.95416509935799        2.69218304666927       -7.24774551608288
H           47.87697249106547        3.79881734828590       -9.47604397029216
H           43.80864861144927        4.33552826590359       -9.24260949195489
H           43.69931422921015        3.25385268550641       -7.00326869283000
H           48.43077758621676        1.39373291247955       -4.32420625528756
H           50.29534464898767        0.77372934305361       -2.46421333700906
H           50.12091893822608       -1.43107087894959        2.28509443378092
H           48.26000934321102       -3.01228587678294        3.45303764881352
H           43.62820348834899       -6.15045316210665        4.82712393941740
H           43.71085210803830       -7.94161151867706        6.55352832997376
H           47.76976532702940       -7.50800058776204        7.03342880413465
H           47.87321092748825       -5.69636498303509        5.32962380053401
H           43.14028392666560       -3.80127025136218        2.67278937426790
H           41.25921364601990       -2.27026630869553        1.47325902318240

          :  Hamiltonian                  GFN1-xTB          :
         :: total energy            -335.201389838054 Eh    ::
         :: gradient norm              0.000701671691 Eh/a0 ::
         :: HOMO-LUMO gap              0.004217461905 eV    ::
         :: SCC energy              -341.071339510227 Eh    ::
         :: repulsion energy           6.024446769310 Eh    ::

    * Orbital Energies and Occupations

         #    Occupation            Energy/Eh            Energy/eV
      -------------------------------------------------------------
         1        2.0000           -0.7827210             -21.2989
       ...           ...                  ...                  ...
       300        2.0000           -0.4040345             -10.9943
       301        2.0000           -0.4040343             -10.9943
       302        1.9999           -0.4013875             -10.9223
       303        1.9999           -0.4012767             -10.9193
       304        1.9998           -0.4006412             -10.9020
       305        1.9997           -0.4006085             -10.9011
       306        1.9997           -0.4004279             -10.8962
       307        1.9997           -0.4004093             -10.8957
       308        1.9857           -0.3967753             -10.7968
       309        1.9652           -0.3959194             -10.7735
       310        1.9031           -0.3949048             -10.7459
       311        1.0949           -0.3921101             -10.6699
       312        1.0631           -0.3920430             -10.6680 (HOMO)
       313        0.9893           -0.3918880             -10.6638 (LUMO)
       314                         -0.3485172              -9.4836
       315                         -0.3479667              -9.4687
       316                         -0.3445026              -9.3744
       317                         -0.3443335              -9.3698
       318                         -0.3415301              -9.2935
       319                         -0.3414316              -9.2908
       320                         -0.3259775              -8.8703
       321                         -0.3169939              -8.6258
       322                         -0.3168137              -8.6209
       323                         -0.3043357              -8.2814
       ...                                ...                  ...
       655                          1.5664287              42.6247
      -------------------------------------------------------------
                  HL-Gap            0.0001550 Eh            0.0042 eV

Wiberg/Mayer (AO) data.
largest (>0.10) Wiberg bond orders for each atom

     #   Z sym  total        # sym  WBO       # sym  WBO       # sym  WBO
 ---------------------------------------------------------------------------
     1  27 Co   3.015 --    41 N    0.635     7 N    0.634    20 N    0.631
                            27 N    0.630
     2   6 C    3.932 --    40 C    1.369     3 C    1.366    42 H    0.970
     3   6 C    3.916 --     2 C    1.366     7 N    1.195     4 C    1.176
     4   6 C    3.959 --     5 C    1.644     3 C    1.176    43 H    0.975
     5   6 C    3.962 --     4 C    1.644     6 C    1.183    44 H    0.974
     6   6 C    3.911 --     8 C    1.273     7 N    1.229     5 C    1.183
     7   7 N    3.348 --     6 C    1.229     3 C    1.195     1 Co   0.634
     8   6 C    3.934 --    17 C    1.280     6 C    1.273     9 C    1.157
     9   6 C    3.957 --    10 C    2.626     8 C    1.157
    10   6 C    3.933 --     9 C    2.626    11 C    1.141
    11   6 C    3.987 --    16 C    1.351    12 C    1.351    10 C    1.141
    12   6 C    3.973 --    13 C    1.457    11 C    1.351    45 H    0.974
                            15 C    0.104
    13   6 C    3.973 --    12 C    1.457    14 N    1.407    46 H    0.972
                            16 C    0.104
    14   7 N    2.994 --    15 C    1.407    13 C    1.407
    15   6 C    3.973 --    16 C    1.456    14 N    1.407    47 H    0.972
                            12 C    0.104
    16   6 C    3.973 --    15 C    1.456    11 C    1.351    48 H    0.974
                            13 C    0.104
    17   6 C    3.906 --     8 C    1.280    20 N    1.213    18 C    1.190
    18   6 C    3.959 --    19 C    1.633    17 C    1.190    49 H    0.974
    19   6 C    3.960 --    18 C    1.633    21 C    1.191    50 H    0.973
    20   7 N    3.347 --    21 C    1.218    17 C    1.213     1 Co   0.631
    21   6 C    3.897 --    22 C    1.268    20 N    1.218    19 C    1.191
    22   6 C    3.937 --    21 C    1.268    23 C    1.264   120 C    1.181
    23   6 C    3.896 --    22 C    1.264    27 N    1.219    24 C    1.192
    24   6 C    3.960 --    25 C    1.632    23 C    1.192    51 H    0.973
    25   6 C    3.959 --    24 C    1.632    26 C    1.190    52 H    0.974
    26   6 C    3.906 --    28 C    1.280    27 N    1.212    25 C    1.190
    27   7 N    3.349 --    23 C    1.219    26 C    1.212     1 Co   0.630
    28   6 C    3.934 --    26 C    1.280    37 C    1.273    29 C    1.157
    29   6 C    3.957 --    30 C    2.626    28 C    1.157
    30   6 C    3.933 --    29 C    2.626    31 C    1.141
    31   6 C    3.987 --    36 C    1.351    32 C    1.351    30 C    1.141
    32   6 C    3.973 --    33 C    1.457    31 C    1.351    53 H    0.974
                            35 C    0.104
    33   6 C    3.973 --    32 C    1.457    34 N    1.407    54 H    0.972
                            36 C    0.104
    34   7 N    2.994 --    35 C    1.407    33 C    1.407
    35   6 C    3.973 --    36 C    1.457    34 N    1.407    55 H    0.972
                            32 C    0.104
    36   6 C    3.973 --    35 C    1.457    31 C    1.351    56 H    0.974
                            33 C    0.104
    37   6 C    3.911 --    28 C    1.273    41 N    1.230    38 C    1.183
    38   6 C    3.962 --    39 C    1.645    37 C    1.183    57 H    0.974
    39   6 C    3.959 --    38 C    1.645    40 C    1.175    58 H    0.975
    40   6 C    3.916 --     2 C    1.369    41 N    1.193    39 C    1.175
    41   7 N    3.346 --    37 C    1.230    40 C    1.193     1 Co   0.635
    42   1 H    1.000 --     2 C    0.970
    43   1 H    0.997 --     4 C    0.975
    44   1 H    1.002 --     5 C    0.974
    45   1 H    1.002 --    12 C    0.974
    46   1 H    1.013 --    13 C    0.972
    47   1 H    1.013 --    15 C    0.972
    48   1 H    1.002 --    16 C    0.974
    49   1 H    1.002 --    18 C    0.974
    50   1 H    1.001 --    19 C    0.973
    51   1 H    1.001 --    24 C    0.973
    52   1 H    1.002 --    25 C    0.974
    53   1 H    1.002 --    32 C    0.974
    54   1 H    1.013 --    33 C    0.972
    55   1 H    1.013 --    35 C    0.972
    56   1 H    1.002 --    36 C    0.974
    57   1 H    1.002 --    38 C    0.974
    58   1 H    0.997 --    39 C    0.975
    59  27 Co   3.020 --    99 N    0.636    65 N    0.634    78 N    0.632
                            85 N    0.630
    60   6 C    3.934 --    98 C    1.368    61 C    1.367   100 H    0.970
    61   6 C    3.916 --    60 C    1.367    65 N    1.194    62 C    1.176
    62   6 C    3.959 --    63 C    1.645    61 C    1.176   101 H    0.975
    63   6 C    3.962 --    62 C    1.645    64 C    1.183   102 H    0.974
    64   6 C    3.911 --    66 C    1.272    65 N    1.230    63 C    1.183
    65   7 N    3.349 --    64 C    1.230    61 C    1.194    59 Co   0.634
    66   6 C    3.935 --    75 C    1.281    64 C    1.272    67 C    1.157
    67   6 C    3.957 --    68 C    2.627    66 C    1.157
    68   6 C    3.933 --    67 C    2.627    69 C    1.140
    69   6 C    3.987 --    74 C    1.351    70 C    1.351    68 C    1.140
    70   6 C    3.973 --    71 C    1.457    69 C    1.351   103 H    0.974
                            73 C    0.104
    71   6 C    3.973 --    70 C    1.457    72 N    1.407   104 H    0.972
                            74 C    0.104
    72   7 N    2.994 --    71 C    1.407    73 C    1.407
    73   6 C    3.973 --    74 C    1.457    72 N    1.407   105 H    0.972
                            70 C    0.104
    74   6 C    3.973 --    73 C    1.457    69 C    1.351   106 H    0.974
                            71 C    0.104
    75   6 C    3.906 --    66 C    1.281    78 N    1.213    76 C    1.190
    76   6 C    3.959 --    77 C    1.633    75 C    1.190   107 H    0.974
    77   6 C    3.960 --    76 C    1.633    79 C    1.191   108 H    0.973
    78   7 N    3.348 --    79 C    1.219    75 C    1.213    59 Co   0.632
    79   6 C    3.897 --    80 C    1.267    78 N    1.219    77 C    1.191
    80   6 C    3.938 --    81 C    1.268    79 C    1.267   128 C    1.179
    81   6 C    3.897 --    80 C    1.268    85 N    1.218    82 C    1.191
    82   6 C    3.960 --    83 C    1.632    81 C    1.191   109 H    0.973
    83   6 C    3.959 --    82 C    1.632    84 C    1.190   110 H    0.974
    84   6 C    3.906 --    86 C    1.280    85 N    1.214    83 C    1.190
    85   7 N    3.350 --    81 C    1.218    84 C    1.214    59 Co   0.630
    86   6 C    3.935 --    84 C    1.280    95 C    1.274    87 C    1.157
    87   6 C    3.957 --    88 C    2.627    86 C    1.157
    88   6 C    3.933 --    87 C    2.627    89 C    1.140
    89   6 C    3.987 --    94 C    1.351    90 C    1.351    88 C    1.140
    90   6 C    3.973 --    91 C    1.457    89 C    1.351   111 H    0.974
                            93 C    0.104
    91   6 C    3.973 --    90 C    1.457    92 N    1.407   112 H    0.972
                            94 C    0.104
    92   7 N    2.994 --    93 C    1.407    91 C    1.407
    93   6 C    3.973 --    94 C    1.456    92 N    1.407   113 H    0.972
                            90 C    0.104
    94   6 C    3.973 --    93 C    1.456    89 C    1.351   114 H    0.974
                            91 C    0.104
    95   6 C    3.911 --    86 C    1.274    99 N    1.229    96 C    1.183
    96   6 C    3.962 --    97 C    1.645    95 C    1.183   115 H    0.974
    97   6 C    3.960 --    96 C    1.645    98 C    1.175   116 H    0.975
    98   6 C    3.916 --    60 C    1.368    99 N    1.194    97 C    1.175
    99   7 N    3.347 --    95 C    1.229    98 C    1.194    59 Co   0.636
   100   1 H    1.000 --    60 C    0.970
   101   1 H    0.997 --    62 C    0.975
   102   1 H    1.002 --    63 C    0.974
   103   1 H    1.002 --    70 C    0.974
   104   1 H    1.013 --    71 C    0.972
   105   1 H    1.013 --    73 C    0.972
   106   1 H    1.002 --    74 C    0.974
   107   1 H    1.002 --    76 C    0.974
   108   1 H    1.001 --    77 C    0.973
   109   1 H    1.001 --    82 C    0.973
   110   1 H    1.002 --    83 C    0.974
   111   1 H    1.002 --    90 C    0.974
   112   1 H    1.013 --    91 C    0.972
   113   1 H    1.013 --    93 C    0.972
   114   1 H    1.002 --    94 C    0.974
   115   1 H    1.002 --    96 C    0.974
   116   1 H    0.997 --    97 C    0.975
   117   6 C    3.921 --   118 C    2.371   121 C    1.331   120 C    0.189
   118   6 C    3.919 --   117 C    2.371   119 C    1.330   122 C    0.188
   119   6 C    3.934 --   120 C    2.455   118 C    1.330
   120   6 C    3.884 --   119 C    2.455    22 C    1.181   117 C    0.189
   121   6 C    3.929 --   122 C    2.450   117 C    1.331
   122   6 C    3.887 --   121 C    2.450   130 C    1.187   118 C    0.188
   123   6 C    3.919 --   124 C    2.373   127 C    1.328   126 C    0.189
   124   6 C    3.922 --   123 C    2.373   125 C    1.330   128 C    0.189
   125   6 C    3.929 --   126 C    2.452   124 C    1.330
   126   6 C    3.887 --   125 C    2.452   150 C    1.185   123 C    0.189
   127   6 C    3.935 --   128 C    2.457   123 C    1.328
   128   6 C    3.884 --   127 C    2.457    80 C    1.179   124 C    0.189
   129  27 Co   3.031 --   148 N    0.629   169 N    0.629   155 N    0.626
                           135 N    0.626
   130   6 C    3.928 --   131 C    1.265   168 C    1.256   122 C    1.187
   131   6 C    3.896 --   130 C    1.265   135 N    1.217   132 C    1.192
   132   6 C    3.959 --   133 C    1.629   131 C    1.192   170 H    0.973
   133   6 C    3.960 --   132 C    1.629   134 C    1.193   171 H    0.974
   134   6 C    3.905 --   136 C    1.268   135 N    1.222   133 C    1.193
   135   7 N    3.344 --   134 C    1.222   131 C    1.217   129 Co   0.626
   136   6 C    3.929 --   145 C    1.279   134 C    1.268   137 C    1.160
   137   6 C    3.957 --   138 C    2.623   136 C    1.160
   138   6 C    3.930 --   137 C    2.623   139 C    1.141
   139   6 C    3.987 --   144 C    1.351   140 C    1.351   138 C    1.141
   140   6 C    3.973 --   141 C    1.456   139 C    1.351   172 H    0.974
                           143 C    0.104
   141   6 C    3.972 --   140 C    1.456   142 N    1.408   173 H    0.972
                           144 C    0.104
   142   7 N    2.994 --   143 C    1.408   141 C    1.408
   143   6 C    3.972 --   144 C    1.456   142 N    1.408   174 H    0.972
                           140 C    0.104
   144   6 C    3.973 --   143 C    1.456   139 C    1.351   175 H    0.974
                           141 C    0.104
   145   6 C    3.905 --   136 C    1.279   148 N    1.212   146 C    1.190
   146   6 C    3.959 --   147 C    1.630   145 C    1.190   176 H    0.974
   147   6 C    3.960 --   146 C    1.630   149 C    1.194   177 H    0.973
   148   7 N    3.343 --   149 C    1.227   145 C    1.212   129 Co   0.629
   149   6 C    3.897 --   150 C    1.257   148 N    1.227   147 C    1.194
   150   6 C    3.928 --   151 C    1.266   149 C    1.257   126 C    1.185
   151   6 C    3.896 --   150 C    1.266   155 N    1.217   152 C    1.192
   152   6 C    3.959 --   153 C    1.629   151 C    1.192   178 H    0.973
   153   6 C    3.960 --   152 C    1.629   154 C    1.193   179 H    0.974
   154   6 C    3.905 --   156 C    1.267   155 N    1.223   153 C    1.193
   155   7 N    3.344 --   154 C    1.223   151 C    1.217   129 Co   0.626
   156   6 C    3.929 --   165 C    1.279   154 C    1.267   157 C    1.160
   157   6 C    3.957 --   158 C    2.623   156 C    1.160
   158   6 C    3.930 --   157 C    2.623   159 C    1.141
   159   6 C    3.987 --   164 C    1.351   160 C    1.350   158 C    1.141
   160   6 C    3.973 --   161 C    1.456   159 C    1.350   180 H    0.974
                           163 C    0.104
   161   6 C    3.972 --   160 C    1.456   162 N    1.408   181 H    0.972
                           164 C    0.104
   162   7 N    2.994 --   163 C    1.408   161 C    1.408
   163   6 C    3.972 --   164 C    1.456   162 N    1.408   182 H    0.972
                           160 C    0.104
   164   6 C    3.973 --   163 C    1.456   159 C    1.351   183 H    0.974
                           161 C    0.104
   165   6 C    3.905 --   156 C    1.279   169 N    1.212   166 C    1.190
   166   6 C    3.959 --   167 C    1.630   165 C    1.190   184 H    0.974
   167   6 C    3.960 --   166 C    1.630   168 C    1.194   185 H    0.973
   168   6 C    3.897 --   130 C    1.256   169 N    1.227   167 C    1.194
   169   7 N    3.343 --   168 C    1.227   165 C    1.212   129 Co   0.629
   170   1 H    1.001 --   132 C    0.973
   171   1 H    1.001 --   133 C    0.974
   172   1 H    1.002 --   140 C    0.974
   173   1 H    1.013 --   141 C    0.972
   174   1 H    1.013 --   143 C    0.972
   175   1 H    1.002 --   144 C    0.974
   176   1 H    1.002 --   146 C    0.974
   177   1 H    1.001 --   147 C    0.973
   178   1 H    1.001 --   152 C    0.973
   179   1 H    1.001 --   153 C    0.974
   180   1 H    1.002 --   160 C    0.974
   181   1 H    1.013 --   161 C    0.972
   182   1 H    1.013 --   163 C    0.972
   183   1 H    1.002 --   164 C    0.974
   184   1 H    1.002 --   166 C    0.974
   185   1 H    1.001 --   167 C    0.973
 ---------------------------------------------------------------------------

           -------------------------------------------------
          | TOTAL ENERGY             -335.201389838054 Eh   |
          | GRADIENT NORM               0.000701671691 Eh/α |
          | HOMO-LUMO GAP               0.004217461905 eV   |
           -------------------------------------------------

 * finished run on 2022/07/30 at 00:19:05.374
