   * xtb version 6.5.1 (b24c23e) compiled by 'conda@728c89f4b128' on 2022-07-12
          program call               : xtb Co_Ph_C8_3.xyz --gfn 1 --opt -T 48

   ID    Z sym.   atoms
    1   27 Co     1, 57, 129
    2    6 C      2-6, 8-11, 13-29, 32-37, 58-62, 64-67, 69-85, 88-93,
                  113-128, 130-134, 136-139, 141-157, 160-165
    3    7 N      7, 12, 30, 31, 63, 68, 86, 87, 135, 140, 158, 159
    4    1 H      38-56, 94-112, 166-183

          :  Hamiltonian                  GFN1-xTB          :
 * total energy  :  -314.3463720 Eh     change       -0.2224283E-09 Eh
 * total energy  :  -314.7526308 Eh     change       -0.4062588E+00 Eh
 * total energy  :  -314.8782254 Eh     change       -0.1255946E+00 Eh
 * total energy  :  -314.9367160 Eh     change       -0.5849053E-01 Eh
 * total energy  :  -314.9801785 Eh     change       -0.4346258E-01 Eh
 * total energy  :  -315.0299033 Eh     change       -0.4972473E-01 Eh
 * total energy  :  -315.0835023 Eh     change       -0.5359901E-01 Eh
 * total energy  :  -315.1354664 Eh     change       -0.5196417E-01 Eh
 * total energy  :  -315.1793971 Eh     change       -0.4393068E-01 Eh
 * total energy  :  -315.2041699 Eh     change       -0.2477277E-01 Eh
 * total energy  :  -315.3506136 Eh     change       -0.5656905E-05 Eh
 * total energy  :  -315.3506213 Eh     change       -0.7767732E-05 Eh
 * total energy  :  -315.3506314 Eh     change       -0.1007896E-04 Eh
 * total energy  :  -315.3506368 Eh     change       -0.5409851E-05 Eh
 * total energy  :  -315.3506493 Eh     change       -0.1244767E-04 Eh
 * total energy  :  -315.3506456 Eh     change        0.3688105E-05 Eh
 * total energy  :  -315.3506672 Eh     change       -0.2159993E-04 Eh
 * total energy  :  -315.3506727 Eh     change       -0.5482973E-05 Eh
 * total energy  :  -315.3506770 Eh     change       -0.4319903E-05 Eh
   *** GEOMETRY OPTIMIZATION CONVERGED AFTER 130 ITERATIONS ***

 final structure:
================
183
 xtb: 6.5.1 (b24c23e)
Co          23.79002931424785       -0.01225689556426        0.01335907245261
C           20.41678199054423       -0.04086154442654        0.07254701608915
C           21.07512716266477       -1.20286198395379       -0.26868886443429
C           20.41106517774202       -2.42606449659047       -0.60235177389558
C           21.36999542846532       -3.37761500634197       -0.68688907298103
C           22.61997159417919       -2.73394152396074       -0.40539358421109
N           22.43264469968830       -1.39089943419049       -0.19868027763236
C           23.81077745760191       -3.41384670263601       -0.18774203005288
C           24.98937909329608       -2.75260233235220        0.11933611923083
C           26.23989152254166       -3.41054541273092        0.35262752728866
C           27.18614584594141       -2.44335176715906        0.41272488289483
N           25.16689511455381       -1.38758138218851        0.07691576316441
C           26.51369739064338       -1.19962130179005        0.20701388564592
C           27.18391865039030        0.01073151219942        0.00701867020025
C           26.49572104057567        1.20990782283362       -0.19907781012106
C           27.14342683084989        2.45505910776685       -0.46474626216191
C           26.18113534193558        3.40822801033987       -0.42933466221093
C           24.95028895840905        2.74144761272486       -0.12749588538119
C           23.76298598523760        3.39427977033896        0.16615595435895
C           23.75002719198401        4.87417767011869        0.22572612365644
C           22.91915473975244        5.60935431101960       -0.62101803693186
C           22.91279519914834        6.99495497498441       -0.56658820839303
C           23.72933357249284        7.66216512583756        0.33646203462511
C           24.55561870059730        6.93769761710983        1.18485980158900
C           24.56945705585041        5.55225558077094        1.12942933225373
C           22.58589893993637        2.69803323387282        0.40968476317032
C           21.34498899604906        3.31611307335896        0.77484115694886
C           20.40119500861391        2.34568691038303        0.74723533274662
C           21.06826445294536        1.13544159933984        0.37496559568223
N           22.41630889346090        1.34937986825279        0.23017000741832
N           25.14836279759751        1.38085307281961       -0.05354877006090
C           23.81832993070453       -4.89500580048799       -0.27440813570581
C           23.60444993707522       -5.53100009641303       -1.49714972495675
C           23.61608267804133       -6.91567655089041       -1.57652498118414
C           23.83587208089837       -7.67849638296316       -0.43769111557496
C           24.04589745655657       -7.05148682601767        0.78290923323450
C           24.03964431671316       -5.66704890348036        0.86596741611683
H           19.33358167318930       -0.05225208785896        0.10207791940467
H           19.34526023532549       -2.52639831346077       -0.73287082171506
H           21.25333787995188       -4.42856121446614       -0.89625890997482
H           26.36865053399345       -4.47729081196567        0.43644440331053
H           28.24898821123845       -2.54711399303828        0.56068604743244
H           28.19990460635450        2.56868556891393       -0.64712314022978
H           26.28424645256984        4.46912083964984       -0.58911703336394
H           22.29023161349295        5.09025211165816       -1.33570723517313
H           22.26789919079904        7.55649153333166       -1.23342244293228
H           23.72186921750681        8.74541084879939        0.37891632568028
H           25.19262318924223        7.45398713627713        1.89445755413278
H           25.20605977182789        4.98733300685347        1.80127737903681
H           21.22560241040117        4.35977070078183        1.01680340658979
H           19.34466286261191        2.42365924176010        0.94896205536467
H           23.44368112942191       -4.93564599655797       -2.38900528143592
H           23.45397339572740       -7.40099829929389       -2.53258535046864
H           23.84346235868905       -8.76070725639755       -0.50132152348325
H           24.21498248526542       -7.64309686421697        1.67580840998212
H           24.19265844831762       -5.17805536076462        1.82156416378974
Co          60.84512056537572        0.04297250749107        0.02694949138226
C           64.21807884220499        0.06191711340290        0.10513390052415
C           63.56374274171569        1.23903012728030       -0.18866582933591
C           64.23183786653308        2.47395414886687       -0.46620499126169
C           63.27475247441390        3.42961747892928       -0.51867004392241
C           62.02192054021858        2.77692348865292       -0.27259423201676
N           62.20605233781995        1.42624849612785       -0.11995574479232
C           60.83120530581642        3.44989637456405       -0.03380819885905
C           59.65066487944235        2.77933689384187        0.24447935517574
C           58.40150326542265        3.42939634747779        0.50527660802740
C           57.45394632422404        2.46185861601776        0.52958025814076
N           59.47087443533658        1.41736365597607        0.14796801982954
C           58.12389730482262        1.22630461764358        0.27246006680208
C           57.45125313040412        0.02664093849481        0.02214462454786
C           58.13705297354328       -1.16257967972789       -0.24188912425838
C           57.48694889896525       -2.39217648451255       -0.56740006336239
C           58.44780852004503       -3.34736456276318       -0.58076134862943
C           59.67989653846289       -2.69830961097346       -0.24707105048691
C           60.86524029670255       -3.36683893692332        0.01724117287622
C           60.87597265905967       -4.84793632507011        0.00774382148333
C           61.70846224791686       -5.54405760975457       -0.86982819078561
C           61.71513176396701       -6.93070348715920       -0.87773380152336
C           60.89740247323376       -7.63800142429967       -0.00683199293662
C           60.06918513588326       -6.95260659753390        0.87160812383842
C           60.05486545953322       -5.56607406669081        0.87834041808035
C           62.04254605792283       -2.68544533228855        0.29885919408982
C           63.28029575981218       -3.32277024099568        0.64083089204663
C           64.22567467763312       -2.35382629999585        0.66619785949559
C           63.56280080197062       -1.12588800203660        0.34841107616458
N           62.21532055235001       -1.33011826488253        0.18534820556000
N           59.48419620215317       -1.34255447806923       -0.10645441835031
C           60.82875902147367        4.93331388982055       -0.06413954490377
C           61.05209474882606        5.61314244719296       -1.26141515689179
C           61.05077866679619        6.99980546712294       -1.28905349086456
C           60.83192652013839        7.72105031308107       -0.12325154938015
C           60.61166019372728        7.05032934072390        1.07202570282679
C           60.60754918603728        5.66368548741584        1.10332367445453
H           65.30107621581755        0.06997407037594        0.14207080676439
H           65.29869577844269        2.57794399412568       -0.58468547177997
H           63.39445181199853        4.48813358591168       -0.68337789569502
H           58.27460735264404        4.49220586445478        0.63140791465050
H           56.39153763315318        2.56122636491796        0.68356333232345
H           56.43014476902746       -2.49495623388739       -0.75431894780927
H           58.34299648843276       -4.39888438651441       -0.79288409635652
H           62.33872456267702       -4.99315654825757       -1.55907938678465
H           62.36141289801358       -7.46156663187223       -1.56793791711685
H           60.90564599869060       -8.72205582201338       -0.01261190320583
H           59.43133408355897       -7.50040967709313        1.55638086694071
H           59.41705104385999       -5.03203372168856        1.57387750012057
H           63.39658569803466       -4.37712430124224        0.83271762867628
H           65.28082896783015       -2.44335047008239        0.87029459382910
H           61.21293533255655        5.05025363823919       -2.17410022241575
H           61.22095483266655        7.51928630030902       -2.22555934272096
H           60.83357003410687        8.80491388197680       -0.14614606394495
H           60.44346544387295        7.60941547825355        1.98580730320825
H           60.44749957638779        5.14061290116186        2.03951721587980
C           28.58531836757277        0.02026291048141        0.00203140028472
C           29.81099591089726        0.02919211384683       -0.00338333719385
C           31.15174715820534        0.03552801174712       -0.00726885345006
C           32.38388637507379        0.04119566069815       -0.00549705438002
C           33.71965928951787        0.04399729240122       -0.00478776895536
C           34.95189952318190        0.04458018684248       -0.00377605774005
C           36.29224521058770        0.03832560649632       -0.00515534649937
C           37.51831444253012        0.03961384110261        0.00038447399775
C           47.11693888530388        0.00910378779348        0.01734866412419
C           48.34299680165671        0.00430822633108        0.01660904671768
C           49.68330525654270        0.00194119625092        0.01560361690667
C           50.91554488659587       -0.00192357540706        0.02079426089410
C           52.25131242892284        0.00021147057169        0.01929847367517
C           53.48343705374028        0.00325093873901        0.02096328530505
C           54.82418796401686        0.00912092406142        0.02180159825043
C           56.04983342356186        0.01796162604841        0.02147471623799
Co          42.31756758050404        0.02530055215551        0.00727171780123
C           38.91835528420290        0.03623582075925        0.01157901770359
C           39.59475754436794       -1.15995268021923        0.27402389442209
C           38.93460960017578       -2.38959264446468        0.57701064129488
C           39.88850119234370       -3.35260570151269        0.57364466314880
C           41.12512316420774       -2.70586191231308        0.25547725001246
N           40.94075750363140       -1.34740053782748        0.13894639993819
C           42.30668259612423       -3.37768422116375       -0.02360523800222
C           43.49172691993563       -2.70539849691978       -0.28782436605502
C           44.72054749123643       -3.34878215683492       -0.64032735927751
C           45.67946676372146       -2.39059449392639       -0.62954866431639
N           43.68608070039149       -1.35343820968712       -0.12703421191763
C           45.03050562660749       -1.16776766927500       -0.27910126721758
C           45.71685847052092        0.01404875668779        0.01998831097892
C           45.03961045767309        1.19838000516060        0.32971823794523
C           45.69878304614869        2.41424681482616        0.68576603222270
C           44.74486862731091        3.37665107718485        0.71953611872322
C           43.50919560613639        2.74381565706443        0.37101230907324
C           42.32837781908797        3.42681291797433        0.11665331724132
C           42.33316315972592        4.90755123585658        0.15669354155195
C           41.52257459471900        5.59206893609507        1.06315516595139
C           41.53404525229068        6.97809525373762        1.10421932214142
C           42.34557846778598        7.69562905273136        0.23599241746575
C           43.15014574568591        7.02149028262657       -0.67261071471240
C           43.14898999270413        5.63537725801545       -0.71059233287338
C           41.14407729593434        2.76608007094396       -0.17853002310753
C           39.91624085692688        3.42330877145216       -0.50822673880301
C           38.95747573564869        2.46537666227499       -0.53998998168385
C           39.60543591128853        1.22926683080370       -0.23737542803811
N           40.94944612881469        1.40859878276730       -0.07425469635956
N           43.69393156201465        1.39131841960413        0.19905424528547
C           42.30299937428909       -4.85879783626350       -0.04677541581699
C           41.49325710985886       -5.54941946045510       -0.94941572799064
C           41.49613852511195       -6.93586573073400       -0.97320072010015
C           42.29854852213893       -7.64757928604172       -0.09173956742956
C           43.10327962595338       -6.96719741240861        0.81204502648513
C           43.11072085023523       -5.58068219367157        0.83285854135051
H           37.87644211392598       -2.48806446317627        0.75824606273105
H           39.77540278606502       -4.40763941260978        0.76273223639830
H           44.82517044035680       -4.39812920933839       -0.86295354243902
H           46.73440619505372       -2.48880280526620       -0.82882333518959
H           46.75646989590123        2.50504371522395        0.87373126002630
H           44.85757304167670        4.42291182717891        0.95251436740271
H           40.89615731406357        5.03214740224950        1.74859074438588
H           40.90601232527307        7.50024279012048        1.81748384448570
H           42.35107272810004        8.77924365321622        0.26744517796886
H           43.78311994075916        7.57767588341036       -1.35510654585115
H           43.76995827114778        5.10980617481434       -1.42746891146833
H           39.81213515587471        4.48096081861988       -0.68771329568019
H           37.90311166313097        2.57159903682026       -0.73830268569353
H           40.87444095133031       -4.99410934570629       -1.64544385051598
H           40.86934266679432       -7.46281120939758       -1.68403882362396
H           42.29751255814743       -8.73151294871860       -0.10987601382667
H           43.72937030147133       -7.51886066665762        1.50452274028004
H           43.73189985566373       -5.05003192426468        1.54581771119098

          :  Hamiltonian                  GFN1-xTB          :
         :: total energy            -315.350676992969 Eh    ::
         :: gradient norm              0.000941221946 Eh/a0 ::
         :: HOMO-LUMO gap              0.001527202608 eV    ::
         :: SCC energy              -320.846907835236 Eh    ::
         :: repulsion energy           5.658718662709 Eh    ::

    * Orbital Energies and Occupations

         #    Occupation            Energy/Eh            Energy/eV
      -------------------------------------------------------------
         1        2.0000           -0.7740193             -21.0621
       ...           ...                  ...                  ...
       284        2.0000           -0.3951293             -10.7520
       285        2.0000           -0.3950208             -10.7491
       286        2.0000           -0.3949672             -10.7476
       287        1.9999           -0.3922525             -10.6737
       288        1.9998           -0.3920242             -10.6675
       289        1.9998           -0.3916755             -10.6580
       290        1.9998           -0.3916739             -10.6580
       291        1.9998           -0.3916268             -10.6567
       292        1.9998           -0.3916263             -10.6567
       293        1.9986           -0.3899120             -10.6100
       294        1.6463           -0.3844406             -10.4612
       295        1.1278           -0.3831411             -10.4258
       296        1.1277           -0.3831408             -10.4258 (HOMO)
       297        1.1008           -0.3830847             -10.4243 (LUMO)
       298                         -0.3454631              -9.4005
       299                         -0.3357087              -9.1351
       300                         -0.3303951              -8.9905
       301                         -0.3298705              -8.9762
       302                         -0.3275551              -8.9132
       303                         -0.3275532              -8.9132
       304                         -0.3114947              -8.4762
       305                         -0.3058835              -8.3235
       306                         -0.3057901              -8.3210
       307                         -0.2993660              -8.1462
       ...                                ...                  ...
       635                          1.5991137              43.5141
      -------------------------------------------------------------
                  HL-Gap            0.0000561 Eh            0.0015 eV

Wiberg/Mayer (AO) data.
largest (>0.10) Wiberg bond orders for each atom

     #   Z sym  total        # sym  WBO       # sym  WBO       # sym  WBO
 ---------------------------------------------------------------------------
     1  27 Co   3.027 --     7 N    0.637    30 N    0.637    12 N    0.632
                            31 N    0.632
     2   6 C    3.927 --    29 C    1.365     3 C    1.365    38 H    0.970
     3   6 C    3.925 --     2 C    1.365     7 N    1.202     4 C    1.174
     4   6 C    3.960 --     5 C    1.650     3 C    1.174    39 H    0.975
     5   6 C    3.963 --     4 C    1.650     6 C    1.176    40 H    0.973
     6   6 C    3.919 --     8 C    1.320     7 N    1.212     5 C    1.176
     7   7 N    3.346 --     6 C    1.212     3 C    1.202     1 Co   0.637
     8   6 C    3.931 --     9 C    1.337     6 C    1.320    32 C    1.020
     9   6 C    3.917 --     8 C    1.337    12 N    1.191    10 C    1.181
    10   6 C    3.958 --    11 C    1.639     9 C    1.181    41 H    0.973
    11   6 C    3.962 --    10 C    1.639    13 C    1.189    42 H    0.973
    12   7 N    3.347 --    13 C    1.233     9 C    1.191     1 Co   0.632
    13   6 C    3.902 --    14 C    1.256    12 N    1.233    11 C    1.189
    14   6 C    3.932 --    13 C    1.256    15 C    1.255   113 C    1.198
    15   6 C    3.903 --    14 C    1.255    31 N    1.233    16 C    1.190
    16   6 C    3.961 --    17 C    1.636    15 C    1.190    43 H    0.974
    17   6 C    3.958 --    16 C    1.636    18 C    1.181    44 H    0.973
    18   6 C    3.917 --    19 C    1.334    31 N    1.191    17 C    1.181
    19   6 C    3.932 --    18 C    1.334    26 C    1.316    20 C    1.030
    20   6 C    3.988 --    21 C    1.394    25 C    1.394    19 C    1.030
                            23 C    0.107
    21   6 C    3.987 --    22 C    1.448    20 C    1.394    45 H    0.973
                            24 C    0.109
    22   6 C    3.995 --    21 C    1.448    23 C    1.437    46 H    0.973
                            25 C    0.109
    23   6 C    3.989 --    22 C    1.437    24 C    1.437    47 H    0.974
                            20 C    0.107
    24   6 C    3.995 --    25 C    1.448    23 C    1.437    48 H    0.973
                            21 C    0.109
    25   6 C    3.988 --    24 C    1.448    20 C    1.394    49 H    0.973
                            22 C    0.109
    26   6 C    3.920 --    19 C    1.316    30 N    1.214    27 C    1.177
    27   6 C    3.963 --    28 C    1.648    26 C    1.177    50 H    0.973
    28   6 C    3.959 --    27 C    1.648    29 C    1.175    51 H    0.975
    29   6 C    3.925 --     2 C    1.365    30 N    1.200    28 C    1.175
    30   7 N    3.346 --    26 C    1.214    29 C    1.200     1 Co   0.637
    31   7 N    3.346 --    15 C    1.233    18 C    1.191     1 Co   0.632
    32   6 C    3.988 --    33 C    1.398    37 C    1.398     8 C    1.020
                            35 C    0.109
    33   6 C    3.988 --    34 C    1.446    32 C    1.398    52 H    0.973
                            36 C    0.110
    34   6 C    3.995 --    33 C    1.446    35 C    1.438    53 H    0.973
                            37 C    0.110
    35   6 C    3.991 --    34 C    1.438    36 C    1.438    54 H    0.974
                            32 C    0.109
    36   6 C    3.995 --    37 C    1.446    35 C    1.438    55 H    0.973
                            33 C    0.110
    37   6 C    3.989 --    36 C    1.446    32 C    1.398    56 H    0.973
                            34 C    0.110
    38   1 H    1.000 --     2 C    0.970
    39   1 H    0.998 --     4 C    0.975
    40   1 H    1.004 --     5 C    0.973
    41   1 H    1.004 --    10 C    0.973
    42   1 H    1.001 --    11 C    0.973
    43   1 H    1.001 --    16 C    0.974
    44   1 H    1.004 --    17 C    0.973
    45   1 H    1.005 --    21 C    0.973
    46   1 H    1.003 --    22 C    0.973
    47   1 H    1.003 --    23 C    0.974
    48   1 H    1.003 --    24 C    0.973
    49   1 H    1.005 --    25 C    0.973
    50   1 H    1.004 --    27 C    0.973
    51   1 H    0.998 --    28 C    0.975
    52   1 H    1.004 --    33 C    0.973
    53   1 H    1.003 --    34 C    0.973
    54   1 H    1.003 --    35 C    0.974
    55   1 H    1.003 --    36 C    0.973
    56   1 H    1.004 --    37 C    0.973
    57  27 Co   3.027 --    63 N    0.637    86 N    0.637    68 N    0.632
                            87 N    0.632
    58   6 C    3.927 --    85 C    1.365    59 C    1.365    94 H    0.970
    59   6 C    3.925 --    58 C    1.365    63 N    1.202    60 C    1.174
    60   6 C    3.960 --    61 C    1.650    59 C    1.174    95 H    0.975
    61   6 C    3.963 --    60 C    1.650    62 C    1.176    96 H    0.973
    62   6 C    3.919 --    64 C    1.320    63 N    1.212    61 C    1.176
    63   7 N    3.346 --    62 C    1.212    59 C    1.202    57 Co   0.637
    64   6 C    3.931 --    65 C    1.337    62 C    1.320    88 C    1.020
    65   6 C    3.917 --    64 C    1.337    68 N    1.191    66 C    1.181
    66   6 C    3.958 --    67 C    1.639    65 C    1.181    97 H    0.973
    67   6 C    3.962 --    66 C    1.639    69 C    1.189    98 H    0.973
    68   7 N    3.347 --    69 C    1.233    65 C    1.191    57 Co   0.632
    69   6 C    3.902 --    70 C    1.256    68 N    1.233    67 C    1.189
    70   6 C    3.932 --    69 C    1.256    71 C    1.255   128 C    1.198
    71   6 C    3.903 --    70 C    1.255    87 N    1.234    72 C    1.191
    72   6 C    3.961 --    73 C    1.636    71 C    1.191    99 H    0.974
    73   6 C    3.958 --    72 C    1.636    74 C    1.181   100 H    0.973
    74   6 C    3.917 --    75 C    1.334    87 N    1.191    73 C    1.181
    75   6 C    3.932 --    74 C    1.334    82 C    1.315    76 C    1.029
    76   6 C    3.988 --    77 C    1.394    81 C    1.394    75 C    1.029
                            79 C    0.107
    77   6 C    3.987 --    78 C    1.448    76 C    1.394   101 H    0.973
                            80 C    0.109
    78   6 C    3.995 --    77 C    1.448    79 C    1.437   102 H    0.973
                            81 C    0.109
    79   6 C    3.990 --    80 C    1.437    78 C    1.437   103 H    0.974
                            76 C    0.107
    80   6 C    3.995 --    81 C    1.448    79 C    1.437   104 H    0.973
                            77 C    0.109
    81   6 C    3.988 --    80 C    1.448    76 C    1.394   105 H    0.973
                            78 C    0.109
    82   6 C    3.920 --    75 C    1.315    86 N    1.214    83 C    1.177
    83   6 C    3.963 --    84 C    1.647    82 C    1.177   106 H    0.973
    84   6 C    3.959 --    83 C    1.647    85 C    1.175   107 H    0.975
    85   6 C    3.925 --    58 C    1.365    86 N    1.200    84 C    1.175
    86   7 N    3.346 --    82 C    1.214    85 C    1.200    57 Co   0.637
    87   7 N    3.346 --    71 C    1.234    74 C    1.191    57 Co   0.632
    88   6 C    3.988 --    93 C    1.398    89 C    1.398    64 C    1.020
                            91 C    0.109
    89   6 C    3.988 --    90 C    1.446    88 C    1.398   108 H    0.973
                            92 C    0.110
    90   6 C    3.995 --    89 C    1.446    91 C    1.438   109 H    0.973
                            93 C    0.110
    91   6 C    3.991 --    92 C    1.438    90 C    1.438   110 H    0.974
                            88 C    0.109
    92   6 C    3.995 --    93 C    1.446    91 C    1.438   111 H    0.973
                            89 C    0.110
    93   6 C    3.989 --    92 C    1.446    88 C    1.398   112 H    0.973
                            90 C    0.110
    94   1 H    1.000 --    58 C    0.970
    95   1 H    0.998 --    60 C    0.975
    96   1 H    1.005 --    61 C    0.973
    97   1 H    1.004 --    66 C    0.973
    98   1 H    1.001 --    67 C    0.973
    99   1 H    1.001 --    72 C    0.974
   100   1 H    1.004 --    73 C    0.973
   101   1 H    1.005 --    77 C    0.973
   102   1 H    1.003 --    78 C    0.973
   103   1 H    1.003 --    79 C    0.974
   104   1 H    1.003 --    80 C    0.973
   105   1 H    1.005 --    81 C    0.973
   106   1 H    1.004 --    83 C    0.973
   107   1 H    0.998 --    84 C    0.975
   108   1 H    1.004 --    89 C    0.973
   109   1 H    1.003 --    90 C    0.973
   110   1 H    1.003 --    91 C    0.974
   111   1 H    1.003 --    92 C    0.973
   112   1 H    1.004 --    93 C    0.973
   113   6 C    3.868 --   114 C    2.424    14 C    1.198   116 C    0.184
   114   6 C    3.930 --   113 C    2.424   115 C    1.355
   115   6 C    3.884 --   116 C    2.317   114 C    1.355   118 C    0.179
   116   6 C    3.920 --   115 C    2.317   117 C    1.382   113 C    0.184
   117   6 C    3.917 --   118 C    2.315   116 C    1.382   120 C    0.184
   118   6 C    3.886 --   117 C    2.315   119 C    1.358   115 C    0.179
   119   6 C    3.925 --   120 C    2.419   118 C    1.358
   120   6 C    3.869 --   119 C    2.419   130 C    1.204   117 C    0.184
   121   6 C    3.869 --   122 C    2.419   142 C    1.204   124 C    0.184
   122   6 C    3.925 --   121 C    2.419   123 C    1.358
   123   6 C    3.886 --   124 C    2.315   122 C    1.358   126 C    0.179
   124   6 C    3.917 --   123 C    2.315   125 C    1.382   121 C    0.184
   125   6 C    3.920 --   126 C    2.317   124 C    1.382   128 C    0.184
   126   6 C    3.884 --   125 C    2.317   127 C    1.355   123 C    0.179
   127   6 C    3.930 --   128 C    2.424   126 C    1.355
   128   6 C    3.868 --   127 C    2.424    70 C    1.198   125 C    0.184
   129  27 Co   3.003 --   159 N    0.626   135 N    0.626   158 N    0.623
                           140 N    0.623
   130   6 C    3.917 --   131 C    1.251   157 C    1.251   120 C    1.204
   131   6 C    3.903 --   130 C    1.251   135 N    1.236   132 C    1.193
   132   6 C    3.960 --   133 C    1.633   131 C    1.193   166 H    0.974
   133   6 C    3.959 --   132 C    1.633   134 C    1.184   167 H    0.973
   134   6 C    3.915 --   136 C    1.325   135 N    1.196   133 C    1.184
   135   7 N    3.336 --   131 C    1.236   134 C    1.196   129 Co   0.626
   136   6 C    3.923 --   134 C    1.325   137 C    1.323   160 C    1.028
   137   6 C    3.914 --   136 C    1.323   140 N    1.197   138 C    1.185
   138   6 C    3.959 --   139 C    1.632   137 C    1.185   168 H    0.973
   139   6 C    3.960 --   138 C    1.632   141 C    1.193   169 H    0.974
   140   7 N    3.337 --   141 C    1.235   137 C    1.197   129 Co   0.623
   141   6 C    3.903 --   142 C    1.250   140 N    1.235   139 C    1.193
   142   6 C    3.917 --   143 C    1.251   141 C    1.250   121 C    1.204
   143   6 C    3.903 --   142 C    1.251   159 N    1.236   144 C    1.193
   144   6 C    3.960 --   145 C    1.633   143 C    1.193   170 H    0.974
   145   6 C    3.959 --   144 C    1.633   146 C    1.184   171 H    0.973
   146   6 C    3.915 --   147 C    1.325   159 N    1.196   145 C    1.184
   147   6 C    3.923 --   146 C    1.325   154 C    1.323   148 C    1.029
   148   6 C    3.988 --   149 C    1.394   153 C    1.394   147 C    1.029
                           151 C    0.107
   149   6 C    3.987 --   150 C    1.448   148 C    1.394   172 H    0.973
                           152 C    0.110
   150   6 C    3.995 --   149 C    1.448   151 C    1.438   173 H    0.973
                           153 C    0.110
   151   6 C    3.990 --   150 C    1.438   152 C    1.437   174 H    0.974
                           148 C    0.107
   152   6 C    3.995 --   153 C    1.448   151 C    1.437   175 H    0.973
                           149 C    0.110
   153   6 C    3.987 --   152 C    1.448   148 C    1.394   176 H    0.973
                           150 C    0.110
   154   6 C    3.914 --   147 C    1.323   158 N    1.197   155 C    1.185
   155   6 C    3.959 --   156 C    1.632   154 C    1.185   177 H    0.973
   156   6 C    3.960 --   155 C    1.632   157 C    1.193   178 H    0.974
   157   6 C    3.903 --   130 C    1.251   158 N    1.235   156 C    1.193
   158   7 N    3.337 --   157 C    1.235   154 C    1.197   129 Co   0.623
   159   7 N    3.336 --   143 C    1.236   146 C    1.196   129 Co   0.626
   160   6 C    3.988 --   165 C    1.394   161 C    1.394   136 C    1.028
                           163 C    0.107
   161   6 C    3.987 --   162 C    1.448   160 C    1.394   179 H    0.973
                           164 C    0.110
   162   6 C    3.995 --   161 C    1.448   163 C    1.437   180 H    0.973
                           165 C    0.110
   163   6 C    3.990 --   164 C    1.438   162 C    1.437   181 H    0.974
                           160 C    0.107
   164   6 C    3.995 --   165 C    1.448   163 C    1.438   182 H    0.973
                           161 C    0.110
   165   6 C    3.987 --   164 C    1.448   160 C    1.394   183 H    0.973
                           162 C    0.110
   166   1 H    1.001 --   132 C    0.974
   167   1 H    1.004 --   133 C    0.973
   168   1 H    1.004 --   138 C    0.973
   169   1 H    1.001 --   139 C    0.974
   170   1 H    1.001 --   144 C    0.974
   171   1 H    1.004 --   145 C    0.973
   172   1 H    1.005 --   149 C    0.973
   173   1 H    1.002 --   150 C    0.973
   174   1 H    1.003 --   151 C    0.974
   175   1 H    1.002 --   152 C    0.973
   176   1 H    1.005 --   153 C    0.973
   177   1 H    1.004 --   155 C    0.973
   178   1 H    1.001 --   156 C    0.974
   179   1 H    1.005 --   161 C    0.973
   180   1 H    1.002 --   162 C    0.973
   181   1 H    1.003 --   163 C    0.974
   182   1 H    1.002 --   164 C    0.973
   183   1 H    1.005 --   165 C    0.973
 ---------------------------------------------------------------------------

           -------------------------------------------------
          | TOTAL ENERGY             -315.350676992969 Eh   |
          | GRADIENT NORM               0.000941221946 Eh/α |
          | HOMO-LUMO GAP               0.001527202608 eV   |
           -------------------------------------------------

 * finished run on 2022/07/30 at 02:15:31.240
