   * xtb version 6.5.1 (b24c23e) compiled by 'conda@728c89f4b128' on 2022-07-12
          program call               : xtb H_C10_4.xyz --gfn 1 --opt -T 48

   ID    Z sym.   atoms
    1    6 C      1-5, 7-10, 12-17, 19-23, 38-42, 44-47, 49-54, 56-60,
                  75-109, 111-114, 116-121, 123-127, 141-145, 147-150,
                  152-157, 159-163
    2    7 N      6, 11, 18, 24, 43, 48, 55, 61, 110, 115, 122, 128, 146,
                  151, 158, 164
    3    1 H      25-37, 62-74, 129-140, 165-176

          :  Hamiltonian                  GFN1-xTB          :
 * total energy  :  -301.3431658 Eh     change       -0.4744834E-08 Eh
 * total energy  :  -308.0862703 Eh     change       -0.6743105E+01 Eh
 * total energy  :  -308.6364857 Eh     change       -0.5502154E+00 Eh
 * total energy  :  -308.9532447 Eh     change       -0.3167590E+00 Eh
 * total energy  :  -309.0762034 Eh     change       -0.1229587E+00 Eh
 * total energy  :  -309.1184496 Eh     change       -0.4224624E-01 Eh
 * total energy  :  -309.1400750 Eh     change       -0.2162542E-01 Eh
 * total energy  :  -309.1495112 Eh     change       -0.9436128E-02 Eh
 * total energy  :  -309.1526971 Eh     change       -0.3185905E-02 Eh
 * total energy  :  -309.1534372 Eh     change       -0.7401158E-03 Eh
 * total energy  :  -309.1982310 Eh     change        0.7292184E-04 Eh
 * total energy  :  -309.1983082 Eh     change       -0.7721954E-04 Eh
 * total energy  :  -309.1982295 Eh     change        0.7871070E-04 Eh
 * total energy  :  -309.1983082 Eh     change       -0.7868893E-04 Eh
 * total energy  :  -309.1982595 Eh     change        0.4866302E-04 Eh
 * total energy  :  -309.1983085 Eh     change       -0.4905300E-04 Eh
 * total energy  :  -309.1982861 Eh     change        0.2242583E-04 Eh
 * total energy  :  -309.1983182 Eh     change       -0.3206259E-04 Eh
 * total energy  :  -309.1983200 Eh     change       -0.1850721E-05 Eh
   *** GEOMETRY OPTIMIZATION CONVERGED AFTER 212 ITERATIONS ***

 final structure:
================
176
 xtb: 6.5.1 (b24c23e)
C            7.53701881969445       -0.40399977160619       -0.17592969334839
C            8.36120422568653       -1.51982271360916       -0.19813747728608
C            7.94682282351758       -2.88205745992364       -0.30476196103686
C            9.06223245761371       -3.66682198642342       -0.29551091935214
C           10.20114292060506       -2.81406842734633       -0.18281673284639
N            9.72560570312144       -1.53104810145465       -0.12526023817486
C           11.53357028266612       -3.19321474615710       -0.14837081445662
C           12.63097930328016       -2.33679801175363       -0.05338048137049
C           14.01724336114556       -2.71514294622052       -0.06570006726031
C           14.66328294614357       -1.53896008726545        0.03083807230860
N           12.53578034024301       -0.98413592461285        0.05139878429507
C           13.78299951364297       -0.40995832418865        0.11152862507803
C           14.05344918100036        0.90486717596128        0.23191670817647
C           13.29271044183538        2.03913616711338        0.29935101316316
C           13.70074731941944        3.39633742472498        0.45182476166870
C           12.58238682209740        4.18306625408052        0.44943229014707
C           11.44862088509016        3.33378433013346        0.29794167341927
N           11.91698154332458        2.06103785400384        0.21025471933901
C           10.09853111156895        3.67198389978527        0.24567087598244
C            9.04845236242670        2.77354418551349        0.11632620091936
C            7.64801267105366        3.16356258835134        0.06439792782247
C            6.93891182705055        2.02364506131937       -0.05397213730209
C            7.90618909945179        0.93500465229378       -0.07278607424797
N            9.16130452750349        1.42246188737056        0.02866075761466
H            6.47331541602654       -0.60855510847453       -0.24678442637704
H            6.91920740202029       -3.20101198361978       -0.37917627376704
H            9.11108890181135       -4.74224375573940       -0.36086767572520
H           10.30913857357980       -0.70612877768519       -0.04367923645005
H           11.73717395795813       -4.25637719372853       -0.21443645388269
H           14.41950963364106       -3.71075462864559       -0.13943119235022
H           16.07867297920913       -1.36823987237823        0.04556660056251
H           14.72713376265041        3.71225172794444        0.54848274012394
H           12.53382033188849        5.25629496224191        0.54471675510545
H           11.32376120123594        1.24558612477132        0.10406753468559
H            9.85547886562381        4.72649702991939        0.31752087911166
H            7.29192394269122        4.18075855845657        0.11399747489640
H            5.86970366180421        1.89605812779030       -0.12265881535616
C           80.92495127369263        0.38629998663198       -0.16313102134176
C           80.08730772205186        1.47438824751972       -0.36097732172946
C           80.48678598347287        2.81612018445679       -0.64176931992557
C           79.36142619686829        3.57613549282041       -0.76832207876329
C           78.23096876155178        2.72781233072005       -0.56966458122909
N           78.72127078513022        1.47241442036321       -0.32669751110068
C           76.89357876958660        3.08799638799710       -0.61503161689748
C           75.80404211314791        2.23788895241558       -0.42327577104017
C           74.41428192807136        2.59680773956012       -0.48744307862380
C           73.77911206803128        1.43664865572408       -0.24157632359601
N           75.91156249683962        0.91050531529553       -0.14668304668226
C           74.66984546080862        0.33532498753060       -0.01688746863594
C           74.41581474578528       -0.95817933622184        0.26145496119384
C           75.18799836420082       -2.06493301981314        0.48199699727473
C           74.79271152413560       -3.40103756452573        0.78206750906583
C           75.92072398688026       -4.16298692696405        0.91157171491764
C           77.04781116378521       -3.31877792886566        0.69613365564623
N           76.56616416217837       -2.07360018556343        0.44176796467769
C           78.40303171282270       -3.63865524748552        0.72645423303978
C           79.44540635746799       -2.74742036361685        0.51277771137253
C           80.85149184765930       -3.11811150840534        0.55217689944045
C           81.54964115028841       -1.99254747756954        0.30327728462003
C           80.56992214675971       -0.93206037316113        0.11206542083685
N           79.31849853395870       -1.42174815689721        0.24378923279469
H           81.98754194784576        0.59701084539091       -0.23248185483882
H           81.51185830141603        3.13915693710573       -0.73203014606798
H           79.30046453727658        4.63181491493032       -0.98053906418865
H           78.14681831682095        0.65646477939106       -0.14808082780232
H           76.67928250151337        4.13019382290571       -0.82493387193953
H           74.00223839859396        3.57070161899552       -0.68818369482382
H           72.34536200574377        1.27108638876477       -0.20279771513777
H           73.76782624057591       -3.72075172463488        0.88205350117636
H           75.97999106675579       -5.21611578125946        1.13663638227022
H           77.15173341616817       -1.26740856906601        0.25381460156760
H           78.65679117020261       -4.67180236167485        0.93730936613386
H           81.21853106761179       -4.11382796995502        0.74660129330057
H           82.61875262834526       -1.85788101887991        0.24798550130024
C           17.21925235987358       -1.23580404125453        0.03747904159516
C           18.42102973766228       -1.07575318764071       -0.00165050361321
C           19.76586888247585       -0.90930236253108       -0.03044226889400
C           20.98351386484018       -0.76170238405617       -0.05196947552203
C           22.31581399213136       -0.61343128562431       -0.07453660983652
C           23.54029120510862       -0.48685271956970       -0.08781403476708
C           24.87298265638278       -0.37095839797286       -0.10024022177257
C           26.10018349630855       -0.27751380929304       -0.10209091003463
C           27.44048861444041       -0.20140617097938       -0.10052602333427
C           28.66400637123193       -0.14815421324963       -0.09113308429551
C           38.45377204150792       -0.00707799307545        0.02983055770451
C           39.67939179366660       -0.00871685549082        0.03748147852219
C           41.02019312887774       -0.01185153186824        0.04006787680243
C           42.25246386663051       -0.02517504768622        0.04176482208847
C           43.58708148350264       -0.03693382093850        0.03901238509792
C           44.82096184119703       -0.05152963855304        0.03509861057575
C           46.15557272108408       -0.05972194359984        0.03089977624064
C           47.38787675092752       -0.06359365666063        0.02567654011839
C           48.72857802905012       -0.05208736299808        0.01722391991152
C           49.95403998307525       -0.03711379233109        0.00743523677911
C           59.74214054410481        0.26436508602209       -0.05090043077835
C           60.96547209394787        0.32354312057684       -0.06359223642493
C           62.30581271094450        0.40040252483420       -0.07399758275670
C           63.53381776652003        0.48344786864594       -0.08406460251599
C           64.86790405347210        0.58313216994383       -0.09858489794472
C           66.09467558657089        0.68421144788438       -0.11404807393603
C           67.43019351831258        0.80213171478583       -0.12895551589467
C           68.65164601787360        0.91552969066516       -0.14674104925764
C           70.00092563576024        1.04380404356197       -0.16618580028471
C           71.20842140195396        1.15874123221162       -0.18094980862839
C           30.06687232945941       -0.11580937448419       -0.07635143072603
C           30.68626721941565        1.14828099755027       -0.10023199934493
C           30.05220361676297        2.41835204928250       -0.14168773072514
C           31.03045040966830        3.37513768704554       -0.15031335560050
C           32.28943776996353        2.71461668953342       -0.11442853375032
N           32.02970532511546        1.37187221375830       -0.08548210042700
C           33.54556719944084        3.31140311113179       -0.10942781989223
C           34.78490215861248        2.69056863199446       -0.07597099914609
C           36.04021055786351        3.42106239955068       -0.07656186608910
C           37.02061847958950        2.49481185311405       -0.04192614775377
N           35.02194773347993        1.35090936743389       -0.04022726504895
C           36.36010394943364        1.20264067978413       -0.01931623233596
C           37.05165260438261       -0.02620834843095        0.01919114873559
C           36.43055166599336       -1.29045903793862        0.04565477746808
C           37.06479407394342       -2.56031494127170        0.08834987673841
C           36.08672373502981       -3.51723557064689        0.10241360499892
C           34.82796363379741       -2.85679351744618        0.06787730269434
N           35.08737574762637       -1.51393952800305        0.03482034067045
C           33.57212275145658       -3.45377959765518        0.06611680419839
C           32.33325871587316       -2.83254212894721        0.03013663823860
C           31.07802839250650       -3.56290079916399        0.03065648925691
C           30.09801885343563       -2.63669220095052       -0.00961929063764
C           30.75874657956405       -1.34440138205096       -0.03433334394165
N           32.09693101986001       -1.49299852261756       -0.01012495852242
H           28.98469300804422        2.56841794794784       -0.16199146120093
H           30.90199553551816        4.44539575773681       -0.17885588594083
H           32.73305738836594        0.64107135432704       -0.05604479690164
H           33.54550657431342        4.39665104911054       -0.13573372491579
H           36.12571063586898        4.49609909197759       -0.10098003547778
H           38.08912562551826        2.64045254038648       -0.03129746426772
H           38.13223888217951       -2.71082952743900        0.10617971686516
H           36.21528511435903       -4.58738859064375        0.13355558313310
H           34.38384313569617       -0.78329221146278        0.00561065654754
H           33.57207132340859       -4.53890069135887        0.09593643112597
H           30.99231434430969       -4.63781728809366        0.05853799373571
H           29.02972209287278       -2.78314552557150       -0.02225009682183
C           51.35569507385824        0.00462192875705       -0.00022739976515
C           51.95546314642485        1.27946192519522       -0.00006439583057
C           51.29982275323314        2.53910813525174        0.00772133482294
C           52.26164839969358        3.51244369503728        0.00460759275937
C           53.53152716644333        2.87272730769892       -0.00517900222521
N           53.29477617603126        1.52525445835206       -0.00768867608590
C           54.77710586524729        3.49084715756967       -0.01087817792059
C           56.02676228762947        2.89051018865127       -0.02021409311567
C           57.26934235964062        3.64227120998741       -0.02527168715384
C           58.26540199984620        2.73246616602841       -0.03413363774264
N           56.28634448809056        1.55474083205669       -0.02611852341395
C           57.62709934567525        1.42877196817842       -0.03453483886490
C           58.33974679043520        0.21159638486008       -0.04308276349016
C           57.74137591043752       -1.06297665801702       -0.04380949072796
C           58.39679405091956       -2.32284954317182       -0.05234596396344
C           57.43474241895132       -3.29593014785273       -0.05005813464052
C           56.16465334000755       -2.65611653945919       -0.03993783998009
N           56.40174827942774       -1.30883641282080       -0.03647432250425
C           54.91880005626548       -3.27410428723731       -0.03460292887088
C           53.66878046887609       -2.67426282375770       -0.02457465385168
C           52.42612556406173       -3.42607711998241       -0.01957402463755
C           51.42984270269688       -2.51630016383355       -0.00978753308006
C           52.06808794666004       -1.21279873012641       -0.00892638888413
N           53.40867993883674       -1.33844182659157       -0.01783612845412
H           50.22991410767902        2.67200304887015        0.01478388356819
H           52.11491858996396        4.58070638504459        0.00866620401364
H           54.01053117582513        0.80601302465567       -0.01433762342680
H           54.75841906514871        4.57622061798500       -0.00747792983399
H           57.33636587825470        4.71887517227434       -0.02223619546269
H           59.33117275985732        2.89678168533388       -0.03998396814237
H           59.46677683433986       -2.45545948091851       -0.05937882682413
H           57.58128470985576       -4.36423569865317       -0.05487522004518
H           55.68611838838968       -0.58948079793553       -0.02955783719471
H           54.93766412667171       -4.35950213073867       -0.03882660818209
H           52.35914150548331       -4.50269837705964       -0.02326284672540
H           50.36390702068170       -2.67995856048923       -0.00366393585883

          :  Hamiltonian                  GFN1-xTB          :
         :: total energy            -309.198320034187 Eh    ::
         :: gradient norm              0.000861456168 Eh/a0 ::
         :: HOMO-LUMO gap              0.418102132156 eV    ::
         :: SCC energy              -315.026510234644 Eh    ::
         :: repulsion energy           5.960451505669 Eh    ::

    * Orbital Energies and Occupations

         #    Occupation            Energy/Eh            Energy/eV
      -------------------------------------------------------------
         1        2.0000           -0.8081831             -21.9918
       ...           ...                  ...                  ...
       273        2.0000           -0.4080015             -11.1023
       274        2.0000           -0.4077920             -11.0966
       275        2.0000           -0.4059852             -11.0474
       276        2.0000           -0.4032303             -10.9725
       277        2.0000           -0.4032044             -10.9717
       278        2.0000           -0.4007441             -10.9048
       279        2.0000           -0.4006829             -10.9031
       280        2.0000           -0.3881147             -10.5611
       281        2.0000           -0.3877321             -10.5507
       282        2.0000           -0.3875797             -10.5466
       283        2.0000           -0.3819974             -10.3947
       284        1.9995           -0.3716562             -10.1133
       285        1.9994           -0.3714750             -10.1083 (HOMO)
       286        0.0006           -0.3561100              -9.6902 (LUMO)
       287        0.0006           -0.3560724              -9.6892
       288        0.0000           -0.3489514              -9.4954
       289                         -0.3422624              -9.3134
       290                         -0.3345414              -9.1033
       291                         -0.3344986              -9.1022
       292                         -0.3338137              -9.0835
       293                         -0.3336885              -9.0801
       294                         -0.3293396              -8.9618
       295                         -0.3292278              -8.9587
       296                         -0.3192334              -8.6868
       ...                                ...                  ...
       604                          1.6248888              44.2155
      -------------------------------------------------------------
                  HL-Gap            0.0153650 Eh            0.4181 eV

Wiberg/Mayer (AO) data.
largest (>0.10) Wiberg bond orders for each atom

     #   Z sym  total        # sym  WBO       # sym  WBO       # sym  WBO
 ---------------------------------------------------------------------------
     1   6 C    3.949 --     2 C    1.364    23 C    1.350    25 H    0.971
     2   6 C    3.901 --     1 C    1.364     3 C    1.213     6 N    1.171
     3   6 C    3.959 --     4 C    1.619     2 C    1.213    26 H    0.976
     4   6 C    3.958 --     3 C    1.619     5 C    1.213    27 H    0.976
     5   6 C    3.907 --     7 C    1.375     4 C    1.213     6 N    1.162
     6   7 N    3.468 --     2 C    1.171     5 C    1.162    28 H    0.876
     7   6 C    3.941 --     5 C    1.375     8 C    1.332    29 H    0.971
     8   6 C    3.931 --     7 C    1.332    11 N    1.298     9 C    1.136
     9   6 C    3.962 --    10 C    1.683     8 C    1.136    30 H    0.973
    10   6 C    3.804 --     9 C    1.683    12 C    1.100    13 C    0.420
                            31 H    0.279    11 N    0.158
    11   7 N    3.052 --     8 C    1.298    12 C    1.170    10 C    0.158
    12   6 C    3.919 --    13 C    1.493    11 N    1.170    10 C    1.100
    13   6 C    3.794 --    12 C    1.493    14 C    1.371    10 C    0.420
                            75 C    0.162
    14   6 C    3.895 --    13 C    1.371    15 C    1.222    18 N    1.129
    15   6 C    3.959 --    16 C    1.603    14 C    1.222    32 H    0.977
    16   6 C    3.956 --    15 C    1.603    17 C    1.225    33 H    0.977
    17   6 C    3.902 --    19 C    1.330    16 C    1.225    18 N    1.190
    18   7 N    3.470 --    17 C    1.190    14 C    1.129    34 H    0.875
    19   6 C    3.934 --    20 C    1.383    17 C    1.330    35 H    0.972
    20   6 C    3.931 --    19 C    1.383    24 N    1.291    21 C    1.111
    21   6 C    3.968 --    22 C    1.733    20 C    1.111    36 H    0.976
    22   6 C    3.966 --    21 C    1.733    23 C    1.108    37 H    0.976
    23   6 C    3.928 --     1 C    1.350    24 N    1.325    22 C    1.108
    24   7 N    3.034 --    23 C    1.325    20 C    1.291
    25   1 H    1.002 --     1 C    0.971
    26   1 H    0.998 --     3 C    0.976
    27   1 H    0.998 --     4 C    0.976
    28   1 H    0.984 --     6 N    0.876
    29   1 H    1.000 --     7 C    0.971
    30   1 H    1.000 --     9 C    0.973
    31   1 H    0.993 --    75 C    0.698    10 C    0.279
    32   1 H    1.000 --    15 C    0.977
    33   1 H    0.997 --    16 C    0.977
    34   1 H    0.981 --    18 N    0.875
    35   1 H    1.001 --    19 C    0.972
    36   1 H    0.998 --    21 C    0.976
    37   1 H    0.998 --    22 C    0.976
    38   6 C    3.949 --    39 C    1.364    60 C    1.350    62 H    0.971
    39   6 C    3.901 --    38 C    1.364    40 C    1.213    43 N    1.170
    40   6 C    3.959 --    41 C    1.619    39 C    1.213    63 H    0.976
    41   6 C    3.958 --    40 C    1.619    42 C    1.213    64 H    0.976
    42   6 C    3.907 --    44 C    1.375    41 C    1.213    43 N    1.162
    43   7 N    3.468 --    39 C    1.170    42 C    1.162    65 H    0.876
    44   6 C    3.941 --    42 C    1.375    45 C    1.332    66 H    0.971
    45   6 C    3.930 --    44 C    1.332    48 N    1.297    46 C    1.136
    46   6 C    3.962 --    47 C    1.683    45 C    1.136    67 H    0.973
    47   6 C    3.801 --    46 C    1.683    49 C    1.099    50 C    0.428
                            68 H    0.267    48 N    0.160
    48   7 N    3.052 --    45 C    1.297    49 C    1.169    47 C    0.160
    49   6 C    3.919 --    50 C    1.496    48 N    1.169    47 C    1.099
    50   6 C    3.797 --    49 C    1.496    51 C    1.370    47 C    0.428
                           104 C    0.155
    51   6 C    3.895 --    50 C    1.370    52 C    1.222    55 N    1.129
    52   6 C    3.959 --    53 C    1.602    51 C    1.222    69 H    0.977
    53   6 C    3.956 --    52 C    1.602    54 C    1.226    70 H    0.977
    54   6 C    3.902 --    56 C    1.330    53 C    1.226    55 N    1.189
    55   7 N    3.470 --    54 C    1.189    51 C    1.129    71 H    0.875
    56   6 C    3.934 --    57 C    1.383    54 C    1.330    72 H    0.972
    57   6 C    3.931 --    56 C    1.383    61 N    1.291    58 C    1.111
    58   6 C    3.968 --    59 C    1.733    57 C    1.111    73 H    0.976
    59   6 C    3.966 --    58 C    1.733    60 C    1.108    74 H    0.976
    60   6 C    3.928 --    38 C    1.350    61 N    1.325    59 C    1.108
    61   7 N    3.034 --    60 C    1.325    57 C    1.291
    62   1 H    1.002 --    38 C    0.971
    63   1 H    0.998 --    40 C    0.976
    64   1 H    0.998 --    41 C    0.976
    65   1 H    0.984 --    43 N    0.876
    66   1 H    1.000 --    44 C    0.971
    67   1 H    1.000 --    46 C    0.973
    68   1 H    0.993 --   104 C    0.711    47 C    0.267
    69   1 H    1.000 --    52 C    0.977
    70   1 H    0.997 --    53 C    0.977
    71   1 H    0.981 --    55 N    0.875
    72   1 H    1.001 --    56 C    0.972
    73   1 H    0.998 --    58 C    0.976
    74   1 H    0.998 --    59 C    0.976
    75   6 C    3.835 --    76 C    2.667    31 H    0.698    78 C    0.205
                            13 C    0.162
    76   6 C    3.981 --    75 C    2.667    77 C    1.276
    77   6 C    3.870 --    78 C    2.393    76 C    1.276    80 C    0.186
    78   6 C    3.983 --    77 C    2.393    79 C    1.353    75 C    0.205
    79   6 C    3.893 --    80 C    2.331    78 C    1.353    82 C    0.182
    80   6 C    3.918 --    79 C    2.331    81 C    1.369    77 C    0.186
    81   6 C    3.924 --    82 C    2.335    80 C    1.369    84 C    0.186
    82   6 C    3.892 --    81 C    2.335    83 C    1.345    79 C    0.182
    83   6 C    3.930 --    84 C    2.436    82 C    1.345
    84   6 C    3.878 --    83 C    2.436   105 C    1.196    81 C    0.186
    85   6 C    3.870 --    86 C    2.425   117 C    1.201    88 C    0.184
    86   6 C    3.929 --    85 C    2.425    87 C    1.354
    87   6 C    3.878 --    88 C    2.314    86 C    1.354    90 C    0.178
    88   6 C    3.922 --    87 C    2.314    89 C    1.387    85 C    0.184
    89   6 C    3.891 --    90 C    2.292    88 C    1.387    92 C    0.178
    90   6 C    3.891 --    89 C    2.292    91 C    1.387    87 C    0.178
    91   6 C    3.922 --    92 C    2.314    90 C    1.387    94 C    0.184
    92   6 C    3.878 --    91 C    2.314    93 C    1.354    89 C    0.178
    93   6 C    3.929 --    94 C    2.425    92 C    1.354
    94   6 C    3.870 --    93 C    2.425   141 C    1.201    91 C    0.184
    95   6 C    3.878 --    96 C    2.437   153 C    1.196    98 C    0.186
    96   6 C    3.930 --    95 C    2.437    97 C    1.344
    97   6 C    3.892 --    98 C    2.336    96 C    1.344   100 C    0.182
    98   6 C    3.924 --    97 C    2.336    99 C    1.369    95 C    0.186
    99   6 C    3.919 --   100 C    2.332    98 C    1.369   102 C    0.186
   100   6 C    3.894 --    99 C    2.332   101 C    1.353    97 C    0.182
   101   6 C    3.983 --   102 C    2.393   100 C    1.353   104 C    0.205
   102   6 C    3.870 --   101 C    2.393   103 C    1.276    99 C    0.186
   103   6 C    3.981 --   104 C    2.667   102 C    1.276
   104   6 C    3.837 --   103 C    2.667    68 H    0.711   101 C    0.205
                            50 C    0.155
   105   6 C    3.929 --   106 C    1.250   127 C    1.250    84 C    1.196
   106   6 C    3.885 --   105 C    1.250   107 C    1.248   110 N    1.193
   107   6 C    3.956 --   108 C    1.585   106 C    1.248   129 H    0.975
   108   6 C    3.954 --   107 C    1.585   109 C    1.237   130 H    0.977
   109   6 C    3.893 --   111 C    1.339   108 C    1.237   110 N    1.164
   110   7 N    3.473 --   106 C    1.193   109 C    1.164   131 H    0.873
   111   6 C    3.933 --   112 C    1.382   109 C    1.339   132 H    0.970
   112   6 C    3.917 --   111 C    1.382   115 N    1.275   113 C    1.119
   113   6 C    3.965 --   114 C    1.717   112 C    1.119   133 H    0.976
   114   6 C    3.964 --   113 C    1.717   116 C    1.125   134 H    0.975
   115   7 N    3.015 --   116 C    1.353   112 C    1.275
   116   6 C    3.908 --   115 N    1.353   117 C    1.249   114 C    1.125
   117   6 C    3.929 --   116 C    1.249   118 C    1.246    85 C    1.201
   118   6 C    3.884 --   119 C    1.249   117 C    1.246   122 N    1.194
   119   6 C    3.956 --   120 C    1.584   118 C    1.249   135 H    0.975
   120   6 C    3.954 --   119 C    1.584   121 C    1.238   136 H    0.977
   121   6 C    3.894 --   123 C    1.339   120 C    1.238   122 N    1.163
   122   7 N    3.473 --   118 C    1.194   121 C    1.163   137 H    0.873
   123   6 C    3.932 --   124 C    1.381   121 C    1.339   138 H    0.970
   124   6 C    3.917 --   123 C    1.381   128 N    1.276   125 C    1.118
   125   6 C    3.966 --   126 C    1.717   124 C    1.118   139 H    0.976
   126   6 C    3.964 --   125 C    1.717   127 C    1.124   140 H    0.975
   127   6 C    3.908 --   128 N    1.352   105 C    1.250   126 C    1.124
   128   7 N    3.014 --   127 C    1.352   124 C    1.276
   129   1 H    1.001 --   107 C    0.975
   130   1 H    0.997 --   108 C    0.977
   131   1 H    0.986 --   110 N    0.873
   132   1 H    1.002 --   111 C    0.970
   133   1 H    0.998 --   113 C    0.976
   134   1 H    1.002 --   114 C    0.975
   135   1 H    1.001 --   119 C    0.975
   136   1 H    0.997 --   120 C    0.977
   137   1 H    0.986 --   122 N    0.873
   138   1 H    1.002 --   123 C    0.970
   139   1 H    0.998 --   125 C    0.976
   140   1 H    1.002 --   126 C    0.975
   141   6 C    3.929 --   163 C    1.249   142 C    1.246    94 C    1.201
   142   6 C    3.884 --   143 C    1.249   141 C    1.246   146 N    1.194
   143   6 C    3.956 --   144 C    1.584   142 C    1.249   165 H    0.975
   144   6 C    3.954 --   143 C    1.584   145 C    1.238   166 H    0.977
   145   6 C    3.894 --   147 C    1.340   144 C    1.238   146 N    1.163
   146   7 N    3.473 --   142 C    1.194   145 C    1.163   167 H    0.873
   147   6 C    3.932 --   148 C    1.381   145 C    1.340   168 H    0.970
   148   6 C    3.917 --   147 C    1.381   151 N    1.276   149 C    1.118
   149   6 C    3.966 --   150 C    1.717   148 C    1.118   169 H    0.976
   150   6 C    3.964 --   149 C    1.717   152 C    1.124   170 H    0.975
   151   7 N    3.014 --   152 C    1.352   148 C    1.276
   152   6 C    3.908 --   151 N    1.352   153 C    1.250   150 C    1.124
   153   6 C    3.929 --   152 C    1.250   154 C    1.250    95 C    1.196
   154   6 C    3.885 --   153 C    1.250   155 C    1.248   158 N    1.193
   155   6 C    3.956 --   156 C    1.585   154 C    1.248   171 H    0.975
   156   6 C    3.954 --   155 C    1.585   157 C    1.237   172 H    0.977
   157   6 C    3.893 --   159 C    1.339   156 C    1.237   158 N    1.164
   158   7 N    3.473 --   154 C    1.193   157 C    1.164   173 H    0.873
   159   6 C    3.933 --   160 C    1.382   157 C    1.339   174 H    0.970
   160   6 C    3.917 --   159 C    1.382   164 N    1.275   161 C    1.119
   161   6 C    3.965 --   162 C    1.717   160 C    1.119   175 H    0.976
   162   6 C    3.964 --   161 C    1.717   163 C    1.125   176 H    0.975
   163   6 C    3.908 --   164 N    1.353   141 C    1.249   162 C    1.125
   164   7 N    3.015 --   163 C    1.353   160 C    1.275
   165   1 H    1.001 --   143 C    0.975
   166   1 H    0.997 --   144 C    0.977
   167   1 H    0.986 --   146 N    0.873
   168   1 H    1.002 --   147 C    0.970
   169   1 H    0.998 --   149 C    0.976
   170   1 H    1.002 --   150 C    0.975
   171   1 H    1.001 --   155 C    0.975
   172   1 H    0.997 --   156 C    0.977
   173   1 H    0.986 --   158 N    0.873
   174   1 H    1.002 --   159 C    0.970
   175   1 H    0.998 --   161 C    0.976
   176   1 H    1.002 --   162 C    0.975
 ---------------------------------------------------------------------------

           -------------------------------------------------
          | TOTAL ENERGY             -309.198320034187 Eh   |
          | GRADIENT NORM               0.000861456168 Eh/α |
          | HOMO-LUMO GAP               0.418102132156 eV   |
           -------------------------------------------------

 * finished run on 2022/07/26 at 18:32:37.794
