   * xtb version 6.5.1 (b24c23e) compiled by 'conda@728c89f4b128' on 2022-07-12
          program call               : xtb PhCN_C2_2.xyz --gfn 1 --opt -T 48

   ID    Z sym.   atoms
    1    6 C      1-5, 7-12, 14-18, 20-25, 27-32, 34-39, 60-64, 66-71, 73-77,
                  79-84, 86-91, 93-98, 119, 120
    2    7 N      6, 13, 19, 26, 33, 40, 65, 72, 78, 85, 92, 99
    3    1 H      41-59, 100-118
########################################################################
[WARNING] Please study the warnings concerning your input carefully
-1- prog_main_parseArguments: Unknown option '-T' provided
########################################################################

          :  Hamiltonian                  GFN1-xTB          :
 * total energy  :  -206.0699888 Eh     change       -0.4247624E-09 Eh
 * total energy  :  -206.3344491 Eh     change       -0.2644602E+00 Eh
 * total energy  :  -206.4230805 Eh     change       -0.8863139E-01 Eh
 * total energy  :  -206.4554432 Eh     change       -0.3236277E-01 Eh
 * total energy  :  -206.4676917 Eh     change       -0.1224848E-01 Eh
 * total energy  :  -206.4744460 Eh     change       -0.6754306E-02 Eh
 * total energy  :  -206.4770493 Eh     change       -0.2603320E-02 Eh
 * total energy  :  -206.4787190 Eh     change       -0.1669678E-02 Eh
 * total energy  :  -206.4804887 Eh     change       -0.1769717E-02 Eh
 * total energy  :  -206.4822059 Eh     change       -0.1717166E-02 Eh
 * total energy  :  -206.4911067 Eh     change       -0.1394584E-04 Eh
 * total energy  :  -206.4911226 Eh     change       -0.1589823E-04 Eh
 * total energy  :  -206.4911394 Eh     change       -0.1681251E-04 Eh
 * total energy  :  -206.4911537 Eh     change       -0.1433738E-04 Eh
 * total energy  :  -206.4911643 Eh     change       -0.1057958E-04 Eh
 * total energy  :  -206.4911731 Eh     change       -0.8832276E-05 Eh
 * total energy  :  -206.4911820 Eh     change       -0.8876688E-05 Eh
 * total energy  :  -206.4911918 Eh     change       -0.9748227E-05 Eh
 * total energy  :  -206.4911936 Eh     change       -0.1803918E-05 Eh
   *** GEOMETRY OPTIMIZATION CONVERGED AFTER 68 ITERATIONS ***

 final structure:
================
120
 xtb: 6.5.1 (b24c23e)
C           13.51606140994814        0.13284520139079        0.03154963407229
C           14.13348808121253        1.37519490862009       -0.02637732644480
C           13.49408454817598        2.64643436311259       -0.04846063598748
C           14.46614422267383        3.60532391172677       -0.09294159628143
C           15.73098127028397        2.94989096398702       -0.10770205015290
N           15.47937136988627        1.60843055005992       -0.06386122352869
C           16.99862606149231        3.54118950427067       -0.11203224925459
C           17.03412074632874        5.02381234615271       -0.15813313799887
C           17.58724631178071        5.75573680447211        0.89485683132256
C           17.61956938251999        7.13804566799103        0.85124014552497
C           17.09985662508312        7.81697133992114       -0.25491114832471
C           17.13569330585466        9.23920885058573       -0.30493857917259
N           17.16186380935736       10.38906479979149       -0.34171480360732
C           16.54514032051208        7.08887316125186       -1.31150879859035
C           16.51138483431879        5.70690646986660       -1.25852350314967
C           18.21407089635855        2.85292625790732       -0.07798830736307
C           19.50920729802356        3.50780948062857       -0.09733819001786
C           20.43251439034386        2.52525213488687       -0.07234360458582
N           18.37449004815972        1.50100710848300       -0.05695751291867
C           19.70481114988977        1.27238741340842       -0.05758464321783
C           20.34646958097016        0.01667333208788       -0.05955244369250
C           19.69795869184679       -1.23339596038458       -0.04930260796521
C           20.32282008046992       -2.50774380034207       -0.05601793309624
C           19.34523764145092       -3.46170644268369       -0.00826205286516
C           18.08750779481980       -2.79830299456363        0.01182071067144
N           18.35199101939939       -1.45436198808708       -0.01537446362754
C           16.82259539423146       -3.39137849727947        0.08617579791270
C           16.78451265522292       -4.87329758818213        0.14071447717126
C           16.26557460510087       -5.52248255834211        1.26337907327766
C           16.23058952616165       -6.90389294789424        1.32528663806612
C           16.71079110080371       -7.66554939540372        0.25574790474773
C           16.67399892272439       -9.08740812735642        0.31493769494035
N           16.64432699329564      -10.23666597674277        0.36444298783477
C           17.22681836712264       -7.02052801611511       -0.87209403505936
C           17.26488723831769       -5.63851759664770       -0.92419630335950
C           15.60647725474160       -2.70209824062647        0.11148278333356
C           14.30269743499224       -3.34819912471407        0.13239172629106
C           13.38645747775051       -2.35986072820151        0.11245061866853
C           14.12902120273486       -1.11223745242407        0.07246474072906
N           15.46247301131632       -1.35676520932242        0.07113094044600
H           12.43108920529321        0.14612490779513        0.04626219959300
H           12.42626578198717        2.79428024034763       -0.02519705394387
H           14.32623963024499        4.67407689855928       -0.10405255815996
H           16.19513752782433        0.88969822925994       -0.05078075065091
H           17.98047726364117        5.23331271710610        1.75954863068078
H           18.04636824900169        7.69958881759314        1.67399086584965
H           16.14421754062166        7.61141184870086       -2.17213239401382
H           16.09187700609495        5.14525477733126       -2.08563882531003
H           19.67094106890578        4.57279596237296       -0.13391052871598
H           21.50549116744758        2.61753700258442       -0.06350810585161
H           21.38663434257318       -2.66931446046691       -0.09421228899792
H           19.48150999351055       -4.53042384403204        0.01721909349386
H           17.64129734841322       -0.73031462296061        0.00036045492198
H           15.90227087688536       -4.93485025928010        2.09886861680941
H           15.83285826557563       -7.40051922925857        2.20256808260162
H           17.59499888735943       -7.60773299479007       -1.70521330420567
H           17.65417277014049       -5.14228032048724       -1.80605248646299
H           14.13695001664847       -4.41341281279104        0.14554458174682
H           12.31045175117098       -2.43557942640566        0.11576298957794
C           31.21503399767940       -0.11944909746636        0.06391355610579
C           30.59808785732396       -1.32960105371357        0.35187717056617
C           31.23826660480023       -2.55684252521689        0.68270375827974
C           30.26678221689025       -3.49067229825657        0.90751317592419
C           29.00151342175557       -2.86555446767546        0.71275067565750
N           29.25234911045130       -1.56462833493100        0.38186265126653
C           27.73397437080665       -3.43453035346439        0.87492462489443
C           27.69784563841312       -4.87108243901498        1.24398135964365
C           27.14079383643470       -5.28029687705998        2.45759945674122
C           27.10641894790771       -6.61994755850237        2.80087268962600
C           27.62840399616173       -7.58060499034640        1.92951913177357
C           27.59127220837908       -8.96050878171450        2.27739533309835
N           27.56246353201612      -10.07585553085839        2.55914373034631
C           28.18751749968384       -7.17611977804102        0.71376326788104
C           28.22297142843377       -5.83420430773911        0.37942827754662
C           26.51867983413972       -2.76324283323036        0.71726662832648
C           25.22326146223223       -3.39676459107310        0.88207122452351
C           24.30038646907154       -2.44550215866884        0.63325863765892
N           26.35879138308175       -1.45886352406852        0.36103289153709
C           25.02854726352023       -1.23861014556092        0.29775284355211
C           24.38702047252083       -0.03321797559513       -0.05437220551886
C           25.03516407435358        1.17010889344082       -0.39387145013408
C           24.40962184704052        2.39136706005240       -0.75672981672929
C           25.38659953222238        3.32179755478600       -0.97543440397975
C           26.64467029450687        2.69156053173547       -0.76942207685336
N           26.38095334653710        1.39296990932942       -0.42152584980228
C           27.90937798031728        3.28299721500748       -0.86003696245419
C           27.94754971760227        4.72203678118441       -1.21757770960569
C           28.46940050074778        5.65596879325066       -0.31940981786250
C           28.50526338174013        7.00056941305337       -0.64204756714787
C           28.02271186650020        7.43730618880641       -1.87937549554831
C           28.06113625411497        8.81971999565198       -2.21698634456669
N           28.09306954875802        9.93671821208376       -2.49169819593912
C           27.50312129970775        6.50611341715156       -2.78343379415543
C           27.46459551578817        5.16360673928659       -2.45137162745273
C           29.12533326035542        2.62789029263821       -0.64273907756744
C           30.42939381998940        3.25448037381607       -0.79947573717075
C           31.34522228644039        2.29885209707254       -0.54505537492015
C           30.60219376709290        1.08870575910465       -0.24008946179308
N           29.26885105940435        1.32367576354554       -0.30991098223497
H           32.30002356279014       -0.12804992924405        0.08139918635213
H           32.30620614006670       -2.69207033612517        0.74483092020485
H           30.40747936935155       -4.52034000059459        1.19371575587381
H           28.53594429526651       -0.87091823883872        0.19580423251692
H           26.74604405681102       -4.53734439677214        3.14130293804000
H           26.67619324106030       -6.92959513518671        3.74609131914228
H           28.59040583468694       -7.91807667450009        0.03432249964716
H           28.64552215229529       -5.52578893237499       -0.57024981890911
H           25.06083209710472       -4.42974458347650        1.14329896726913
H           23.22740152325462       -2.53098984352854        0.66842405576479
H           23.34577775357866        2.53474266193528       -0.84019850077735
H           25.24947621951183        4.35507247220800       -1.24911552080908
H           27.09220721156160        0.70288829260101       -0.20356864071665
H           28.83438383677242        5.32201135374261        0.64526885085317
H           28.90562529041499        7.71991001085537        0.06273082284210
H           27.13274575155772        6.84050373786015       -3.74543890361634
H           27.07317700824801        4.44337118580412       -3.16095663906415
H           30.59579305119887        4.28190074737775       -1.08060324089926
H           32.42125409122972        2.37244978773553       -0.56152724093562
C           21.75773198080999       -0.00211501489002       -0.06813039243197
C           22.97572585860565       -0.01740388943929       -0.06685155750419

          :  Hamiltonian                  GFN1-xTB          :
         :: total energy            -206.491193576034 Eh    ::
         :: gradient norm              0.000419878868 Eh/a0 ::
         :: HOMO-LUMO gap              1.006673344878 eV    ::
         :: SCC energy              -210.016623134835 Eh    ::
         :: repulsion energy           3.630988531098 Eh    ::

    * Orbital Energies and Occupations

         #    Occupation            Energy/Eh            Energy/eV
      -------------------------------------------------------------
         1        2.0000           -0.8152590             -22.1843
       ...           ...                  ...                  ...
       177        2.0000           -0.4437773             -12.0758
       178        2.0000           -0.4332661             -11.7898
       179        2.0000           -0.4320502             -11.7567
       180        2.0000           -0.4320239             -11.7560
       181        2.0000           -0.4308729             -11.7246
       182        2.0000           -0.4279087             -11.6440
       183        2.0000           -0.4278811             -11.6432
       184        2.0000           -0.4270560             -11.6208
       185        2.0000           -0.4269853             -11.6189
       186        2.0000           -0.4107147             -11.1761
       187        2.0000           -0.4102637             -11.1638
       188        2.0000           -0.4026435             -10.9565
       189        2.0000           -0.3897983             -10.6070 (HOMO)
       190                         -0.3528038              -9.6003 (LUMO)
       191                         -0.3439192              -9.3585
       192                         -0.3436944              -9.3524
       193                         -0.3363176              -9.1517
       194                         -0.3143204              -8.5531
       195                         -0.3099973              -8.4355
       196                         -0.3044327              -8.2840
       197                         -0.3043797              -8.2826
       198                         -0.2998422              -8.1591
       199                         -0.2950032              -8.0274
       200                         -0.2841713              -7.7327
       ...                                ...                  ...
       404                          1.3186306              35.8818
      -------------------------------------------------------------
                  HL-Gap            0.0369946 Eh            1.0067 eV

Wiberg/Mayer (AO) data.
largest (>0.10) Wiberg bond orders for each atom

     #   Z sym  total        # sym  WBO       # sym  WBO       # sym  WBO
 ---------------------------------------------------------------------------
     1   6 C    3.926 --    39 C    1.366     2 C    1.347    41 H    0.971
     2   6 C    3.901 --     1 C    1.347     3 C    1.229     6 N    1.169
     3   6 C    3.954 --     4 C    1.597     2 C    1.229    42 H    0.976
     4   6 C    3.959 --     3 C    1.597     5 C    1.232    43 H    0.974
     5   6 C    3.897 --     7 C    1.304     4 C    1.232     6 N    1.178
     6   7 N    3.470 --     5 C    1.178     2 C    1.169    44 H    0.874
     7   6 C    3.938 --    16 C    1.333     5 C    1.304     8 C    1.028
     8   6 C    3.963 --    15 C    1.387     9 C    1.386     7 C    1.028
     9   6 C    3.988 --    10 C    1.463     8 C    1.386    45 H    0.971
                            14 C    0.102
    10   6 C    3.993 --     9 C    1.463    11 C    1.364    46 H    0.972
                            15 C    0.102
    11   6 C    3.984 --    14 C    1.365    10 C    1.364    12 C    1.098
    12   6 C    3.958 --    13 N    2.820    11 C    1.098
    13   7 N    2.973 --    12 C    2.820
    14   6 C    3.993 --    15 C    1.463    11 C    1.365    47 H    0.972
                             9 C    0.102
    15   6 C    3.987 --    14 C    1.463     8 C    1.387    48 H    0.972
                            10 C    0.102
    16   6 C    3.915 --     7 C    1.333    19 N    1.288    17 C    1.125
    17   6 C    3.965 --    18 C    1.708    16 C    1.125    49 H    0.973
    18   6 C    3.964 --    17 C    1.708    20 C    1.129    50 H    0.966
    19   7 N    3.021 --    20 C    1.342    16 C    1.288
    20   6 C    3.913 --    19 N    1.342    21 C    1.259    18 C    1.129
    21   6 C    3.938 --    20 C    1.259    22 C    1.256   119 C    1.180
    22   6 C    3.889 --    21 C    1.256    23 C    1.249    26 N    1.187
    23   6 C    3.959 --    24 C    1.583    22 C    1.249    51 H    0.967
    24   6 C    3.954 --    23 C    1.583    25 C    1.240    52 H    0.974
    25   6 C    3.898 --    27 C    1.308    24 C    1.240    26 N    1.167
    26   7 N    3.474 --    22 C    1.187    25 C    1.167    53 H    0.873
    27   6 C    3.924 --    36 C    1.322    25 C    1.308    28 C    1.029
    28   6 C    3.963 --    35 C    1.387    29 C    1.386    27 C    1.029
    29   6 C    3.987 --    30 C    1.464    28 C    1.386    54 H    0.971
                            34 C    0.102
    30   6 C    3.993 --    29 C    1.464    31 C    1.364    55 H    0.972
                            35 C    0.102
    31   6 C    3.984 --    34 C    1.365    30 C    1.364    32 C    1.098
    32   6 C    3.958 --    33 N    2.820    31 C    1.098
    33   7 N    2.973 --    32 C    2.820
    34   6 C    3.993 --    35 C    1.463    31 C    1.365    56 H    0.972
                            29 C    0.102
    35   6 C    3.987 --    34 C    1.463    28 C    1.387    57 H    0.972
                            30 C    0.102
    36   6 C    3.929 --    27 C    1.322    40 N    1.317    37 C    1.116
    37   6 C    3.967 --    38 C    1.725    36 C    1.116    58 H    0.974
    38   6 C    3.966 --    37 C    1.725    39 C    1.116    59 H    0.976
    39   6 C    3.928 --     1 C    1.366    40 N    1.300    38 C    1.116
    40   7 N    3.011 --    36 C    1.317    39 C    1.300
    41   1 H    1.001 --     1 C    0.971
    42   1 H    0.997 --     3 C    0.976
    43   1 H    1.004 --     4 C    0.974
    44   1 H    0.986 --     6 N    0.874
    45   1 H    1.003 --     9 C    0.971
    46   1 H    1.000 --    10 C    0.972
    47   1 H    1.000 --    14 C    0.972
    48   1 H    1.003 --    15 C    0.972
    49   1 H    1.005 --    17 C    0.973
    50   1 H    1.007 --    18 C    0.966
    51   1 H    1.007 --    23 C    0.967
    52   1 H    1.004 --    24 C    0.974
    53   1 H    0.987 --    26 N    0.873
    54   1 H    1.003 --    29 C    0.971
    55   1 H    1.000 --    30 C    0.972
    56   1 H    1.000 --    34 C    0.972
    57   1 H    1.003 --    35 C    0.972
    58   1 H    1.004 --    37 C    0.974
    59   1 H    0.998 --    38 C    0.976
    60   6 C    3.926 --    98 C    1.366    61 C    1.347   100 H    0.971
    61   6 C    3.901 --    60 C    1.347    62 C    1.229    65 N    1.169
    62   6 C    3.954 --    63 C    1.597    61 C    1.229   101 H    0.976
    63   6 C    3.959 --    62 C    1.597    64 C    1.232   102 H    0.974
    64   6 C    3.897 --    66 C    1.304    63 C    1.232    65 N    1.178
    65   7 N    3.470 --    64 C    1.178    61 C    1.169   103 H    0.874
    66   6 C    3.938 --    75 C    1.333    64 C    1.304    67 C    1.029
    67   6 C    3.963 --    74 C    1.387    68 C    1.386    66 C    1.029
    68   6 C    3.988 --    69 C    1.463    67 C    1.386   104 H    0.971
                            73 C    0.102
    69   6 C    3.993 --    68 C    1.463    70 C    1.364   105 H    0.972
                            74 C    0.102
    70   6 C    3.984 --    73 C    1.364    69 C    1.364    71 C    1.098
    71   6 C    3.958 --    72 N    2.820    70 C    1.098
    72   7 N    2.973 --    71 C    2.820
    73   6 C    3.993 --    74 C    1.463    70 C    1.364   106 H    0.972
                            68 C    0.102
    74   6 C    3.987 --    73 C    1.463    67 C    1.387   107 H    0.972
                            69 C    0.102
    75   6 C    3.915 --    66 C    1.333    78 N    1.288    76 C    1.125
    76   6 C    3.965 --    77 C    1.708    75 C    1.125   108 H    0.973
    77   6 C    3.964 --    76 C    1.708    79 C    1.129   109 H    0.966
    78   7 N    3.021 --    79 C    1.342    75 C    1.288
    79   6 C    3.913 --    78 N    1.342    80 C    1.259    77 C    1.129
    80   6 C    3.938 --    79 C    1.259    81 C    1.256   120 C    1.180
    81   6 C    3.889 --    80 C    1.256    82 C    1.249    85 N    1.187
    82   6 C    3.959 --    83 C    1.582    81 C    1.249   110 H    0.967
    83   6 C    3.954 --    82 C    1.582    84 C    1.240   111 H    0.974
    84   6 C    3.898 --    86 C    1.308    83 C    1.240    85 N    1.167
    85   7 N    3.474 --    81 C    1.187    84 C    1.167   112 H    0.873
    86   6 C    3.924 --    95 C    1.322    84 C    1.308    87 C    1.029
    87   6 C    3.963 --    94 C    1.387    88 C    1.385    86 C    1.029
    88   6 C    3.987 --    89 C    1.464    87 C    1.385   113 H    0.971
                            93 C    0.102
    89   6 C    3.993 --    88 C    1.464    90 C    1.364   114 H    0.972
                            94 C    0.102
    90   6 C    3.984 --    93 C    1.365    89 C    1.364    91 C    1.098
    91   6 C    3.958 --    92 N    2.820    90 C    1.098
    92   7 N    2.973 --    91 C    2.820
    93   6 C    3.993 --    94 C    1.463    90 C    1.365   115 H    0.972
                            88 C    0.102
    94   6 C    3.987 --    93 C    1.463    87 C    1.387   116 H    0.971
                            89 C    0.102
    95   6 C    3.929 --    86 C    1.322    99 N    1.317    96 C    1.116
    96   6 C    3.967 --    97 C    1.725    95 C    1.116   117 H    0.974
    97   6 C    3.966 --    96 C    1.725    98 C    1.116   118 H    0.976
    98   6 C    3.928 --    60 C    1.366    99 N    1.300    97 C    1.116
    99   7 N    3.011 --    95 C    1.317    98 C    1.300
   100   1 H    1.001 --    60 C    0.971
   101   1 H    0.997 --    62 C    0.976
   102   1 H    1.004 --    63 C    0.974
   103   1 H    0.986 --    65 N    0.874
   104   1 H    1.004 --    68 C    0.971
   105   1 H    1.000 --    69 C    0.972
   106   1 H    1.000 --    73 C    0.972
   107   1 H    1.003 --    74 C    0.972
   108   1 H    1.005 --    76 C    0.973
   109   1 H    1.007 --    77 C    0.966
   110   1 H    1.007 --    82 C    0.967
   111   1 H    1.004 --    83 C    0.974
   112   1 H    0.987 --    85 N    0.873
   113   1 H    1.003 --    88 C    0.971
   114   1 H    1.000 --    89 C    0.972
   115   1 H    1.000 --    93 C    0.972
   116   1 H    1.003 --    94 C    0.971
   117   1 H    1.004 --    96 C    0.974
   118   1 H    0.998 --    97 C    0.976
   119   6 C    3.933 --   120 C    2.577    21 C    1.180
   120   6 C    3.933 --   119 C    2.577    80 C    1.180
 ---------------------------------------------------------------------------

           -------------------------------------------------
          | TOTAL ENERGY             -206.491193576034 Eh   |
          | GRADIENT NORM               0.000419878868 Eh/α |
          | HOMO-LUMO GAP               1.006673344878 eV   |
           -------------------------------------------------

 * finished run on 2022/07/27 at 13:59:19.644
