   * xtb version 6.5.1 (b24c23e) compiled by 'conda@728c89f4b128' on 2022-07-12
          program call               : xtb Co_BSA_C6_2.xyz --gfn 1 --opt -T 48

   ID    Z sym.   atoms
    1   27 Co     1, 65
    2    6 C      2-6, 8-12, 17-21, 23-28, 30-34, 39-44, 66-70, 72-76, 81-85,
                  87-92, 94-98, 103-108, 129-134
    3    7 N      7, 22, 29, 45, 71, 86, 93, 109
    4   16 S      13, 35, 77, 99
    5    8 O      14-16, 36-38, 78-80, 100-102
    6    1 H      46-64, 110-128
########################################################################
[WARNING] Please study the warnings concerning your input carefully
-1- prog_main_parseArguments: Unknown option '-T' provided
########################################################################

          :  Hamiltonian                  GFN1-xTB          :
 * total energy  :  -270.5614861 Eh     change        0.1559897E-08 Eh
 * total energy  :  -271.3795878 Eh     change       -0.8181017E+00 Eh
 * total energy  :  -271.5185355 Eh     change       -0.1389477E+00 Eh
 * total energy  :  -271.5944647 Eh     change       -0.7592917E-01 Eh
 * total energy  :  -271.6255193 Eh     change       -0.3105463E-01 Eh
 * total energy  :  -271.6419085 Eh     change       -0.1638918E-01 Eh
 * total energy  :  -271.6516768 Eh     change       -0.9768349E-02 Eh
 * total energy  :  -271.6581690 Eh     change       -0.6492159E-02 Eh
 * total energy  :  -271.6630159 Eh     change       -0.4846909E-02 Eh
 * total energy  :  -271.6667974 Eh     change       -0.3781527E-02 Eh
 * total energy  :  -271.6792118 Eh     change        0.5602878E-05 Eh
 * total energy  :  -271.6792279 Eh     change       -0.1610797E-04 Eh
 * total energy  :  -271.6792368 Eh     change       -0.8855292E-05 Eh
 * total energy  :  -271.6792531 Eh     change       -0.1631593E-04 Eh
 * total energy  :  -271.6792682 Eh     change       -0.1511658E-04 Eh
 * total energy  :  -271.6792794 Eh     change       -0.1121618E-04 Eh
 * total energy  :  -271.6792885 Eh     change       -0.9028509E-05 Eh
 * total energy  :  -271.6792943 Eh     change       -0.5857471E-05 Eh
 * total energy  :  -271.6792987 Eh     change       -0.4374697E-05 Eh
   *** GEOMETRY OPTIMIZATION CONVERGED AFTER 56 ITERATIONS ***

 final structure:
================
134
 xtb: 6.5.1 (b24c23e)
Co          15.76207117115469        0.04645254775499        0.05441392825973
C           12.39047514807711        0.12916573126037        0.08622192760670
C           13.04168880115521       -0.43539798485778        1.16176957697010
C           12.37488793415660       -1.00938942357034        2.29097033386477
C           13.32898890733689       -1.26614752592482        3.21623067876305
C           14.57667528405963       -0.83685088635894        2.65455153977535
N           14.39827968907373       -0.39668170914187        1.36824379636529
C           15.77013877853471       -0.76640803589781        3.36065557561485
C           15.77344360121433       -1.10132947836889        4.80272720500214
C           14.98379378093668       -0.37261648221838        5.69579046361363
C           14.98808157525775       -0.67649393463465        7.04704916575578
C           15.78330309561230       -1.72044952376799        7.49120866549488
S           15.79683238917785       -2.10617872547682        9.20140861994528
O           15.41737781940058       -0.96642994196726        9.98290523106634
O           14.56369762977557       -3.16313453372389        9.21162264529076
O           16.99306700595242       -2.81143731023265        9.55657270167860
C           16.57700571220035       -2.46086024642957        6.63033433508919
C           16.57055435893177       -2.14380475934851        5.28198551341015
C           16.95872649324124       -0.38263575276882        2.75719422537076
C           18.20316467097802       -0.22969799201869        3.44895707085560
C           19.15303752050277       -0.02939523811227        2.50363875870473
N           17.13745866944220       -0.20873880753616        1.40441932331130
C           18.48545330378299       -0.05231891911834        1.24096484532004
C           19.15243109857017       -0.06618901792458        0.01319293510099
C           18.45965124698723       -0.05164012736271       -1.20007345179664
C           19.09823360421523       -0.11555997159632       -2.47630263798888
C           18.13966462510176        0.12634629983270       -3.40282430639219
C           16.92043416453117        0.35069104795090       -2.68578188746695
N           17.11701254543494        0.16549438172296       -1.33659016003195
C           15.74604344722501        0.80995482497609       -3.26410529784409
C           15.74062625537103        1.15600009275017       -4.70311419486941
C           14.86453381850384        0.51219039963200       -5.58066610755270
C           14.85265840121420        0.83714911875940       -6.92710495897384
C           15.72338952378248        1.81315729424769       -7.38343888071465
S           15.70153357646937        2.24267434697488       -9.08394266709076
O           16.18022661126238        3.57954756500913       -9.28423027564644
O           16.85811112017800        1.23179942696132       -9.61030057342262
O           14.45378492702575        1.86269603621082       -9.67428323018347
C           16.60117960326011        2.47151967347722       -6.53741537022741
C           16.60757596507519        2.13601952649813       -5.19375738632817
C           14.57603278038573        0.95905687518525       -2.53056625092910
C           13.34771880093601        1.47589744137266       -3.06024126741489
C           12.39961580368587        1.27692808627929       -2.11462452086265
C           13.05197267525143        0.65306222041579       -1.00383470963113
N           14.39653643625996        0.51917418835045       -1.24449019895755
H           11.30765182992447        0.16434585747443        0.09893086997122
H           11.31144772297862       -1.17685204183750        2.35197735830618
H           13.21272638631210       -1.70238242582318        4.19507595239623
H           14.37797039342536        0.44757870659733        5.32878597724410
H           14.39003114938679       -0.11047839538089        7.75011383237516
H           14.43046410986884       -3.51408937136652       10.10052564861832
H           17.19040890147402       -3.26690861078075        7.01292333739425
H           17.17700686262289       -2.71615609070544        4.58979744537660
H           18.32302334205826       -0.27131710109270        4.51925793982736
H           20.21368998531677        0.11370708227249        2.63258231336046
H           20.14722411994945       -0.31368406884630       -2.62622274958290
H           18.23876958720343        0.15514016015889       -4.47564638914004
H           14.19931673495371       -0.25670013535375       -5.20551571406388
H           14.17670655423169        0.34566382659550       -7.61543178609402
H           17.22255819361174        1.55062546760576      -10.44497662910762
H           17.26008830724486        3.23798903688276       -6.92570647074777
H           17.27630911930537        2.64924762257924       -4.51266896606860
H           13.23829090385577        1.92805017312525       -4.03256945980425
H           11.34912634647121        1.51745948457897       -2.14975514923509
Co          31.71131434901747        0.06309288427597       -0.03307098535410
C           35.08294340547992        0.15198013258728       -0.03197172838816
C           34.43179261721836        0.02491863923164       -1.24005472410001
C           35.09869109203359       -0.09087170271431       -2.50141139470179
C           34.14463475432154        0.01246871014402       -3.45610249486052
C           32.89688117026917        0.20351985451513       -2.77558582886410
N           33.07520321491707        0.13711173888584       -1.41765828739414
C           31.70337467237255        0.52967272594934       -3.40571141721123
C           31.69992337024655        0.75095321642238       -4.86952263298851
C           32.48946080243563        1.75789908369638       -5.43061750670080
C           32.48508273136031        1.97419160308534       -6.79862886984458
C           31.68990882951898        1.16778385640797       -7.59670286355829
S           31.67635824963133        1.44044404360865       -9.32853355728713
O           32.05531082299139        2.78830536101584       -9.63417075013571
O           32.90989982949317        0.46238638245302       -9.72805816710552
O           30.48035695102804        0.91559652125076       -9.91897748969595
C           30.89627194496937        0.16189248432874       -7.06983362647982
C           30.90278889416707       -0.04105464383976       -5.69966231987718
C           30.51476763725611        0.66301530235931       -2.70314869717657
C           29.27027224824117        1.06049509943843       -3.28947393996857
C           28.32036575174579        0.89679287573704       -2.33716464187917
N           30.33602741897377        0.32445136553345       -1.38192802351145
C           28.98797706688889        0.40865335370030       -1.17245366030505
C           28.32096839056674       -0.05829403543367       -0.03687154779257
C           29.01366496186685       -0.49231730972661        1.09623456038475
C           28.37500566728601       -1.02252023347089        2.25883388234492
C           29.33352616063775       -1.13951521108423        3.20930505401734
C           30.55276880087400       -0.66631094495713        2.62575236211219
N           30.35624487399394       -0.34043758819160        1.30345468734231
C           31.72722094410823       -0.45320636550019        3.33274591836483
C           31.73280273275872       -0.66318505651998        4.79782079744203
C           32.60876506754659       -1.58582287796191        5.37534952408683
C           32.62082288030494       -1.78123081461102        6.74660930992301
C           31.75040540999161       -1.04258566087196        7.53130580734282
S           31.77193903247669       -1.27162160463966        9.27020991201049
O           31.29302355602227       -0.10319549928916        9.94991797357523
O           30.61514147201936       -2.40520984682392        9.38629754043695
O           33.01957785502848       -1.84265067393698        9.67874083336665
C           30.87276161695240       -0.11804525545860        6.98844239794126
C           30.86619542678514        0.06654358963056        5.61589866056730
C           32.89724669732232       -0.04373803332411        2.70616914593858
C           34.12552423461124        0.24088508081767        3.38937194166326
C           35.07366953976469        0.40533717611784        2.43719650071467
C           34.42137448440712        0.23594677945577        1.17448350799408
N           33.07679710647994        0.02264316387350        1.34858369519444
H           36.16576205194659        0.18946251532670       -0.03071199352282
H           36.16215873750175       -0.22376308361772       -2.61994427692367
H           34.26098408473637       -0.03097864091044       -4.52686471640828
H           33.09522728760243        2.38480617884065       -4.78682334031430
H           33.08304140180238        2.75977745492129       -7.24319808068310
H           33.04340454944895        0.46453004984896      -10.68369316354818
H           30.28289501164172       -0.44609631061838       -7.72288347002354
H           30.29638458658973       -0.82848847737268       -5.26755512656885
H           29.15042085182722        1.41758868641026       -4.29930754118242
H           27.25965184324671        1.07702343528904       -2.40419309270061
H           27.32604507388074       -1.26213353681132        2.32494189923395
H           29.23434451812921       -1.50858072152088        4.21706639205840
H           33.27376947812648       -2.16189402875214        4.74261181397781
H           33.29669360879011       -2.49239355315851        7.20454944668025
H           30.24486657822594       -2.41074483107456       10.27734921940434
H           30.21414099081533        0.45095653202536        7.63253471469559
H           30.19759587986690        0.79524699294792        5.17266751357956
H           34.23488602632063        0.30187244489467        4.45995816100272
H           36.12414623479930        0.61589782171126        2.55873777230602
C           24.35109419588923       -0.10871404463801       -0.02340622462951
C           23.12231164969484       -0.10962063972636       -0.01854831511219
C           21.77888635067898       -0.10334601355012       -0.01032532412036
C           20.55478461293996       -0.09081142036628       -0.00127385775118
C           25.69450961641914       -0.10126275762967       -0.03111912210762
C           26.91859712181771       -0.08590769256592       -0.03287223388936

          :  Hamiltonian                  GFN1-xTB          :
         :: total energy            -271.679298696565 Eh    ::
         :: gradient norm              0.000522980927 Eh/a0 ::
         :: HOMO-LUMO gap              0.005720575921 eV    ::
         :: SCC energy              -275.338389898033 Eh    ::
         :: repulsion energy           3.780316268350 Eh    ::

    * Orbital Energies and Occupations

         #    Occupation            Energy/Eh            Energy/eV
      -------------------------------------------------------------
         1        2.0000           -1.0371459             -28.2222
       ...           ...                  ...                  ...
       224        2.0000           -0.4405858             -11.9890
       225        2.0000           -0.4335232             -11.7968
       226        2.0000           -0.4149274             -11.2907
       227        2.0000           -0.4149243             -11.2907
       228        2.0000           -0.4142640             -11.2727
       229        2.0000           -0.4141256             -11.2689
       230        2.0000           -0.4141180             -11.2687
       231        1.9998           -0.4105914             -11.1728
       232        1.9998           -0.4105903             -11.1727
       233        1.9997           -0.4104346             -11.1685
       234        1.9997           -0.4104344             -11.1685
       235        1.8831           -0.4046319             -11.0106
       236        1.1140           -0.4022087             -10.9447 (HOMO)
       237        1.0039           -0.4019985             -10.9389 (LUMO)
       238                         -0.3564841              -9.7004
       239                         -0.3482043              -9.4751
       240                         -0.3482035              -9.4751
       241                         -0.3450722              -9.3899
       242                         -0.3226508              -8.7798
       243                         -0.3198134              -8.7026
       244                         -0.3117965              -8.4844
       245                         -0.3114732              -8.4756
       246                         -0.3102818              -8.4432
       247                         -0.3102606              -8.4426
       ...                                ...                  ...
       490                          1.5607293              42.4696
      -------------------------------------------------------------
                  HL-Gap            0.0002102 Eh            0.0057 eV

Wiberg/Mayer (AO) data.
largest (>0.10) Wiberg bond orders for each atom

     #   Z sym  total        # sym  WBO       # sym  WBO       # sym  WBO
 ---------------------------------------------------------------------------
     1  27 Co   3.051 --     7 N    0.642    45 N    0.639    29 N    0.636
                            22 N    0.633
     2   6 C    3.931 --     3 C    1.366    44 C    1.365    46 H    0.969
     3   6 C    3.922 --     2 C    1.366     7 N    1.199     4 C    1.173
     4   6 C    3.960 --     5 C    1.651     3 C    1.173    47 H    0.975
     5   6 C    3.963 --     4 C    1.651     6 C    1.175    48 H    0.973
     6   6 C    3.921 --     8 C    1.319     7 N    1.212     5 C    1.175
     7   7 N    3.346 --     6 C    1.212     3 C    1.199     1 Co   0.642
     8   6 C    3.932 --    19 C    1.329     6 C    1.319     9 C    1.031
     9   6 C    3.986 --    18 C    1.390    10 C    1.390     8 C    1.031
    10   6 C    3.986 --    11 C    1.450     9 C    1.390    49 H    0.971
                            17 C    0.106
    11   6 C    3.989 --    10 C    1.450    12 C    1.407    50 H    0.967
                            18 C    0.106
    12   6 C    3.930 --    17 C    1.408    11 C    1.407    13 S    0.754
    13  16 S    5.265 --    14 O    1.720    16 O    1.719    15 O    1.013
                            12 C    0.754
    14   8 O    2.079 --    13 S    1.720    16 O    0.139
    15   8 O    2.087 --    13 S    1.013    51 H    0.827
    16   8 O    2.078 --    13 S    1.719    14 O    0.139
    17   6 C    3.989 --    18 C    1.450    12 C    1.408    52 H    0.967
                            10 C    0.106
    18   6 C    3.986 --    17 C    1.450     9 C    1.390    53 H    0.971
                            11 C    0.106
    19   6 C    3.917 --     8 C    1.329    22 N    1.195    20 C    1.181
    20   6 C    3.958 --    21 C    1.637    19 C    1.181    54 H    0.973
    21   6 C    3.961 --    20 C    1.637    23 C    1.190    55 H    0.973
    22   7 N    3.349 --    23 C    1.228    19 C    1.195     1 Co   0.633
    23   6 C    3.901 --    24 C    1.259    22 N    1.228    21 C    1.190
    24   6 C    3.936 --    25 C    1.260    23 C    1.259   132 C    1.192
    25   6 C    3.901 --    24 C    1.260    29 N    1.228    26 C    1.190
    26   6 C    3.961 --    27 C    1.637    25 C    1.190    56 H    0.973
    27   6 C    3.958 --    26 C    1.637    28 C    1.181    57 H    0.973
    28   6 C    3.917 --    30 C    1.329    29 N    1.194    27 C    1.181
    29   7 N    3.348 --    25 C    1.228    28 C    1.194     1 Co   0.636
    30   6 C    3.932 --    28 C    1.329    41 C    1.317    31 C    1.033
    31   6 C    3.986 --    32 C    1.390    40 C    1.389    30 C    1.033
    32   6 C    3.986 --    33 C    1.449    31 C    1.390    58 H    0.971
                            39 C    0.106
    33   6 C    3.989 --    32 C    1.449    34 C    1.408    59 H    0.966
                            40 C    0.106
    34   6 C    3.931 --    33 C    1.408    39 C    1.407    35 S    0.753
    35  16 S    5.269 --    38 O    1.730    36 O    1.713    37 O    1.016
                            34 C    0.753
    36   8 O    2.072 --    35 S    1.713    38 O    0.138
    37   8 O    2.089 --    35 S    1.016    60 H    0.828
    38   8 O    2.087 --    35 S    1.730    36 O    0.138
    39   6 C    3.989 --    40 C    1.451    34 C    1.407    61 H    0.967
                            32 C    0.106
    40   6 C    3.986 --    39 C    1.451    31 C    1.389    62 H    0.971
                            33 C    0.106
    41   6 C    3.921 --    30 C    1.317    45 N    1.213    42 C    1.175
    42   6 C    3.963 --    43 C    1.650    41 C    1.175    63 H    0.973
    43   6 C    3.960 --    42 C    1.650    44 C    1.174    64 H    0.975
    44   6 C    3.922 --     2 C    1.365    45 N    1.199    43 C    1.174
    45   7 N    3.347 --    41 C    1.213    44 C    1.199     1 Co   0.639
    46   1 H    0.999 --     2 C    0.969
    47   1 H    0.997 --     4 C    0.975
    48   1 H    1.003 --     5 C    0.973
    49   1 H    1.003 --    10 C    0.971
    50   1 H    0.999 --    11 C    0.967
    51   1 H    0.854 --    15 O    0.827
    52   1 H    0.999 --    17 C    0.967
    53   1 H    1.003 --    18 C    0.971
    54   1 H    1.002 --    20 C    0.973
    55   1 H    1.001 --    21 C    0.973
    56   1 H    1.001 --    26 C    0.973
    57   1 H    1.003 --    27 C    0.973
    58   1 H    1.003 --    32 C    0.971
    59   1 H    0.999 --    33 C    0.966
    60   1 H    0.854 --    37 O    0.828
    61   1 H    0.999 --    39 C    0.967
    62   1 H    1.003 --    40 C    0.971
    63   1 H    1.003 --    42 C    0.973
    64   1 H    0.997 --    43 C    0.975
    65  27 Co   3.051 --    71 N    0.642   109 N    0.639    93 N    0.636
                            86 N    0.633
    66   6 C    3.931 --    67 C    1.366   108 C    1.365   110 H    0.969
    67   6 C    3.922 --    66 C    1.366    71 N    1.199    68 C    1.173
    68   6 C    3.960 --    69 C    1.651    67 C    1.173   111 H    0.975
    69   6 C    3.963 --    68 C    1.651    70 C    1.175   112 H    0.973
    70   6 C    3.921 --    72 C    1.319    71 N    1.212    69 C    1.175
    71   7 N    3.346 --    70 C    1.212    67 C    1.199    65 Co   0.642
    72   6 C    3.932 --    83 C    1.329    70 C    1.319    73 C    1.031
    73   6 C    3.986 --    82 C    1.390    74 C    1.390    72 C    1.031
    74   6 C    3.986 --    75 C    1.450    73 C    1.390   113 H    0.971
                            81 C    0.106
    75   6 C    3.989 --    74 C    1.450    76 C    1.407   114 H    0.967
                            82 C    0.106
    76   6 C    3.930 --    81 C    1.408    75 C    1.407    77 S    0.754
    77  16 S    5.265 --    78 O    1.720    80 O    1.719    79 O    1.013
                            76 C    0.754
    78   8 O    2.079 --    77 S    1.720    80 O    0.139
    79   8 O    2.087 --    77 S    1.013   115 H    0.827
    80   8 O    2.078 --    77 S    1.719    78 O    0.139
    81   6 C    3.989 --    82 C    1.450    76 C    1.408   116 H    0.967
                            74 C    0.106
    82   6 C    3.986 --    81 C    1.450    73 C    1.390   117 H    0.971
                            75 C    0.106
    83   6 C    3.917 --    72 C    1.329    86 N    1.195    84 C    1.181
    84   6 C    3.958 --    85 C    1.637    83 C    1.181   118 H    0.973
    85   6 C    3.961 --    84 C    1.637    87 C    1.190   119 H    0.973
    86   7 N    3.349 --    87 C    1.228    83 C    1.195    65 Co   0.633
    87   6 C    3.901 --    88 C    1.259    86 N    1.228    85 C    1.190
    88   6 C    3.936 --    89 C    1.260    87 C    1.259   134 C    1.192
    89   6 C    3.901 --    88 C    1.260    93 N    1.228    90 C    1.190
    90   6 C    3.961 --    91 C    1.637    89 C    1.190   120 H    0.973
    91   6 C    3.958 --    90 C    1.637    92 C    1.181   121 H    0.973
    92   6 C    3.917 --    94 C    1.329    93 N    1.194    91 C    1.181
    93   7 N    3.348 --    89 C    1.228    92 C    1.194    65 Co   0.636
    94   6 C    3.932 --    92 C    1.329   105 C    1.317    95 C    1.033
    95   6 C    3.986 --    96 C    1.390   104 C    1.389    94 C    1.033
    96   6 C    3.986 --    97 C    1.449    95 C    1.390   122 H    0.971
                           103 C    0.106
    97   6 C    3.989 --    96 C    1.449    98 C    1.408   123 H    0.966
                           104 C    0.106
    98   6 C    3.931 --    97 C    1.408   103 C    1.407    99 S    0.753
    99  16 S    5.269 --   102 O    1.730   100 O    1.713   101 O    1.016
                            98 C    0.753
   100   8 O    2.072 --    99 S    1.713   102 O    0.138
   101   8 O    2.090 --    99 S    1.016   124 H    0.828
   102   8 O    2.088 --    99 S    1.730   100 O    0.138
   103   6 C    3.989 --   104 C    1.451    98 C    1.407   125 H    0.967
                            96 C    0.106
   104   6 C    3.986 --   103 C    1.451    95 C    1.389   126 H    0.971
                            97 C    0.106
   105   6 C    3.921 --    94 C    1.317   109 N    1.213   106 C    1.175
   106   6 C    3.963 --   107 C    1.650   105 C    1.175   127 H    0.973
   107   6 C    3.960 --   106 C    1.650   108 C    1.174   128 H    0.975
   108   6 C    3.922 --    66 C    1.365   109 N    1.199   107 C    1.174
   109   7 N    3.347 --   105 C    1.213   108 C    1.199    65 Co   0.639
   110   1 H    0.999 --    66 C    0.969
   111   1 H    0.997 --    68 C    0.975
   112   1 H    1.003 --    69 C    0.973
   113   1 H    1.003 --    74 C    0.971
   114   1 H    0.999 --    75 C    0.967
   115   1 H    0.854 --    79 O    0.827
   116   1 H    0.999 --    81 C    0.967
   117   1 H    1.003 --    82 C    0.971
   118   1 H    1.002 --    84 C    0.973
   119   1 H    1.001 --    85 C    0.973
   120   1 H    1.001 --    90 C    0.973
   121   1 H    1.003 --    91 C    0.973
   122   1 H    1.003 --    96 C    0.971
   123   1 H    0.999 --    97 C    0.966
   124   1 H    0.855 --   101 O    0.828
   125   1 H    0.999 --   103 C    0.967
   126   1 H    1.003 --   104 C    0.971
   127   1 H    1.003 --   106 C    0.973
   128   1 H    0.997 --   107 C    0.975
   129   6 C    3.920 --   130 C    2.360   133 C    1.339   132 C    0.189
   130   6 C    3.920 --   129 C    2.360   131 C    1.339   134 C    0.189
   131   6 C    3.931 --   132 C    2.443   130 C    1.339
   132   6 C    3.885 --   131 C    2.443    24 C    1.192   129 C    0.189
   133   6 C    3.931 --   134 C    2.443   129 C    1.339
   134   6 C    3.885 --   133 C    2.443    88 C    1.192   130 C    0.189
 ---------------------------------------------------------------------------

           -------------------------------------------------
          | TOTAL ENERGY             -271.679298696565 Eh   |
          | GRADIENT NORM               0.000522980927 Eh/α |
          | HOMO-LUMO GAP               0.005720575921 eV   |
           -------------------------------------------------

 * finished run on 2022/07/30 at 07:14:00.851
