   * xtb version 6.5.1 (b24c23e) compiled by 'conda@728c89f4b128' on 2022-07-12
          program call               : xtb Zn_DHP_C2_2.xyz --gfn 1 --opt -T 48

   ID    Z sym.   atoms
    1   30 Zn     1, 59
    2    6 C      2-6, 8-11, 13-17, 19-24, 26-29, 31-36, 60-64, 66-69, 71-75,
                  77-82, 84-87, 89-94, 117, 118
    3    7 N      7, 12, 18, 25, 30, 37, 65, 70, 76, 83, 88, 95
    4    1 H      38-58, 96-116
########################################################################
[WARNING] Please study the warnings concerning your input carefully
-1- prog_main_parseArguments: Unknown option '-T' provided
########################################################################

          :  Hamiltonian                  GFN1-xTB          :
 * total energy  :  -193.3018760 Eh     change       -0.8361667E-10 Eh
 * total energy  :  -193.3917038 Eh     change       -0.8982787E-01 Eh
 * total energy  :  -193.4388446 Eh     change       -0.4714080E-01 Eh
 * total energy  :  -193.4482073 Eh     change       -0.9362621E-02 Eh
 * total energy  :  -193.4539406 Eh     change       -0.5733338E-02 Eh
 * total energy  :  -193.4571275 Eh     change       -0.3186870E-02 Eh
 * total energy  :  -193.4592911 Eh     change       -0.2163587E-02 Eh
 * total energy  :  -193.4608688 Eh     change       -0.1577737E-02 Eh
 * total energy  :  -193.4620921 Eh     change       -0.1223340E-02 Eh
 * total energy  :  -193.4630486 Eh     change       -0.9564179E-03 Eh
 * total energy  :  -193.4653598 Eh     change       -0.1239652E-04 Eh
 * total energy  :  -193.4653724 Eh     change       -0.1257859E-04 Eh
 * total energy  :  -193.4653834 Eh     change       -0.1102494E-04 Eh
 * total energy  :  -193.4653938 Eh     change       -0.1039904E-04 Eh
 * total energy  :  -193.4654054 Eh     change       -0.1161797E-04 Eh
 * total energy  :  -193.4654173 Eh     change       -0.1190334E-04 Eh
 * total energy  :  -193.4654266 Eh     change       -0.9316793E-05 Eh
 * total energy  :  -193.4654332 Eh     change       -0.6592946E-05 Eh
 * total energy  :  -193.4654382 Eh     change       -0.4967735E-05 Eh
   *** GEOMETRY OPTIMIZATION CONVERGED AFTER 37 ITERATIONS ***

 final structure:
================
118
 xtb: 6.5.1 (b24c23e)
Zn          15.17514964137547       -0.05261506457392       -0.01758668373413
C           11.76124321599202       -0.07152355121984       -0.14109830375795
C           12.39034729718418       -1.31007015558174       -0.18700736512878
C           11.71535028157846       -2.57611771886561       -0.24587387075518
C           12.67375121913578       -3.53598586081082       -0.27657028603890
C           13.94736695456829       -2.86690414050687       -0.25132315074650
N           13.73930107181261       -1.51960945669006       -0.18447571413912
C           15.19857969746366       -3.49284871333304       -0.28236804775637
C           15.22100247735918       -4.97342496206394       -0.38922473983031
C           14.70444989716961       -5.61564373992034       -1.44732069089961
C           14.70226380841031       -7.11813294478482       -1.56187420069250
N           15.63947180503373       -7.72512868098397       -0.61252470002680
C           15.98731249573133       -7.06743205334971        0.53982258965300
C           15.83959716459835       -5.73910680896334        0.68442419610902
C           16.43725838980679       -2.84325622187125       -0.22257499663218
C           17.71131415688147       -3.49575991695497       -0.32882181457240
C           18.66154412083816       -2.53095480299975       -0.23991242972838
N           16.63940731969961       -1.49573893052484       -0.08224374611379
C           17.98427290298859       -1.27953896552959       -0.07945150381883
C           18.62388149311105       -0.03153334344377        0.07636363213303
C           17.95983130212433        1.20634451264000        0.21078701848990
C           18.61137196100924        2.46369575273615        0.42276152501880
C           17.64558986506155        3.41585587162699        0.47062318060666
C           16.38795511728519        2.74976247586404        0.28439240726600
N           16.61431983956838        1.40605224752752        0.14273857958076
C           15.14060688287843        3.38477249815013        0.27084051559625
C           15.13768477821064        4.86421152669185        0.39494841757680
C           14.54724744362369        5.48714125048643        1.42547456467798
C           14.51862800084490        6.98808299353827        1.55590878981273
N           15.51019067200173        7.61660463414058        0.67848672397719
C           15.93626756345251        6.97804589958005       -0.45860105199250
C           15.81279661011873        5.65031632122231       -0.62871256881462
C           13.90187709826034        2.74582610792510        0.14686847597238
C           12.62266422173355        3.40145686001934        0.08339195954963
C           11.67993723260766        2.43207853309188       -0.02809567134326
C           12.37131371538451        1.17359960379300       -0.04514618754691
N           13.71435477564998        1.39716343679354        0.05400792608204
H           10.67631251598078       -0.07748447129892       -0.18246131784934
H           10.64392572492252       -2.70336570115342       -0.25294961812578
H           12.53453658976786       -4.60492024179753       -0.30368176882424
H           14.24522116773533       -5.08154271084490       -2.27110052891600
H           15.00254283454766       -7.42052623433730       -2.57439596446253
H           13.68256585116393       -7.51269841951932       -1.39288761936837
H           15.55490602376356       -8.72909669351736       -0.54332524547084
H           16.46749864814082       -7.68818296388025        1.28966041569545
H           16.16777141197792       -5.23001755540019        1.57963096922286
H           17.85931759626880       -4.55491951720219       -0.46502417039591
H           19.73009390877731       -2.65353420174533       -0.28655322310804
H           19.67385760446652        2.59748110629935        0.53322612053106
H           17.77222465051976        4.47489968259846        0.62757361219594
H           14.04339065568890        4.93757339210474        2.21213647014170
H           14.74635479364211        7.28235433837376        2.58945688595935
H           13.50775906916905        7.37260292385940        1.32266644599285
H           15.41827462714336        8.62032355754284        0.61568069870273
H           16.45551609266084        7.61360737701690       -1.16893933833882
H           16.20166030389396        5.15643649369679       -1.50796830242124
H           12.47041338285033        4.46863704505397        0.10992259113677
H           10.60966796627595        2.54814767788808       -0.10065528723360
Zn          26.11522939290115        0.05516499361926       -0.00589209108632
C           29.52913680833491        0.10014123777930       -0.12244804117586
C           28.90003193259315        1.31967551601159        0.09855216525796
C           29.57502825851172        2.56885290694428        0.31279388975443
C           28.61662690669309        3.51293690242398        0.48884297884331
C           27.34301147257515        2.85403020964279        0.36988777991217
N           27.55107790292367        1.52378905239553        0.14599101754300
C           26.09179840064138        3.47204905260973        0.47391929141429
C           26.06937464082007        4.94105379581127        0.68734216072902
C           26.58592993590678        5.79541353173168       -0.20824641657482
C           26.58811558568200        7.28747251816838        0.00236288835423
N           25.65090421880479        7.67655370055656        1.05986834618147
C           25.30306018892574        6.78684689811203        2.04418972819335
C           25.45077614677015        5.45844321341865        1.90031129460529
C           24.85311997889107        2.82476211110958        0.39288887358413
C           23.57906397306210        3.48486246153708        0.42916896123209
C           22.62883456560073        2.52345998145054        0.30891866713362
N           24.65097169498490        1.47853066243717        0.24071531748470
C           23.30610617772363        1.26676922489538        0.19704177209377
C           22.66649824523797        0.01440578696354        0.08135782092483
C           23.33054890622301       -1.22347345302577       -0.05305090525548
C           22.67900837862291       -2.49701846938836       -0.11589838763246
C           23.64479121849435       -3.43725931587277       -0.27352294219280
C           24.90242569534022       -2.74671698605045       -0.31244257331005
N           24.67605974594694       -1.40391940277853       -0.16238546621930
C           26.14977420184474       -3.36401758923378       -0.46197803390978
C           26.15269676692656       -4.83561383227187       -0.65831233161034
C           26.74313196972382       -5.66521791037868        0.21449027853944
C           26.77175103075389       -7.15917381525126        0.01972146364130
N           25.78019100230887       -7.58471575133385       -0.97215974706602
C           25.35411736650116       -6.71697425836670       -1.94568604515987
C           25.47758792768484       -5.38367718392731       -1.82684701636946
C           27.38850347650830       -2.71335298518422       -0.44591914124222
C           28.66771655820796       -3.34007793822426       -0.64864129391812
C           29.61044287180274       -2.36936199773825       -0.54946534458861
C           28.91906672965954       -1.13655674366067       -0.29598936390285
N           27.57602495242179       -1.37619106348334       -0.24714129161519
H           30.61406705297279        0.11484326922329       -0.16157454272435
H           30.64645273744624        2.69465431323355        0.33319661997094
H           28.75584118307423        4.56277636937851        0.69180227353163
H           27.04516154650651        5.45057591883906       -1.12746429381401
H           26.28783922404721        7.80014463648687       -0.92165601664529
H           27.60781273184977        7.63657118022568        0.25210317335697
H           25.73546895916833        8.64226977990333        1.34294603801316
H           24.82287110158417        7.23218570156709        2.90978719540672
H           25.12259950285230        4.76907283102979        2.66538251783325
H           23.43105984921917        4.54857083777568        0.52347950025756
H           21.56028476984732        2.65319297481423        0.28967451742765
H           21.61652298581568       -2.65139660593175       -0.03672229561633
H           23.51815752442543       -4.50530826211791       -0.34754191960769
H           27.24698685938927       -5.29730854672648        1.10077820690577
H           26.54402175045812       -7.66842805149390        0.96601749054105
H           27.78262057313503       -7.48466864116780       -0.29061583248317
H           25.87210814849375       -8.55156012163821       -1.24894105350651
H           24.83487062104158       -7.18525498117557       -2.77588700630663
H           25.08872587780463       -4.71258385782901       -2.57960372625921
H           28.81996786943127       -4.38808067735986       -0.85178699504107
H           30.68071231614169       -2.46715143364024       -0.64524571843102
C           20.03576626223891       -0.01812807671057        0.09338599305526
C           21.25461341664804       -0.00234099443035        0.09510200847171

          :  Hamiltonian                  GFN1-xTB          :
         :: total energy            -193.465438185076 Eh    ::
         :: gradient norm              0.000371492723 Eh/a0 ::
         :: HOMO-LUMO gap              1.006132611039 eV    ::
         :: SCC energy              -196.405409532393 Eh    ::
         :: repulsion energy           3.044916763913 Eh    ::

    * Orbital Energies and Occupations

         #    Occupation            Energy/Eh            Energy/eV
      -------------------------------------------------------------
         1        2.0000           -0.7761992             -21.1215
       ...           ...                  ...                  ...
       165        2.0000           -0.4090514             -11.1309
       166        2.0000           -0.4089926             -11.1293
       167        2.0000           -0.4087926             -11.1238
       168        2.0000           -0.4087634             -11.1230
       169        2.0000           -0.4077957             -11.0967
       170        2.0000           -0.3818080             -10.3895
       171        2.0000           -0.3817918             -10.3891
       172        2.0000           -0.3801368             -10.3440
       173        2.0000           -0.3684696             -10.0266
       174        2.0000           -0.3662056              -9.9650
       175        2.0000           -0.3662028              -9.9649
       176        2.0000           -0.3652390              -9.9387
       177        2.0000           -0.3618139              -9.8455 (HOMO)
       178                         -0.3248392              -8.8393 (LUMO)
       179                         -0.3139507              -8.5430
       180                         -0.3139431              -8.5428
       181                         -0.3074221              -8.3654
       182                         -0.2832575              -7.7078
       183                         -0.2747933              -7.4775
       184                         -0.2602933              -7.0829
       185                         -0.2602899              -7.0828
       186                         -0.2592400              -7.0543
       187                         -0.2579315              -7.0187
       188                         -0.2121819              -5.7738
       ...                                ...                  ...
       388                          1.3402232              36.4693
      -------------------------------------------------------------
                  HL-Gap            0.0369747 Eh            1.0061 eV

Wiberg/Mayer (AO) data.
largest (>0.10) Wiberg bond orders for each atom

     #   Z sym  total        # sym  WBO       # sym  WBO       # sym  WBO
 ---------------------------------------------------------------------------
     1  30 Zn   2.002 --     7 N    0.459    37 N    0.459    25 N    0.459
                            18 N    0.458
     2   6 C    3.924 --    36 C    1.356     3 C    1.356    38 H    0.972
     3   6 C    3.925 --     2 C    1.356     7 N    1.235     4 C    1.172
     4   6 C    3.960 --     5 C    1.656     3 C    1.172    39 H    0.976
     5   6 C    3.964 --     4 C    1.656     6 C    1.173    40 H    0.974
     6   6 C    3.919 --     8 C    1.317     7 N    1.242     5 C    1.173
     7   7 N    3.291 --     6 C    1.242     3 C    1.235     1 Zn   0.459
     8   6 C    3.934 --    15 C    1.320     6 C    1.317     9 C    1.025
     9   6 C    3.988 --    10 C    1.769    14 C    1.097     8 C    1.025
    10   6 C    3.971 --     9 C    1.769    11 C    1.012    41 H    0.972
    11   6 C    3.961 --    10 C    1.012    42 H    0.976    43 H    0.967
                            12 N    0.949
    12   7 N    3.245 --    13 C    1.158    11 C    0.949    44 H    0.929
                            14 C    0.127
    13   6 C    3.958 --    14 C    1.695    12 N    1.158    45 H    0.971
    14   6 C    3.968 --    13 C    1.695     9 C    1.097    46 H    0.974
                            12 N    0.127
    15   6 C    3.912 --     8 C    1.320    18 N    1.227    16 C    1.182
    16   6 C    3.960 --    17 C    1.642    15 C    1.182    47 H    0.973
    17   6 C    3.962 --    16 C    1.642    19 C    1.189    48 H    0.963
    18   7 N    3.297 --    19 C    1.259    15 C    1.227     1 Zn   0.458
    19   6 C    3.906 --    18 N    1.259    20 C    1.257    17 C    1.189
    20   6 C    3.938 --    19 C    1.257    21 C    1.256   117 C    1.182
    21   6 C    3.906 --    25 N    1.260    20 C    1.256    22 C    1.189
    22   6 C    3.962 --    23 C    1.642    21 C    1.189    49 H    0.963
    23   6 C    3.960 --    22 C    1.642    24 C    1.182    50 H    0.973
    24   6 C    3.912 --    26 C    1.320    25 N    1.226    23 C    1.182
    25   7 N    3.297 --    21 C    1.260    24 C    1.226     1 Zn   0.459
    26   6 C    3.934 --    24 C    1.320    33 C    1.317    27 C    1.025
    27   6 C    3.988 --    28 C    1.770    32 C    1.097    26 C    1.025
    28   6 C    3.971 --    27 C    1.770    29 C    1.012    51 H    0.972
    29   6 C    3.961 --    28 C    1.012    52 H    0.976    53 H    0.967
                            30 N    0.949
    30   7 N    3.244 --    31 C    1.157    29 C    0.949    54 H    0.929
                            32 C    0.127
    31   6 C    3.958 --    32 C    1.695    30 N    1.157    55 H    0.971
    32   6 C    3.969 --    31 C    1.695    27 C    1.097    56 H    0.974
                            30 N    0.127
    33   6 C    3.919 --    26 C    1.317    37 N    1.242    34 C    1.173
    34   6 C    3.964 --    35 C    1.656    33 C    1.173    57 H    0.974
    35   6 C    3.960 --    34 C    1.656    36 C    1.172    58 H    0.976
    36   6 C    3.925 --     2 C    1.356    37 N    1.234    35 C    1.172
    37   7 N    3.291 --    33 C    1.242    36 C    1.234     1 Zn   0.459
    38   1 H    1.002 --     2 C    0.972
    39   1 H    0.999 --     4 C    0.976
    40   1 H    1.007 --     5 C    0.974
    41   1 H    1.004 --    10 C    0.972
    42   1 H    1.019 --    11 C    0.976
    43   1 H    1.008 --    11 C    0.967
    44   1 H    0.964 --    12 N    0.929
    45   1 H    1.002 --    13 C    0.971
    46   1 H    1.004 --    14 C    0.974
    47   1 H    1.006 --    16 C    0.973
    48   1 H    1.008 --    17 C    0.963
    49   1 H    1.009 --    22 C    0.963
    50   1 H    1.006 --    23 C    0.973
    51   1 H    1.004 --    28 C    0.972
    52   1 H    1.019 --    29 C    0.976
    53   1 H    1.008 --    29 C    0.967
    54   1 H    0.965 --    30 N    0.929
    55   1 H    1.002 --    31 C    0.971
    56   1 H    1.004 --    32 C    0.974
    57   1 H    1.007 --    34 C    0.974
    58   1 H    0.999 --    35 C    0.976
    59  30 Zn   2.002 --    65 N    0.459    95 N    0.459    83 N    0.459
                            76 N    0.458
    60   6 C    3.924 --    94 C    1.356    61 C    1.356    96 H    0.972
    61   6 C    3.925 --    60 C    1.356    65 N    1.235    62 C    1.172
    62   6 C    3.960 --    63 C    1.656    61 C    1.172    97 H    0.976
    63   6 C    3.964 --    62 C    1.656    64 C    1.173    98 H    0.974
    64   6 C    3.919 --    66 C    1.317    65 N    1.242    63 C    1.173
    65   7 N    3.291 --    64 C    1.242    61 C    1.235    59 Zn   0.459
    66   6 C    3.934 --    73 C    1.320    64 C    1.317    67 C    1.025
    67   6 C    3.988 --    68 C    1.769    72 C    1.097    66 C    1.025
    68   6 C    3.971 --    67 C    1.769    69 C    1.012    99 H    0.972
    69   6 C    3.961 --    68 C    1.012   100 H    0.976   101 H    0.967
                            70 N    0.949
    70   7 N    3.245 --    71 C    1.158    69 C    0.949   102 H    0.929
                            72 C    0.127
    71   6 C    3.958 --    72 C    1.695    70 N    1.158   103 H    0.971
    72   6 C    3.968 --    71 C    1.695    67 C    1.097   104 H    0.974
                            70 N    0.127
    73   6 C    3.912 --    66 C    1.320    76 N    1.227    74 C    1.182
    74   6 C    3.960 --    75 C    1.642    73 C    1.182   105 H    0.973
    75   6 C    3.962 --    74 C    1.642    77 C    1.189   106 H    0.963
    76   7 N    3.297 --    77 C    1.259    73 C    1.227    59 Zn   0.458
    77   6 C    3.906 --    76 N    1.259    78 C    1.257    75 C    1.189
    78   6 C    3.938 --    77 C    1.257    79 C    1.256   118 C    1.182
    79   6 C    3.906 --    83 N    1.260    78 C    1.256    80 C    1.189
    80   6 C    3.962 --    81 C    1.642    79 C    1.189   107 H    0.963
    81   6 C    3.960 --    80 C    1.642    82 C    1.182   108 H    0.973
    82   6 C    3.912 --    84 C    1.320    83 N    1.226    81 C    1.182
    83   7 N    3.297 --    79 C    1.260    82 C    1.226    59 Zn   0.459
    84   6 C    3.934 --    82 C    1.320    91 C    1.317    85 C    1.025
    85   6 C    3.988 --    86 C    1.770    90 C    1.097    84 C    1.025
    86   6 C    3.971 --    85 C    1.770    87 C    1.012   109 H    0.972
    87   6 C    3.961 --    86 C    1.012   110 H    0.976   111 H    0.967
                            88 N    0.949
    88   7 N    3.244 --    89 C    1.157    87 C    0.949   112 H    0.929
                            90 C    0.127
    89   6 C    3.958 --    90 C    1.695    88 N    1.157   113 H    0.971
    90   6 C    3.969 --    89 C    1.695    85 C    1.097   114 H    0.974
                            88 N    0.127
    91   6 C    3.919 --    84 C    1.317    95 N    1.242    92 C    1.173
    92   6 C    3.964 --    93 C    1.656    91 C    1.173   115 H    0.974
    93   6 C    3.960 --    92 C    1.656    94 C    1.172   116 H    0.976
    94   6 C    3.925 --    60 C    1.356    95 N    1.234    93 C    1.172
    95   7 N    3.291 --    91 C    1.242    94 C    1.234    59 Zn   0.459
    96   1 H    1.002 --    60 C    0.972
    97   1 H    0.999 --    62 C    0.976
    98   1 H    1.007 --    63 C    0.974
    99   1 H    1.004 --    68 C    0.972
   100   1 H    1.019 --    69 C    0.976
   101   1 H    1.008 --    69 C    0.967
   102   1 H    0.964 --    70 N    0.929
   103   1 H    1.002 --    71 C    0.971
   104   1 H    1.004 --    72 C    0.974
   105   1 H    1.006 --    74 C    0.973
   106   1 H    1.008 --    75 C    0.963
   107   1 H    1.009 --    80 C    0.963
   108   1 H    1.006 --    81 C    0.973
   109   1 H    1.004 --    86 C    0.972
   110   1 H    1.019 --    87 C    0.976
   111   1 H    1.008 --    87 C    0.967
   112   1 H    0.965 --    88 N    0.929
   113   1 H    1.002 --    89 C    0.971
   114   1 H    1.004 --    90 C    0.974
   115   1 H    1.007 --    92 C    0.974
   116   1 H    0.999 --    93 C    0.976
   117   6 C    3.934 --   118 C    2.575    20 C    1.182
   118   6 C    3.934 --   117 C    2.575    78 C    1.182
 ---------------------------------------------------------------------------

           -------------------------------------------------
          | TOTAL ENERGY             -193.465438185076 Eh   |
          | GRADIENT NORM               0.000371492723 Eh/α |
          | HOMO-LUMO GAP               1.006132611039 eV   |
           -------------------------------------------------

 * finished run on 2022/07/30 at 07:39:34.379
