   * xtb version 6.5.1 (b24c23e) compiled by 'conda@728c89f4b128' on 2022-07-12
          program call               : xtb Fe_PhCHO_C2_2.xyz --gfn 1 --opt -T 48

   ID    Z sym.   atoms
    1   26 Fe     1, 61
    2    6 C      2-6, 8-13, 15-19, 21-26, 28-33, 35-40, 62-66, 68-73, 75-79,
                  81-86, 88-93, 95-100, 121, 122
    3    7 N      7, 20, 27, 41, 67, 80, 87, 101
    4    8 O      14, 34, 74, 94
    5    1 H      42-60, 102-120
########################################################################
[WARNING] Please study the warnings concerning your input carefully
-1- prog_main_parseArguments: Unknown option '-T' provided
########################################################################

          :  Hamiltonian                  GFN1-xTB          :
 * total energy  :  -218.4367564 Eh     change       -0.3587928E-08 Eh
 * total energy  :  -218.5779624 Eh     change       -0.1412060E+00 Eh
 * total energy  :  -218.6335345 Eh     change       -0.5557205E-01 Eh
 * total energy  :  -218.6509246 Eh     change       -0.1739015E-01 Eh
 * total energy  :  -218.6580587 Eh     change       -0.7134090E-02 Eh
 * total energy  :  -218.6619603 Eh     change       -0.3901593E-02 Eh
 * total energy  :  -218.6636563 Eh     change       -0.1696048E-02 Eh
 * total energy  :  -218.6650419 Eh     change       -0.1385563E-02 Eh
 * total energy  :  -218.6657782 Eh     change       -0.7362778E-03 Eh
 * total energy  :  -218.6663392 Eh     change       -0.5610039E-03 Eh
 * total energy  :  -218.6675543 Eh     change       -0.1886821E-04 Eh
 * total energy  :  -218.6675562 Eh     change       -0.1844131E-05 Eh
 * total energy  :  -218.6675767 Eh     change       -0.2052055E-04 Eh
 * total energy  :  -218.6675947 Eh     change       -0.1803557E-04 Eh
 * total energy  :  -218.6676070 Eh     change       -0.1229744E-04 Eh
 * total energy  :  -218.6676264 Eh     change       -0.1938646E-04 Eh
 * total energy  :  -218.6676293 Eh     change       -0.2881880E-05 Eh
 * total energy  :  -218.6676370 Eh     change       -0.7695119E-05 Eh
 * total energy  :  -218.6676418 Eh     change       -0.4821941E-05 Eh
   *** GEOMETRY OPTIMIZATION CONVERGED AFTER 29 ITERATIONS ***

 final structure:
================
122
 xtb: 6.5.1 (b24c23e)
Fe          17.14882613304633        0.05934614652430       -0.11312754135420
C           13.76312663476741        0.10854714711269       -0.18902529136474
C           14.42564847785509        1.31839013357296       -0.16090507689624
C           13.76019486352118        2.58633677085377       -0.16581613042813
C           14.71722989417002        3.52723901073084        0.01058368048404
C           15.96865869114334        2.83278277329411        0.10870350617229
N           15.77787443214349        1.48324446667163       -0.01200631667699
C           17.18159456550923        3.44891339189227        0.39778313359042
C           17.19976170858310        4.91536437020319        0.61105791934794
C           17.52919949185749        5.44226330980867        1.86288999626832
C           17.54818275152417        6.80983572576865        2.05936813381241
C           17.24467609118665        7.67995656764224        1.00725530224358
C           17.27560214957323        9.13586924584552        1.24186401336886
O           17.54137563783137        9.63605646329789        2.30426752252572
C           16.91842698333743        7.15350342903092       -0.24464296193883
C           16.89337696287806        5.78377819439369       -0.43950714290604
C           18.38078431899814        2.75548894581392        0.47972186907749
C           19.64734899699683        3.37942045667797        0.72289779891368
C           20.59054221884144        2.41987263058042        0.56894726560968
N           18.55217926204348        1.41820054713280        0.21051783239803
C           19.90067451007982        1.21523106310820        0.22918971859355
C           20.55475154820503        0.01822325399721       -0.08588940766382
C           19.87059959278048       -1.17126566838704       -0.36181817236848
C           20.52646000376130       -2.39512582924262       -0.69961574463666
C           19.56508588848735       -3.34762240337923       -0.76488693800088
C           18.32208187109665       -2.69887834050599       -0.47212292460719
N           18.52247412705690       -1.35646604083882       -0.26283638763558
C           17.10237300843151       -3.35867921739094       -0.39355746564418
C           17.09175187165075       -4.83343184756477       -0.52137243216164
C           16.40225477126157       -5.45021403896802       -1.56886282405638
C           16.40081356812141       -6.82846386544947       -1.69049416433175
C           17.08399313138781       -7.61766016166291       -0.76230429501945
C           17.09645852103310       -9.08861057515394       -0.86891005444310
O           17.66997497515669       -9.81018267458203       -0.09423399863782
C           17.77174163869838       -7.00060355136774        0.28781023458250
C           17.77902388537436       -5.62409805839347        0.40471102963681
C           15.89450465115169       -2.69162433682608       -0.22123377176391
C           14.61958842493776       -3.34396373723253       -0.13580384853192
C           13.68259033627102       -2.36753003874420       -0.10191910106546
C           14.38672282849361       -1.12147752663472       -0.14412662413275
N           15.74023050645265       -1.33213315459988       -0.17505148903009
H           12.67987529079644        0.12551414256502       -0.22959171231076
H           12.69549871227711        2.71814306593234       -0.27465985584141
H           14.59684127626454        4.59589406418995        0.08313513675065
H           17.75586806076418        4.76905814856644        2.68178582274719
H           17.79813884678587        7.22808156543421        3.02846944535409
H           17.02870350718583        9.74694629196945        0.34763671373138
H           16.68532024103193        7.82189796303873       -1.06710863785426
H           16.65156554731064        5.37716809322518       -1.41499270349357
H           19.78891507688631        4.42086447994346        0.96084672051278
H           21.65958062689226        2.50829938247192        0.67112085580252
H           21.58600675802439       -2.49893537937670       -0.86677519048885
H           19.67621519084458       -4.39285555620348       -1.00307781171610
H           15.88252850561539       -4.83963133880980       -2.29856070150427
H           15.86895255381557       -7.29922685327919       -2.51090582537020
H           16.52568946492534       -9.48775458254321       -1.73431125150433
H           18.29714506251857       -7.62167424073830        1.00530237159709
H           18.30500201075325       -5.14811534695827        1.22451197198119
H           14.47307895924882       -4.41141573156392       -0.10604160049550
H           12.60975186297866       -2.46254457641084       -0.04890215536896
Fe          27.98893144286662       -0.04263121304263       -0.12041494300090
C           31.37464288995777       -0.08052414579073       -0.20256797481823
C           30.71212156731685       -1.28204461167447       -0.34699073945145
C           31.37757604031923       -2.53637612044772       -0.53236329606266
C           30.42053336579062       -3.49280313609101       -0.49174992574307
C           29.16910533819382       -2.81939151211180       -0.29575693636443
N           29.35989569120463       -1.46641709952025       -0.22307312297976
C           27.95616183922122       -3.47041089942234       -0.09740756847105
C           27.93799814150617       -4.95228878072195       -0.09514629380883
C           27.60852165966709       -5.65208952577992        1.06887965041386
C           27.58950217191144       -7.03370293345311        1.06858741647773
C           27.89321494126609       -7.74512915997606       -0.09666141836405
C           27.86311637423461       -9.21964772661353       -0.07156493578724
O           27.59618753492423       -9.86598951117320        0.90846859826137
C           28.21941427684133       -7.04575566498291       -1.26084151486360
C           28.24440312403049       -5.66223731625596       -1.25867093538249
C           26.75696558182993       -2.79572893506871        0.08240969091168
C           25.49039817468815       -3.44793198602508        0.23424461361532
C           24.54721104556633       -2.47623371823183        0.21851267573582
N           26.58557544309947       -1.43373378440500        0.00639143441821
C           25.23708229368117       -1.23548682647580        0.05377399833584
C           24.58300874097544       -0.00580422674873       -0.08761562392563
C           25.26715721942568        1.21085964347425       -0.19133361898717
C           24.61129545639495        2.47035480440521       -0.35138652761028
C           25.57266990610978        3.42243803988894       -0.28034437362094
C           26.81567701849299        2.73861118706767       -0.08297825671060
N           26.61528287348014        1.38007615902027       -0.06699473314166
C           28.03539073594822        3.38049347398701        0.08873003537898
C           28.04600643812666        4.85841868975916        0.17225203247010
C           28.73545437150437        5.61809810891720       -0.77674699334090
C           28.73691187560355        6.99962107591924       -0.70083444234251
C           28.05375939132714        7.64857718897046        0.33031444607622
C           28.04135234057205        9.11971191039719        0.43431682053736
O           27.46756463793364        9.72361607168110        1.30365718018140
C           27.36603926665184        6.88825367149092        1.28185146338807
C           27.35877548944574        5.50913012461798        1.20153158633673
C           29.24325887716819        2.69569568635685        0.16430333966857
C           30.51817890785212        3.32923120959364        0.34169094512180
C           31.45517701287261        2.35792036158044        0.23620422111712
C           30.75104255250678        1.13057019622996        0.01703274028924
N           29.39753426500551        1.34347826295434        0.01645705592294
H           32.45789599786340       -0.09153876519275       -0.24512835526652
H           32.44227775800656       -2.65135015987201       -0.65881619165194
H           30.54091071417110       -4.56090164854183       -0.57209356254956
H           27.38184647363054       -5.10236469058803        1.97529874092138
H           27.33965463684204       -7.58569884123567        1.96827905242787
H           28.10820198644901       -9.69706816496353       -1.04417992499793
H           28.45259137720828       -7.59021182591849       -2.17009216450219
H           28.48619522924810       -5.12084996568558       -2.16631277707748
H           25.34882378105979       -4.51264709262229        0.32147288280379
H           23.47817361487245       -2.57830406005432        0.30706088820068
H           23.55174700402878        2.59691607064773       -0.50204604374584
H           25.46153784634911        4.49094081620466       -0.36723133734435
H           29.25512679533979        5.11766092925671       -1.58600021771704
H           29.26874225858892        7.58242563501577       -1.44585627082288
H           28.61211083939810        9.63803317736800       -0.36544503935260
H           26.84067051561597        7.40080632372971        2.08051043372778
H           26.83284291423250        4.92124630231674        1.94522034294372
H           30.66468577402338        4.38157451609629        0.52311066069711
H           32.52801871248650        2.44442193912998        0.30215293272738
C           21.95974026800514        0.00719667023607       -0.10173210560126
C           23.17802070648836        0.00736323393703       -0.10172015756520

          :  Hamiltonian                  GFN1-xTB          :
         :: total energy            -218.667641811153 Eh    ::
         :: gradient norm              0.000567403974 Eh/a0 ::
         :: HOMO-LUMO gap              0.099920627200 eV    ::
         :: SCC energy              -221.968135608320 Eh    ::
         :: repulsion energy           3.412618450567 Eh    ::

    * Orbital Energies and Occupations

         #    Occupation            Energy/Eh            Energy/eV
      -------------------------------------------------------------
         1        2.0000           -0.7936135             -21.5953
       ...           ...                  ...                  ...
       187        2.0000           -0.4428976             -12.0519
       188        2.0000           -0.4408251             -11.9955
       189        2.0000           -0.4408100             -11.9950
       190        2.0000           -0.4138507             -11.2615
       191        2.0000           -0.4106935             -11.1755
       192        2.0000           -0.4106928             -11.1755
       193        1.9925           -0.4031168             -10.9694
       194        1.9918           -0.4030317             -10.9670
       195        1.9443           -0.4011914             -10.9170
       196        1.9424           -0.4011586             -10.9161
       197        1.9352           -0.4010427             -10.9129
       198        1.9351           -0.4010413             -10.9129
       199        1.7809           -0.3998062             -10.8793 (HOMO)
       200        0.2912           -0.3961342             -10.7794 (LUMO)
       201        0.1864           -0.3956541             -10.7663
       202                         -0.3524760              -9.5914
       203                         -0.3446451              -9.3783
       204                         -0.3446418              -9.3782
       205                         -0.3356999              -9.1349
       206                         -0.3292546              -8.9595
       207                         -0.3284820              -8.9385
       208                         -0.3243079              -8.8249
       209                         -0.3242983              -8.8246
       210                         -0.3148771              -8.5682
       ...                                ...                  ...
       422                          1.3213517              35.9558
      -------------------------------------------------------------
                  HL-Gap            0.0036720 Eh            0.0999 eV

Wiberg/Mayer (AO) data.
largest (>0.10) Wiberg bond orders for each atom

     #   Z sym  total        # sym  WBO       # sym  WBO       # sym  WBO
 ---------------------------------------------------------------------------
     1  26 Fe   3.187 --    41 N    0.675    20 N    0.669     7 N    0.668
                            27 N    0.662
     2   6 C    3.927 --     3 C    1.363    40 C    1.362    42 H    0.970
     3   6 C    3.923 --     2 C    1.363     7 N    1.209     4 C    1.172
     4   6 C    3.959 --     5 C    1.651     3 C    1.172    43 H    0.975
     5   6 C    3.961 --     4 C    1.651     6 C    1.174    44 H    0.973
     6   6 C    3.920 --     8 C    1.312     7 N    1.225     5 C    1.174
     7   7 N    3.381 --     6 C    1.225     3 C    1.209     1 Fe   0.668
     8   6 C    3.927 --    17 C    1.334     6 C    1.312     9 C    1.026
     9   6 C    3.986 --    16 C    1.385    10 C    1.383     8 C    1.026
    10   6 C    3.987 --    11 C    1.469     9 C    1.383    45 H    0.972
                            15 C    0.101
    11   6 C    3.988 --    10 C    1.469    12 C    1.371    46 H    0.967
                            16 C    0.101
    12   6 C    3.984 --    15 C    1.380    11 C    1.371    13 C    1.047
    13   6 C    3.864 --    14 O    1.811    12 C    1.047    47 H    0.942
    14   8 O    2.006 --    13 C    1.811
    15   6 C    3.993 --    16 C    1.464    12 C    1.380    48 H    0.971
                            10 C    0.101
    16   6 C    3.987 --    15 C    1.464     9 C    1.385    49 H    0.972
                            11 C    0.101
    17   6 C    3.916 --     8 C    1.334    20 N    1.200    18 C    1.179
    18   6 C    3.956 --    19 C    1.639    17 C    1.179    50 H    0.972
    19   6 C    3.961 --    18 C    1.639    21 C    1.188    51 H    0.969
    20   7 N    3.383 --    21 C    1.244    17 C    1.200     1 Fe   0.669
    21   6 C    3.908 --    22 C    1.255    20 N    1.244    19 C    1.188
    22   6 C    3.927 --    23 C    1.256    21 C    1.255   121 C    1.190
    23   6 C    3.909 --    22 C    1.256    27 N    1.241    24 C    1.189
    24   6 C    3.960 --    25 C    1.636    23 C    1.189    52 H    0.969
    25   6 C    3.957 --    24 C    1.636    26 C    1.181    53 H    0.973
    26   6 C    3.917 --    28 C    1.326    27 N    1.205    25 C    1.181
    27   7 N    3.381 --    23 C    1.241    26 C    1.205     1 Fe   0.662
    28   6 C    3.928 --    26 C    1.326    37 C    1.315    29 C    1.033
    29   6 C    3.986 --    30 C    1.383    36 C    1.380    28 C    1.033
    30   6 C    3.987 --    31 C    1.465    29 C    1.383    54 H    0.972
                            35 C    0.101
    31   6 C    3.993 --    30 C    1.465    32 C    1.379    55 H    0.971
                            36 C    0.100
    32   6 C    3.983 --    31 C    1.379    35 C    1.370    33 C    1.048
    33   6 C    3.864 --    34 O    1.810    32 C    1.048    56 H    0.942
    34   8 O    2.006 --    33 C    1.810
    35   6 C    3.988 --    36 C    1.471    32 C    1.370    57 H    0.967
                            30 C    0.101
    36   6 C    3.987 --    35 C    1.471    29 C    1.380    58 H    0.972
                            31 C    0.100
    37   6 C    3.921 --    28 C    1.315    41 N    1.223    38 C    1.174
    38   6 C    3.961 --    39 C    1.650    37 C    1.174    59 H    0.973
    39   6 C    3.959 --    38 C    1.650    40 C    1.173    60 H    0.975
    40   6 C    3.923 --     2 C    1.362    41 N    1.210    39 C    1.173
    41   7 N    3.384 --    37 C    1.223    40 C    1.210     1 Fe   0.675
    42   1 H    1.000 --     2 C    0.970
    43   1 H    0.997 --     4 C    0.975
    44   1 H    1.004 --     5 C    0.973
    45   1 H    1.003 --    10 C    0.972
    46   1 H    1.004 --    11 C    0.967
    47   1 H    1.010 --    13 C    0.942
    48   1 H    1.000 --    15 C    0.971
    49   1 H    1.003 --    16 C    0.972
    50   1 H    1.004 --    18 C    0.972
    51   1 H    1.005 --    19 C    0.969
    52   1 H    1.005 --    24 C    0.969
    53   1 H    1.003 --    25 C    0.973
    54   1 H    1.004 --    30 C    0.972
    55   1 H    1.000 --    31 C    0.971
    56   1 H    1.010 --    33 C    0.942
    57   1 H    1.004 --    35 C    0.967
    58   1 H    1.003 --    36 C    0.972
    59   1 H    1.004 --    38 C    0.973
    60   1 H    0.997 --    39 C    0.975
    61  26 Fe   3.187 --   101 N    0.675    80 N    0.669    67 N    0.668
                            87 N    0.662
    62   6 C    3.927 --    63 C    1.363   100 C    1.362   102 H    0.970
    63   6 C    3.923 --    62 C    1.363    67 N    1.209    64 C    1.172
    64   6 C    3.959 --    65 C    1.651    63 C    1.172   103 H    0.975
    65   6 C    3.961 --    64 C    1.651    66 C    1.174   104 H    0.973
    66   6 C    3.920 --    68 C    1.312    67 N    1.225    65 C    1.174
    67   7 N    3.381 --    66 C    1.225    63 C    1.209    61 Fe   0.668
    68   6 C    3.927 --    77 C    1.334    66 C    1.312    69 C    1.026
    69   6 C    3.986 --    76 C    1.385    70 C    1.383    68 C    1.026
    70   6 C    3.987 --    71 C    1.469    69 C    1.383   105 H    0.972
                            75 C    0.101
    71   6 C    3.988 --    70 C    1.469    72 C    1.371   106 H    0.967
                            76 C    0.101
    72   6 C    3.984 --    75 C    1.380    71 C    1.371    73 C    1.047
    73   6 C    3.864 --    74 O    1.811    72 C    1.047   107 H    0.942
    74   8 O    2.006 --    73 C    1.811
    75   6 C    3.993 --    76 C    1.464    72 C    1.380   108 H    0.971
                            70 C    0.101
    76   6 C    3.987 --    75 C    1.464    69 C    1.385   109 H    0.972
                            71 C    0.101
    77   6 C    3.916 --    68 C    1.334    80 N    1.200    78 C    1.179
    78   6 C    3.956 --    79 C    1.639    77 C    1.179   110 H    0.972
    79   6 C    3.961 --    78 C    1.639    81 C    1.188   111 H    0.969
    80   7 N    3.383 --    81 C    1.244    77 C    1.200    61 Fe   0.669
    81   6 C    3.908 --    82 C    1.255    80 N    1.244    79 C    1.188
    82   6 C    3.927 --    83 C    1.256    81 C    1.255   122 C    1.190
    83   6 C    3.909 --    82 C    1.256    87 N    1.241    84 C    1.189
    84   6 C    3.960 --    85 C    1.636    83 C    1.189   112 H    0.969
    85   6 C    3.957 --    84 C    1.636    86 C    1.181   113 H    0.973
    86   6 C    3.917 --    88 C    1.326    87 N    1.205    85 C    1.181
    87   7 N    3.381 --    83 C    1.241    86 C    1.205    61 Fe   0.662
    88   6 C    3.928 --    86 C    1.326    97 C    1.315    89 C    1.033
    89   6 C    3.986 --    90 C    1.383    96 C    1.380    88 C    1.033
    90   6 C    3.987 --    91 C    1.465    89 C    1.383   114 H    0.972
                            95 C    0.101
    91   6 C    3.993 --    90 C    1.465    92 C    1.379   115 H    0.971
                            96 C    0.100
    92   6 C    3.983 --    91 C    1.379    95 C    1.370    93 C    1.048
    93   6 C    3.864 --    94 O    1.810    92 C    1.048   116 H    0.942
    94   8 O    2.006 --    93 C    1.810
    95   6 C    3.988 --    96 C    1.471    92 C    1.370   117 H    0.967
                            90 C    0.101
    96   6 C    3.987 --    95 C    1.471    89 C    1.380   118 H    0.972
                            91 C    0.100
    97   6 C    3.921 --    88 C    1.315   101 N    1.223    98 C    1.174
    98   6 C    3.961 --    99 C    1.650    97 C    1.174   119 H    0.973
    99   6 C    3.959 --    98 C    1.650   100 C    1.173   120 H    0.975
   100   6 C    3.923 --    62 C    1.362   101 N    1.210    99 C    1.173
   101   7 N    3.384 --    97 C    1.223   100 C    1.210    61 Fe   0.675
   102   1 H    1.000 --    62 C    0.970
   103   1 H    0.997 --    64 C    0.975
   104   1 H    1.004 --    65 C    0.973
   105   1 H    1.003 --    70 C    0.972
   106   1 H    1.004 --    71 C    0.967
   107   1 H    1.010 --    73 C    0.942
   108   1 H    1.000 --    75 C    0.971
   109   1 H    1.003 --    76 C    0.972
   110   1 H    1.004 --    78 C    0.972
   111   1 H    1.005 --    79 C    0.969
   112   1 H    1.005 --    84 C    0.969
   113   1 H    1.003 --    85 C    0.973
   114   1 H    1.004 --    90 C    0.972
   115   1 H    1.000 --    91 C    0.971
   116   1 H    1.010 --    93 C    0.942
   117   1 H    1.004 --    95 C    0.967
   118   1 H    1.003 --    96 C    0.972
   119   1 H    1.004 --    98 C    0.973
   120   1 H    0.997 --    99 C    0.975
   121   6 C    3.925 --   122 C    2.554    22 C    1.190
   122   6 C    3.925 --   121 C    2.554    82 C    1.190
 ---------------------------------------------------------------------------

           -------------------------------------------------
          | TOTAL ENERGY             -218.667641811153 Eh   |
          | GRADIENT NORM               0.000567403974 Eh/α |
          | HOMO-LUMO GAP               0.099920627200 eV   |
           -------------------------------------------------

 * finished run on 2022/07/29 at 16:00:09.976
