   * xtb version 6.5.1 (b24c23e) compiled by 'conda@728c89f4b128' on 2022-07-12
          program call               : xtb Zn_PhCN_C2_2.xyz --gfn 1 --opt -T 48

   ID    Z sym.   atoms
    1   30 Zn     1, 59
    2    6 C      2-6, 8-13, 15-19, 21-26, 28-33, 35-40, 60-64, 66-71, 73-77,
                  79-84, 86-91, 93-98, 117, 118
    3    7 N      7, 14, 20, 27, 34, 41, 65, 72, 78, 85, 92, 99
    4    1 H      42-58, 100-116
########################################################################
[WARNING] Please study the warnings concerning your input carefully
-1- prog_main_parseArguments: Unknown option '-T' provided
########################################################################

          :  Hamiltonian                  GFN1-xTB          :
 * total energy  :  -205.8517217 Eh     change       -0.2907825E-09 Eh
 * total energy  :  -205.9247374 Eh     change       -0.7301572E-01 Eh
 * total energy  :  -205.9647665 Eh     change       -0.4002915E-01 Eh
 * total energy  :  -205.9737295 Eh     change       -0.8962923E-02 Eh
 * total energy  :  -205.9796648 Eh     change       -0.5935370E-02 Eh
 * total energy  :  -205.9830109 Eh     change       -0.3346083E-02 Eh
 * total energy  :  -205.9843275 Eh     change       -0.1316583E-02 Eh
 * total energy  :  -205.9863832 Eh     change       -0.2055703E-02 Eh
 * total energy  :  -205.9873018 Eh     change       -0.9185614E-03 Eh
 * total energy  :  -205.9883110 Eh     change       -0.1009210E-02 Eh
 * total energy  :  -205.9918990 Eh     change       -0.1485379E-04 Eh
 * total energy  :  -205.9919150 Eh     change       -0.1602856E-04 Eh
 * total energy  :  -205.9919266 Eh     change       -0.1160688E-04 Eh
 * total energy  :  -205.9919353 Eh     change       -0.8651755E-05 Eh
 * total energy  :  -205.9919417 Eh     change       -0.6426170E-05 Eh
 * total energy  :  -205.9919484 Eh     change       -0.6663815E-05 Eh
 * total energy  :  -205.9919555 Eh     change       -0.7112904E-05 Eh
 * total energy  :  -205.9919613 Eh     change       -0.5855952E-05 Eh
 * total energy  :  -205.9919653 Eh     change       -0.3965158E-05 Eh
   *** GEOMETRY OPTIMIZATION CONVERGED AFTER 38 ITERATIONS ***

 final structure:
================
118
 xtb: 6.5.1 (b24c23e)
Zn          18.15914034470214        0.03786598541375       -0.00439716627092
C           14.75090287687671        0.05538953591060        0.13368568992548
C           15.38420780131672        1.27826651887830        0.31906790776351
C           14.71379269409970        2.53087430338709        0.52996061638763
C           15.67531871449859        3.47693157223692        0.67088033089090
C           16.94652653041701        2.81104162074863        0.55817023213142
N           16.73422761538908        1.48247921939693        0.33423700145257
C           18.19978281572994        3.42972818327081        0.64235489136140
C           18.21764427661729        4.88408046840991        0.93246665407452
C           17.67715495883060        5.37402357340951        2.12397447579709
C           17.69567042355012        6.72867986363760        2.40283479114356
C           18.25366987274773        7.62524111652112        1.48647028271853
C           18.27356346529413        9.01989953797192        1.77017337531926
N           18.29012728200042       10.14712103462313        2.00136858968864
C           18.79245734291692        7.14109076729577        0.29062679695785
C           18.77532821514960        5.78431794337401        0.02137945846400
C           19.43735336066801        2.79424965310729        0.48595058362194
C           20.71881446110470        3.42546194822013        0.64101973560104
C           21.66178951851890        2.47225362381587        0.43005524224416
N           19.62671306339715        1.46995224711412        0.19638651001142
C           20.96892447145940        1.24915591919896        0.14959068953309
C           21.59490262589237        0.01630513656947       -0.11899483972704
C           20.93608724761093       -1.20577431198759       -0.35663665469538
C           21.59280574574834       -2.43527590270240       -0.69046823117312
C           20.62557917267412       -3.37535185494440       -0.84303964810669
C           19.36587867754141       -2.73027718188552       -0.59475885642401
N           19.59103197914451       -1.40948705572245       -0.31483750146758
C           18.11313792909265       -3.35240374840706       -0.65648405986724
C           18.09279729277335       -4.80700207595242       -0.94440441388376
C           17.44865366638996       -5.29430633093805       -2.08440461585783
C           17.42901300757321       -6.64987755428944       -2.35881544949668
C           18.05302156583623       -7.55004107115016       -1.48976908952896
C           18.03337026718762       -8.94559196237217       -1.76893075725927
N           18.01862002297217      -10.07341563300552       -1.99729046376570
C           18.69647955207263       -7.06851431121907       -0.34568247384448
C           18.71615942120215       -5.71100702110806       -0.08066698192538
C           16.87692349083707       -2.72114335674718       -0.47171717891289
C           15.59409140145859       -3.37414527928523       -0.48027578482587
C           14.65691161061894       -2.41890809967171       -0.25982434138973
C           15.35483457101981       -1.17335416534940       -0.10364375843094
N           16.69695978723185       -1.39087893300110       -0.23005819539552
H           13.66627084978034        0.06057248616066        0.17897200682128
H           13.64306188134826        2.65943910407647        0.55613856894772
H           15.54016863626825        4.53559042560334        0.82460079886099
H           17.25515914163191        4.68079597203924        2.84294577270583
H           17.28021863509791        7.09988978685552        3.33243380358512
H           19.22195859296137        7.83349022562502       -0.42396457887353
H           19.18343446041171        5.41420996924282       -0.91243555252501
H           20.87627821113947        4.46122793985626        0.89537040745915
H           22.73371101489496        2.58022806954043        0.47186314459334
H           22.65781788968088       -2.55537622498109       -0.80805454713991
H           20.75240407671164       -4.41084377269250       -1.11498422271851
H           16.97487604367777       -4.59859952824840       -2.76786748297150
H           16.93219193314573       -7.01911864866142       -3.24843093817554
H           19.17777232135696       -7.76354005826490        0.33245590085584
H           19.20517713700582       -5.34299715290472        0.81432383197647
H           15.43594149780207       -4.43109858014412       -0.62336856551019
H           13.58640744359265       -2.53683149400181       -0.19827025975278
Zn          29.06807716772811       -0.03804043242948       -0.00224061343654
C           32.47640494900954       -0.04779053790454        0.13631551871426
C           31.84320412117238       -1.25880743695315        0.38799533616619
C           32.51373317136392       -2.49794972931221        0.66704733740614
C           31.55230438008488       -3.43512705680863        0.85872707433959
C           30.28103709948199       -2.77652327370956        0.70971409217134
N           30.49320788640634       -1.46204876034193        0.41407460492151
C           29.02783892134646       -3.38980675359326        0.82764267516569
C           29.01027932963025       -4.82634516941565        1.19594972998825
C           29.55152114732762       -5.25143578335523        2.41178678206963
C           29.53335995850973       -6.58914535633957        2.76310796036093
C           28.97485943318086       -7.53373833020200        1.89667726725587
C           28.95453196526559       -8.91108179378896        2.25510685266207
N           28.93616503456210      -10.02434993261728        2.54614382000183
C           28.43551888441995       -7.11469325327098        0.67673273957373
C           28.45232358714428       -5.77437744722428        0.33489083665224
C           27.79018766206189       -2.76382214468002        0.63720633967958
C           26.50878236470322       -3.38574314162946        0.82649499334972
C           25.56571166306738       -2.44550380300481        0.56401300836992
N           27.60069121593731       -1.45721502296980        0.27614605510676
C           26.25845571156235       -1.23939474744806        0.21744655657353
C           25.63235997362528       -0.02299864486318       -0.11769650794850
C           26.29102270703902        1.18450200520134       -0.42122905205420
C           25.63416836082062        2.39414581944718       -0.82090313859170
C           26.60129238562978        3.32471645977038       -1.02405081781912
C           27.86106784003740        2.69406048378862       -0.74153147813208
N           27.63605654038980        1.39028963809438       -0.39063103886825
C           29.11378245635241        3.31187857987219       -0.83713947104432
C           29.13455464338763        4.74872691297602       -1.20355042884182
C           29.77842973809184        5.17295114037080       -2.36867159679485
C           29.79937467746642        6.51165223402858       -2.71602296672696
C           29.17697853545351        7.45818276662023       -1.89650050586226
C           29.19772128333869        8.83668417004703       -2.25033290874892
N           29.21286086864963        9.95111380578070       -2.53717341644011
C           28.53375093685362        7.03994108157843       -0.72767288298789
C           28.51270883680339        5.69875665489028       -0.38961684991034
C           30.35003941336294        2.69155667263809       -0.61865771248664
C           31.63281831777716        3.34321871639572       -0.66296997606328
C           32.57012377645017        2.40141956681862       -0.39122840725926
C           31.87232847195772        1.16615577170904       -0.16745645955982
N           30.53015688072869        1.37639180861352       -0.30521012642359
H           33.56103900146807       -0.05041922759349        0.18166033263585
H           33.58445741139009       -2.62460914491906        0.70111179343983
H           31.68760256876834       -4.48381573469595        1.06989803535642
H           29.97376346111781       -4.52052094437035        3.09226635166149
H           29.94946945986439       -6.90978195277936        3.71105371212174
H           28.00587373749066       -7.84459547157589        0.00058140362024
H           28.04374182060052       -5.45506052786304       -0.61728108266695
H           26.35143100867254       -4.40614419060464        1.13686230526322
H           24.49379852953370       -2.55117116652252        0.61162360106377
H           24.56913508198882        2.50761830593201       -0.94472873500016
H           26.47441003589691        4.34407830485248       -1.35129844333877
H           30.25108675117790        4.44074689327913       -3.01370044224666
H           30.29611008565261        6.83168213705767       -3.62455043084538
H           28.05383948812501        7.77120418733334       -0.08774723689351
H           28.02392474754999        5.38026450213118        0.52429163244353
H           31.79087140049431        4.39085713234375       -0.86322938541003
H           33.64063147884642        2.52258144441920       -0.33646020350553
C           23.00529138017886        0.00244010646247       -0.14046658738109
C           24.22196834627365       -0.01045383126314       -0.13990132583858

          :  Hamiltonian                  GFN1-xTB          :
         :: total energy            -205.991965292165 Eh    ::
         :: gradient norm              0.000307813931 Eh/a0 ::
         :: HOMO-LUMO gap              1.125394666155 eV    ::
         :: SCC energy              -209.435381497380 Eh    ::
         :: repulsion energy           3.553119495317 Eh    ::

    * Orbital Energies and Occupations

         #    Occupation            Energy/Eh            Energy/eV
      -------------------------------------------------------------
         1        2.0000           -0.7702895             -20.9606
       ...           ...                  ...                  ...
       177        2.0000           -0.4406313             -11.9902
       178        2.0000           -0.4321919             -11.7605
       179        2.0000           -0.4321769             -11.7601
       180        2.0000           -0.4315398             -11.7428
       181        2.0000           -0.4315041             -11.7418
       182        2.0000           -0.4314607             -11.7406
       183        2.0000           -0.4312530             -11.7350
       184        2.0000           -0.4312443             -11.7348
       185        2.0000           -0.4300650             -11.7027
       186        2.0000           -0.4039162             -10.9911
       187        2.0000           -0.4039125             -10.9910
       188        2.0000           -0.4008141             -10.9067
       189        2.0000           -0.3874417             -10.5428 (HOMO)
       190                         -0.3460842              -9.4174 (LUMO)
       191                         -0.3384118              -9.2087
       192                         -0.3384082              -9.2086
       193                         -0.3302854              -8.9875
       194                         -0.3108676              -8.4591
       195                         -0.3075507              -8.3689
       196                         -0.3012692              -8.1980
       197                         -0.3012610              -8.1977
       198                         -0.2956712              -8.0456
       199                         -0.2904280              -7.9029
       200                         -0.2813197              -7.6551
       ...                                ...                  ...
       404                          1.3313391              36.2276
      -------------------------------------------------------------
                  HL-Gap            0.0413575 Eh            1.1254 eV

Wiberg/Mayer (AO) data.
largest (>0.10) Wiberg bond orders for each atom

     #   Z sym  total        # sym  WBO       # sym  WBO       # sym  WBO
 ---------------------------------------------------------------------------
     1  30 Zn   1.995 --    41 N    0.460     7 N    0.459    27 N    0.456
                            20 N    0.455
     2   6 C    3.929 --    40 C    1.358     3 C    1.358    42 H    0.971
     3   6 C    3.921 --     2 C    1.358     7 N    1.233     4 C    1.170
     4   6 C    3.960 --     5 C    1.660     3 C    1.170    43 H    0.975
     5   6 C    3.963 --     4 C    1.660     6 C    1.171    44 H    0.973
     6   6 C    3.919 --     8 C    1.314     7 N    1.245     5 C    1.171
     7   7 N    3.294 --     6 C    1.245     3 C    1.233     1 Zn   0.459
     8   6 C    3.932 --    17 C    1.319     6 C    1.314     9 C    1.032
     9   6 C    3.963 --    16 C    1.385    10 C    1.384     8 C    1.032
    10   6 C    3.987 --    11 C    1.464     9 C    1.384    45 H    0.971
                            15 C    0.102
    11   6 C    3.993 --    10 C    1.464    12 C    1.363    46 H    0.972
                            16 C    0.102
    12   6 C    3.984 --    15 C    1.364    11 C    1.363    13 C    1.099
    13   6 C    3.957 --    14 N    2.819    12 C    1.099
    14   7 N    2.972 --    13 C    2.819
    15   6 C    3.993 --    16 C    1.464    12 C    1.364    47 H    0.972
                            10 C    0.102
    16   6 C    3.987 --    15 C    1.464     9 C    1.385    48 H    0.971
                            11 C    0.102
    17   6 C    3.913 --     8 C    1.319    20 N    1.229    18 C    1.179
    18   6 C    3.960 --    19 C    1.646    17 C    1.179    49 H    0.973
    19   6 C    3.962 --    18 C    1.646    21 C    1.186    50 H    0.971
    20   7 N    3.296 --    21 C    1.259    17 C    1.229     1 Zn   0.455
    21   6 C    3.907 --    22 C    1.261    20 N    1.259    19 C    1.186
    22   6 C    3.940 --    21 C    1.261    23 C    1.261   117 C    1.174
    23   6 C    3.907 --    22 C    1.261    27 N    1.259    24 C    1.186
    24   6 C    3.962 --    25 C    1.645    23 C    1.186    51 H    0.971
    25   6 C    3.960 --    24 C    1.645    26 C    1.179    52 H    0.973
    26   6 C    3.913 --    28 C    1.319    27 N    1.229    25 C    1.179
    27   7 N    3.297 --    23 C    1.259    26 C    1.229     1 Zn   0.456
    28   6 C    3.932 --    26 C    1.319    37 C    1.314    29 C    1.032
    29   6 C    3.963 --    36 C    1.384    30 C    1.384    28 C    1.032
    30   6 C    3.987 --    31 C    1.464    29 C    1.384    53 H    0.971
                            35 C    0.102
    31   6 C    3.993 --    30 C    1.464    32 C    1.363    54 H    0.972
                            36 C    0.102
    32   6 C    3.984 --    35 C    1.364    31 C    1.363    33 C    1.099
    33   6 C    3.957 --    34 N    2.819    32 C    1.099
    34   7 N    2.972 --    33 C    2.819
    35   6 C    3.993 --    36 C    1.464    32 C    1.364    55 H    0.972
                            30 C    0.102
    36   6 C    3.987 --    35 C    1.464    29 C    1.384    56 H    0.971
                            31 C    0.102
    37   6 C    3.919 --    28 C    1.314    41 N    1.245    38 C    1.171
    38   6 C    3.963 --    39 C    1.660    37 C    1.171    57 H    0.973
    39   6 C    3.960 --    38 C    1.660    40 C    1.170    58 H    0.975
    40   6 C    3.921 --     2 C    1.358    41 N    1.233    39 C    1.170
    41   7 N    3.294 --    37 C    1.245    40 C    1.233     1 Zn   0.460
    42   1 H    1.001 --     2 C    0.971
    43   1 H    0.998 --     4 C    0.975
    44   1 H    1.004 --     5 C    0.973
    45   1 H    1.004 --    10 C    0.971
    46   1 H    1.000 --    11 C    0.972
    47   1 H    1.000 --    15 C    0.972
    48   1 H    1.004 --    16 C    0.971
    49   1 H    1.004 --    18 C    0.973
    50   1 H    1.005 --    19 C    0.971
    51   1 H    1.005 --    24 C    0.971
    52   1 H    1.004 --    25 C    0.973
    53   1 H    1.004 --    30 C    0.971
    54   1 H    1.000 --    31 C    0.972
    55   1 H    1.000 --    35 C    0.972
    56   1 H    1.004 --    36 C    0.971
    57   1 H    1.004 --    38 C    0.973
    58   1 H    0.998 --    39 C    0.975
    59  30 Zn   1.995 --    99 N    0.460    65 N    0.459    85 N    0.455
                            78 N    0.455
    60   6 C    3.929 --    98 C    1.358    61 C    1.358   100 H    0.971
    61   6 C    3.921 --    60 C    1.358    65 N    1.233    62 C    1.170
    62   6 C    3.960 --    63 C    1.660    61 C    1.170   101 H    0.975
    63   6 C    3.963 --    62 C    1.660    64 C    1.171   102 H    0.973
    64   6 C    3.919 --    66 C    1.314    65 N    1.245    63 C    1.171
    65   7 N    3.294 --    64 C    1.245    61 C    1.233    59 Zn   0.459
    66   6 C    3.932 --    75 C    1.319    64 C    1.314    67 C    1.032
    67   6 C    3.963 --    74 C    1.385    68 C    1.384    66 C    1.032
    68   6 C    3.987 --    69 C    1.464    67 C    1.384   103 H    0.971
                            73 C    0.102
    69   6 C    3.993 --    68 C    1.464    70 C    1.363   104 H    0.972
                            74 C    0.102
    70   6 C    3.984 --    73 C    1.364    69 C    1.363    71 C    1.099
    71   6 C    3.957 --    72 N    2.819    70 C    1.099
    72   7 N    2.972 --    71 C    2.819
    73   6 C    3.993 --    74 C    1.464    70 C    1.364   105 H    0.972
                            68 C    0.102
    74   6 C    3.987 --    73 C    1.464    67 C    1.385   106 H    0.971
                            69 C    0.102
    75   6 C    3.913 --    66 C    1.319    78 N    1.229    76 C    1.179
    76   6 C    3.960 --    77 C    1.646    75 C    1.179   107 H    0.973
    77   6 C    3.962 --    76 C    1.646    79 C    1.186   108 H    0.971
    78   7 N    3.297 --    79 C    1.259    75 C    1.229    59 Zn   0.455
    79   6 C    3.907 --    80 C    1.261    78 N    1.259    77 C    1.186
    80   6 C    3.940 --    79 C    1.261    81 C    1.261   118 C    1.174
    81   6 C    3.907 --    80 C    1.261    85 N    1.259    82 C    1.186
    82   6 C    3.962 --    83 C    1.645    81 C    1.186   109 H    0.971
    83   6 C    3.960 --    82 C    1.645    84 C    1.179   110 H    0.973
    84   6 C    3.913 --    86 C    1.319    85 N    1.229    83 C    1.179
    85   7 N    3.297 --    81 C    1.259    84 C    1.229    59 Zn   0.455
    86   6 C    3.932 --    84 C    1.319    95 C    1.314    87 C    1.032
    87   6 C    3.963 --    94 C    1.385    88 C    1.384    86 C    1.032
    88   6 C    3.987 --    89 C    1.464    87 C    1.384   111 H    0.971
                            93 C    0.102
    89   6 C    3.993 --    88 C    1.464    90 C    1.363   112 H    0.972
                            94 C    0.102
    90   6 C    3.984 --    93 C    1.364    89 C    1.363    91 C    1.099
    91   6 C    3.957 --    92 N    2.819    90 C    1.099
    92   7 N    2.972 --    91 C    2.819
    93   6 C    3.993 --    94 C    1.464    90 C    1.364   113 H    0.972
                            88 C    0.102
    94   6 C    3.987 --    93 C    1.464    87 C    1.385   114 H    0.971
                            89 C    0.102
    95   6 C    3.919 --    86 C    1.314    99 N    1.245    96 C    1.171
    96   6 C    3.963 --    97 C    1.660    95 C    1.171   115 H    0.973
    97   6 C    3.960 --    96 C    1.660    98 C    1.170   116 H    0.975
    98   6 C    3.921 --    60 C    1.358    99 N    1.233    97 C    1.170
    99   7 N    3.294 --    95 C    1.245    98 C    1.233    59 Zn   0.460
   100   1 H    1.001 --    60 C    0.971
   101   1 H    0.998 --    62 C    0.975
   102   1 H    1.004 --    63 C    0.973
   103   1 H    1.004 --    68 C    0.971
   104   1 H    1.000 --    69 C    0.972
   105   1 H    1.000 --    73 C    0.972
   106   1 H    1.004 --    74 C    0.971
   107   1 H    1.004 --    76 C    0.973
   108   1 H    1.005 --    77 C    0.971
   109   1 H    1.005 --    82 C    0.971
   110   1 H    1.004 --    83 C    0.973
   111   1 H    1.004 --    88 C    0.971
   112   1 H    1.000 --    89 C    0.972
   113   1 H    1.000 --    93 C    0.972
   114   1 H    1.004 --    94 C    0.971
   115   1 H    1.004 --    96 C    0.973
   116   1 H    0.998 --    97 C    0.975
   117   6 C    3.933 --   118 C    2.580    22 C    1.174
   118   6 C    3.933 --   117 C    2.580    80 C    1.174
 ---------------------------------------------------------------------------

           -------------------------------------------------
          | TOTAL ENERGY             -205.991965292165 Eh   |
          | GRADIENT NORM               0.000307813931 Eh/α |
          | HOMO-LUMO GAP               1.125394666155 eV   |
           -------------------------------------------------

 * finished run on 2022/07/30 at 16:18:57.774
