   * xtb version 6.5.1 (b24c23e) compiled by 'conda@728c89f4b128' on 2022-07-12
          program call               : xtb Zn_PhCHO_C8_2.xyz --gfn 1 --opt -T 48

   ID    Z sym.   atoms
    1   30 Zn     1, 61
    2    6 C      2-6, 8-13, 15-19, 21-26, 28-33, 35-40, 62-66, 68-73, 75-79,
                  81-86, 88-93, 95-100, 121-128
    3    7 N      7, 20, 27, 41, 67, 80, 87, 101
    4    8 O      14, 34, 74, 94
    5    1 H      42-60, 102-120
########################################################################
[WARNING] Please study the warnings concerning your input carefully
-1- prog_main_parseArguments: Unknown option '-T' provided
########################################################################

          :  Hamiltonian                  GFN1-xTB          :
 * total energy  :  -226.2203283 Eh     change       -0.5217373E-09 Eh
 * total energy  :  -226.6112650 Eh     change       -0.3909367E+00 Eh
 * total energy  :  -226.6991713 Eh     change       -0.8790631E-01 Eh
 * total energy  :  -226.7297381 Eh     change       -0.3056679E-01 Eh
 * total energy  :  -226.7404417 Eh     change       -0.1070362E-01 Eh
 * total energy  :  -226.7467518 Eh     change       -0.6310049E-02 Eh
 * total energy  :  -226.7512667 Eh     change       -0.4514874E-02 Eh
 * total energy  :  -226.7537929 Eh     change       -0.2526289E-02 Eh
 * total energy  :  -226.7564454 Eh     change       -0.2652475E-02 Eh
 * total energy  :  -226.7580749 Eh     change       -0.1629491E-02 Eh
 * total energy  :  -226.7645196 Eh     change       -0.4250131E-04 Eh
 * total energy  :  -226.7645559 Eh     change       -0.3626020E-04 Eh
 * total energy  :  -226.7645768 Eh     change       -0.2087899E-04 Eh
 * total energy  :  -226.7645928 Eh     change       -0.1602477E-04 Eh
 * total energy  :  -226.7646217 Eh     change       -0.2890692E-04 Eh
 * total energy  :  -226.7646281 Eh     change       -0.6380448E-05 Eh
 * total energy  :  -226.7646304 Eh     change       -0.2325149E-05 Eh
 * total energy  :  -226.7646384 Eh     change       -0.7955837E-05 Eh
 * total energy  :  -226.7646421 Eh     change       -0.3725778E-05 Eh
   *** GEOMETRY OPTIMIZATION CONVERGED AFTER 42 ITERATIONS ***

 final structure:
================
128
 xtb: 6.5.1 (b24c23e)
Zn          13.26756309743616        0.01904972139756       -0.03447636745395
C            9.85906234731837        0.07263421830637       -0.09513995035604
C           10.49376910364270        1.29990464639837        0.05201184887844
C            9.82399273944410        2.55932512282020        0.21948385024464
C           10.78611467184337        3.50549994515265        0.35546793183532
C           12.05686553339288        2.83617493832292        0.26061459529351
N           11.84406543810954        1.50079543804221        0.08352615044591
C           13.31109546554505        3.45016171469109        0.36929280848539
C           13.33104712160593        4.91970071499756        0.56406796139981
C           13.88705495475465        5.47000436806673        1.72335596795717
C           13.90082613168785        6.83854710237070        1.91018573885364
C           13.36451577791860        7.69073422287368        0.93905770892058
C           13.39364044960674        9.14744226902305        1.15963780976167
O           13.85702342346295        9.66745534214253        2.14228089506906
C           12.81200755689859        7.14294462985728       -0.22135483651360
C           12.79324970401938        5.77178510088776       -0.40468237492506
C           14.54790757255343        2.79718146090909        0.31627962269184
C           15.83025154222029        3.44386521865911        0.36686540469847
C           16.77226128893392        2.47247471950433        0.26144004889870
N           14.73546794174491        1.44908636552360        0.16886605892879
C           16.07649526841683        1.22504396061368        0.13934162807004
C           16.70300213292199       -0.03036979095449        0.00140200342304
C           16.04414553311061       -1.26825354789361       -0.14067401439732
C           16.70656360566622       -2.52900201793166       -0.30242297200384
C           15.73898115020079       -3.47422210736926       -0.41579089759639
C           14.47403373350764       -2.79945608744677       -0.31649110320807
N           14.69742330050942       -1.45801145226737       -0.15819536994307
C           13.21970147295196       -3.41421122089633       -0.40620231331877
C           13.19621971178385       -4.88882038266160       -0.55654248237290
C           12.62504986783400       -5.47453428273491       -1.69025786628141
C           12.59767514852732       -6.85036531158572       -1.83144495509858
C           13.13701062433421       -7.67081801123716       -0.83743518187179
C           13.11427116161176       -9.13903719000460       -0.96134499181119
O           13.56180886778685       -9.88891239098237       -0.13134883669831
C           13.70796882692593       -7.08574754880879        0.29789793878734
C           13.73975379856462       -5.71152897280055        0.43518173877997
C           11.98247658823288       -2.75836746375346       -0.36472621620790
C           10.69416158310660       -3.39885249247813       -0.40902833067312
C            9.75768312365732       -2.42126247879909       -0.32663966827364
C           10.46081903330010       -1.17363063282055       -0.21958339056574
N           11.80535625740465       -1.41177297833863       -0.24137202722440
H            8.77355569758726        0.08750109242848       -0.09878049748331
H            8.75332474610259        2.68949620653209        0.23814361872588
H           10.65142518938980        4.56273586031690        0.51881355588401
H           14.29259496091692        4.81160575695716        2.48333857483229
H           14.32470748431449        7.27210743222510        2.80967846082089
H           12.94356930055658        9.74221620174074        0.33577879874209
H           12.39782368252639        7.79704380007511       -0.98179657169059
H           12.37542327834770        5.35086614135501       -1.31237415155771
H           15.98804540031677        4.50657785048746        0.45606519626350
H           17.84476574863124        2.58378805311917        0.25982306162809
H           17.77592280201437       -2.66503728194971       -0.33081378444172
H           15.86896682601295       -4.53359370560508       -0.56753400071577
H           12.21674029718458       -4.84045469921385       -2.46929627704959
H           12.15674859355031       -7.29562939858090       -2.71752741568861
H           12.64161088207999       -9.51007020884110       -1.89593421586291
H           14.12127381809994       -7.73033246734022        1.06625434298806
H           14.17060364010570       -5.26203491694287        1.32276698269013
H           10.53083936445196       -4.46232027609412       -0.47937770289423
H            8.68396340147155       -2.52483763106842       -0.32810719127321
Zn          31.88264775967960       -0.01727432133688       -0.03715719338757
C           35.29124592052039       -0.05951719815671       -0.10494372482273
C           34.65746316389734       -1.29567715066435       -0.13475675763528
C           35.32802519819267       -2.56569262028082       -0.14925858939714
C           34.36648710183785       -3.52218103438539       -0.14939991011333
C           33.09531314604525       -2.84693998806644       -0.14707680352393
N           33.30729486733119       -1.49984928596243       -0.13176689316154
C           31.84140197064965       -3.47075081504129       -0.12646500614303
C           31.82217069574009       -4.95307706323086       -0.14258498744911
C           31.26751321897314       -5.66276576973667        0.92727415352329
C           31.25454556572642       -7.04398172483088        0.91783833696373
C           31.79048394600661       -7.74931749480280       -0.16493645078201
C           31.76346747195280       -9.22267454756597       -0.15293354382834
O           31.30066884853724       -9.87712402132915        0.74632861384664
C           32.34134878763784       -7.04192122741961       -1.23639853706290
C           32.35927907879353       -5.65860383955273       -1.22311202686104
C           30.60423835959882       -2.81754257891958       -0.08569350563593
C           29.32233635633164       -3.46571982284842       -0.12751535749385
C           28.37963657005802       -2.48987298466065       -0.09368228890258
N           30.41573385974035       -1.46234629470251       -0.03974349943992
C           29.07450040704256       -1.23729054271403       -0.03701526774699
C           28.44718695328058        0.02454000900102        0.00491398178884
C           29.10527250846434        1.27050848756028        0.04018362172877
C           28.44198914028284        2.54103530134455        0.05858385196659
C           29.40892787171963        3.49339136913781        0.08124404907592
C           30.67429639851533        2.81214405707341        0.08457200816975
N           30.45180019930634        1.46167017643181        0.05054645087612
C           31.92827991095132        3.43402085046950        0.08425456907776
C           31.95105536390131        4.91499671983591        0.14544109347355
C           32.52311833614676        5.65633310668873       -0.89272272683147
C           32.55023803097863        7.03823416731422       -0.83645984379776
C           32.00968194436319        7.70861859676222        0.26374241004628
C           32.03225992404776        9.17950447321858        0.35036706732643
O           31.58373725679681        9.80340723000491        1.27831533423028
C           31.43763863081129        6.96770078057075        1.30349344645724
C           31.40611890708315        5.58793914978603        1.24360142314834
C           33.16587149670671        2.77954863519148        0.03266774522601
C           34.45375376316536        3.42057415178715        0.08103086512003
C           35.39085685319903        2.44182842090985        0.02305324737896
C           34.68853293748453        1.19128680927806       -0.04974834887128
N           33.34383525126360        1.42925367380344       -0.03763669512559
H           36.37676176305693       -0.07279584872701       -0.11077054053904
H           36.39878487962137       -2.69652916314770       -0.14991682865918
H           34.50186710541343       -4.59182062176053       -0.13891621926939
H           30.86246925100779       -5.11921461746410        1.77345824920282
H           30.83192327476802       -7.60116233024228        1.74708254114481
H           32.21057189312317       -9.69398087641582       -1.05401560117123
H           32.75493711551267       -7.58114536510369       -2.08250166538701
H           32.77598678020586       -5.11278740237265       -2.06221367840632
H           29.16536060320400       -4.53040629942451       -0.19039425638626
H           27.30719772083813       -2.60049021696963       -0.11110706890881
H           27.37255203759151        2.67903881545482        0.04907884232642
H           29.27825958805118        4.56350294297267        0.08128873841887
H           32.93235509923806        5.13972715734539       -1.75371524331117
H           32.99192061879604        7.60525234705758       -1.64961946566676
H           32.50587768713048        9.67996343393401       -0.52124879390593
H           31.02340642789117        7.49622833336253        2.15541429135874
H           30.97446012002037        5.01652718029031        2.05764735143091
H           34.61637380430066        4.48326117282166        0.16370944963182
H           36.46450039320010        2.54524707557915        0.03683329384207
C           18.10812871940470       -0.04354793316425       -0.00198369469552
C           19.33289527717477       -0.03786908281070       -0.00396662673413
C           20.67546534973098       -0.02739828326944       -0.00266500299146
C           21.90614361981255       -0.00808155640986       -0.00176772461192
C           23.24392295415960        0.00880210644162        0.00144277604543
C           24.47459325940220        0.02641056145133        0.00186964692171
C           25.81722143875248        0.03457204233331        0.00308995126492
C           27.04207747977203        0.03817091984109        0.00301461903456

          :  Hamiltonian                  GFN1-xTB          :
         :: total energy            -226.764642104968 Eh    ::
         :: gradient norm              0.000921614357 Eh/a0 ::
         :: HOMO-LUMO gap              1.122244710250 eV    ::
         :: SCC energy              -230.416445588802 Eh    ::
         :: repulsion energy           3.763698456650 Eh    ::

    * Orbital Energies and Occupations

         #    Occupation            Energy/Eh            Energy/eV
      -------------------------------------------------------------
         1        2.0000           -0.7900922             -21.4995
       ...           ...                  ...                  ...
       193        2.0000           -0.4331301             -11.7861
       194        2.0000           -0.4331299             -11.7861
       195        2.0000           -0.4326172             -11.7721
       196        2.0000           -0.4325784             -11.7711
       197        2.0000           -0.4321648             -11.7598
       198        2.0000           -0.4321560             -11.7596
       199        2.0000           -0.4319129             -11.7529
       200        2.0000           -0.4221966             -11.4886
       201        2.0000           -0.4132320             -11.2446
       202        2.0000           -0.4049213             -11.0185
       203        2.0000           -0.4049210             -11.0185
       204        2.0000           -0.3978387             -10.8257
       205        2.0000           -0.3885907             -10.5741 (HOMO)
       206                         -0.3473489              -9.4518 (LUMO)
       207                         -0.3411763              -9.2839
       208                         -0.3411752              -9.2838
       209                         -0.3373020              -9.1785
       210                         -0.3257134              -8.8631
       211                         -0.3253072              -8.8521
       212                         -0.3200843              -8.7099
       213                         -0.3200672              -8.7095
       214                         -0.3077004              -8.3730
       215                         -0.3059376              -8.3250
       216                         -0.2993080              -8.1446
       ...                                ...                  ...
       436                          1.5995258              43.5253
      -------------------------------------------------------------
                  HL-Gap            0.0412417 Eh            1.1222 eV

Wiberg/Mayer (AO) data.
largest (>0.10) Wiberg bond orders for each atom

     #   Z sym  total        # sym  WBO       # sym  WBO       # sym  WBO
 ---------------------------------------------------------------------------
     1  30 Zn   1.993 --    41 N    0.459     7 N    0.458    27 N    0.455
                            20 N    0.455
     2   6 C    3.928 --    40 C    1.358     3 C    1.358    42 H    0.971
     3   6 C    3.920 --     2 C    1.358     7 N    1.232     4 C    1.170
     4   6 C    3.960 --     5 C    1.660     3 C    1.170    43 H    0.975
     5   6 C    3.963 --     4 C    1.660     6 C    1.171    44 H    0.973
     6   6 C    3.918 --     8 C    1.311     7 N    1.246     5 C    1.171
     7   7 N    3.293 --     6 C    1.246     3 C    1.232     1 Zn   0.458
     8   6 C    3.931 --    17 C    1.321     6 C    1.311     9 C    1.033
     9   6 C    3.985 --    16 C    1.383    10 C    1.379     8 C    1.033
    10   6 C    3.987 --    11 C    1.472     9 C    1.379    45 H    0.972
    11   6 C    3.988 --    10 C    1.472    12 C    1.369    46 H    0.968
    12   6 C    3.983 --    15 C    1.377    11 C    1.369    13 C    1.051
    13   6 C    3.864 --    14 O    1.806    12 C    1.051    47 H    0.942
    14   8 O    2.002 --    13 C    1.806
    15   6 C    3.993 --    16 C    1.466    12 C    1.377    48 H    0.971
    16   6 C    3.987 --    15 C    1.466     9 C    1.383    49 H    0.972
    17   6 C    3.912 --     8 C    1.321    20 N    1.227    18 C    1.178
    18   6 C    3.959 --    19 C    1.647    17 C    1.178    50 H    0.973
    19   6 C    3.962 --    18 C    1.647    21 C    1.185    51 H    0.974
    20   7 N    3.296 --    21 C    1.262    17 C    1.227     1 Zn   0.455
    21   6 C    3.899 --    20 N    1.262    22 C    1.253    19 C    1.185
    22   6 C    3.939 --    23 C    1.254    21 C    1.253   121 C    1.193
    23   6 C    3.900 --    27 N    1.262    22 C    1.254    24 C    1.185
    24   6 C    3.962 --    25 C    1.647    23 C    1.185    52 H    0.974
    25   6 C    3.959 --    24 C    1.647    26 C    1.178    53 H    0.973
    26   6 C    3.912 --    28 C    1.321    27 N    1.227    25 C    1.178
    27   7 N    3.296 --    23 C    1.262    26 C    1.227     1 Zn   0.455
    28   6 C    3.931 --    26 C    1.321    37 C    1.311    29 C    1.034
    29   6 C    3.985 --    30 C    1.382    36 C    1.380    28 C    1.034
    30   6 C    3.987 --    31 C    1.467    29 C    1.382    54 H    0.972
    31   6 C    3.993 --    30 C    1.467    32 C    1.377    55 H    0.971
    32   6 C    3.983 --    31 C    1.377    35 C    1.369    33 C    1.051
    33   6 C    3.864 --    34 O    1.806    32 C    1.051    56 H    0.942
    34   8 O    2.002 --    33 C    1.806
    35   6 C    3.988 --    36 C    1.472    32 C    1.369    57 H    0.968
    36   6 C    3.987 --    35 C    1.472    29 C    1.380    58 H    0.972
    37   6 C    3.918 --    28 C    1.311    41 N    1.246    38 C    1.171
    38   6 C    3.963 --    39 C    1.659    37 C    1.171    59 H    0.973
    39   6 C    3.960 --    38 C    1.659    40 C    1.170    60 H    0.975
    40   6 C    3.920 --     2 C    1.358    41 N    1.232    39 C    1.170
    41   7 N    3.293 --    37 C    1.246    40 C    1.232     1 Zn   0.459
    42   1 H    1.001 --     2 C    0.971
    43   1 H    0.998 --     4 C    0.975
    44   1 H    1.004 --     5 C    0.973
    45   1 H    1.004 --    10 C    0.972
    46   1 H    1.005 --    11 C    0.968
    47   1 H    1.010 --    13 C    0.942
    48   1 H    1.000 --    15 C    0.971
    49   1 H    1.004 --    16 C    0.972
    50   1 H    1.004 --    18 C    0.973
    51   1 H    1.002 --    19 C    0.974
    52   1 H    1.002 --    24 C    0.974
    53   1 H    1.004 --    25 C    0.973
    54   1 H    1.004 --    30 C    0.972
    55   1 H    1.000 --    31 C    0.971
    56   1 H    1.010 --    33 C    0.942
    57   1 H    1.005 --    35 C    0.968
    58   1 H    1.004 --    36 C    0.972
    59   1 H    1.004 --    38 C    0.973
    60   1 H    0.998 --    39 C    0.975
    61  30 Zn   1.993 --   101 N    0.459    67 N    0.458    80 N    0.455
                            87 N    0.455
    62   6 C    3.928 --   100 C    1.358    63 C    1.358   102 H    0.971
    63   6 C    3.920 --    62 C    1.358    67 N    1.232    64 C    1.170
    64   6 C    3.960 --    65 C    1.660    63 C    1.170   103 H    0.975
    65   6 C    3.963 --    64 C    1.660    66 C    1.171   104 H    0.973
    66   6 C    3.918 --    68 C    1.311    67 N    1.246    65 C    1.171
    67   7 N    3.293 --    66 C    1.246    63 C    1.232    61 Zn   0.458
    68   6 C    3.931 --    77 C    1.321    66 C    1.311    69 C    1.033
    69   6 C    3.985 --    76 C    1.383    70 C    1.379    68 C    1.033
    70   6 C    3.987 --    71 C    1.472    69 C    1.379   105 H    0.972
    71   6 C    3.988 --    70 C    1.472    72 C    1.369   106 H    0.968
    72   6 C    3.983 --    75 C    1.377    71 C    1.369    73 C    1.051
    73   6 C    3.864 --    74 O    1.806    72 C    1.051   107 H    0.942
    74   8 O    2.002 --    73 C    1.806
    75   6 C    3.993 --    76 C    1.466    72 C    1.377   108 H    0.971
    76   6 C    3.987 --    75 C    1.466    69 C    1.383   109 H    0.972
    77   6 C    3.912 --    68 C    1.321    80 N    1.227    78 C    1.178
    78   6 C    3.959 --    79 C    1.647    77 C    1.178   110 H    0.973
    79   6 C    3.962 --    78 C    1.647    81 C    1.185   111 H    0.974
    80   7 N    3.297 --    81 C    1.262    77 C    1.227    61 Zn   0.455
    81   6 C    3.899 --    80 N    1.262    82 C    1.253    79 C    1.185
    82   6 C    3.939 --    83 C    1.254    81 C    1.253   128 C    1.193
    83   6 C    3.900 --    87 N    1.262    82 C    1.254    84 C    1.185
    84   6 C    3.962 --    85 C    1.647    83 C    1.185   112 H    0.974
    85   6 C    3.959 --    84 C    1.647    86 C    1.178   113 H    0.973
    86   6 C    3.912 --    88 C    1.321    87 N    1.227    85 C    1.178
    87   7 N    3.296 --    83 C    1.262    86 C    1.227    61 Zn   0.455
    88   6 C    3.931 --    86 C    1.321    97 C    1.311    89 C    1.034
    89   6 C    3.985 --    90 C    1.382    96 C    1.380    88 C    1.034
    90   6 C    3.987 --    91 C    1.467    89 C    1.382   114 H    0.972
    91   6 C    3.993 --    90 C    1.467    92 C    1.377   115 H    0.971
    92   6 C    3.983 --    91 C    1.377    95 C    1.369    93 C    1.051
    93   6 C    3.864 --    94 O    1.806    92 C    1.051   116 H    0.942
    94   8 O    2.002 --    93 C    1.806
    95   6 C    3.988 --    96 C    1.472    92 C    1.369   117 H    0.968
    96   6 C    3.987 --    95 C    1.472    89 C    1.380   118 H    0.972
    97   6 C    3.918 --    88 C    1.311   101 N    1.246    98 C    1.171
    98   6 C    3.963 --    99 C    1.659    97 C    1.171   119 H    0.973
    99   6 C    3.960 --    98 C    1.659   100 C    1.170   120 H    0.975
   100   6 C    3.920 --    62 C    1.358   101 N    1.232    99 C    1.170
   101   7 N    3.293 --    97 C    1.246   100 C    1.232    61 Zn   0.459
   102   1 H    1.001 --    62 C    0.971
   103   1 H    0.998 --    64 C    0.975
   104   1 H    1.004 --    65 C    0.973
   105   1 H    1.004 --    70 C    0.972
   106   1 H    1.005 --    71 C    0.968
   107   1 H    1.010 --    73 C    0.942
   108   1 H    1.000 --    75 C    0.971
   109   1 H    1.004 --    76 C    0.972
   110   1 H    1.004 --    78 C    0.973
   111   1 H    1.002 --    79 C    0.974
   112   1 H    1.002 --    84 C    0.974
   113   1 H    1.004 --    85 C    0.973
   114   1 H    1.004 --    90 C    0.972
   115   1 H    1.000 --    91 C    0.971
   116   1 H    1.010 --    93 C    0.942
   117   1 H    1.005 --    95 C    0.968
   118   1 H    1.004 --    96 C    0.972
   119   1 H    1.004 --    98 C    0.973
   120   1 H    0.998 --    99 C    0.975
   121   6 C    3.877 --   122 C    2.438    22 C    1.193   124 C    0.187
   122   6 C    3.934 --   121 C    2.438   123 C    1.345
   123   6 C    3.893 --   124 C    2.335   122 C    1.345   126 C    0.182
   124   6 C    3.925 --   123 C    2.335   125 C    1.369   121 C    0.187
   125   6 C    3.925 --   126 C    2.335   124 C    1.369   128 C    0.186
   126   6 C    3.893 --   125 C    2.335   127 C    1.345   123 C    0.182
   127   6 C    3.934 --   128 C    2.438   126 C    1.345
   128   6 C    3.877 --   127 C    2.438    82 C    1.193   125 C    0.186
 ---------------------------------------------------------------------------

           -------------------------------------------------
          | TOTAL ENERGY             -226.764642104968 Eh   |
          | GRADIENT NORM               0.000921614357 Eh/α |
          | HOMO-LUMO GAP               1.122244710250 eV   |
           -------------------------------------------------

 * finished run on 2022/07/30 at 09:16:16.829
