   * xtb version 6.5.1 (b24c23e) compiled by 'conda@728c89f4b128' on 2022-07-12
          program call               : xtb Co_Ph3OH_C4_2.xyz --gfn 1 --opt -T 48

   ID    Z sym.   atoms
    1   27 Co     1, 63
    2    6 C      2-6, 8-11, 13, 15, 17-20, 22-27, 29-32, 34, 36, 38-42,
                  64-68, 70-73, 75, 77, 79-82, 84-89, 91-94, 96, 98, 100-104,
                  125-128
    3    7 N      7, 21, 28, 43, 69, 83, 90, 105
    4    8 O      12, 14, 16, 33, 35, 37, 74, 76, 78, 95, 97, 99
    5    1 H      44-62, 106-124
########################################################################
[WARNING] Please study the warnings concerning your input carefully
-1- prog_main_parseArguments: Unknown option '-T' provided
########################################################################

          :  Hamiltonian                  GFN1-xTB          :
 * total energy  :  -252.5067845 Eh     change       -0.3455511E-09 Eh
 * total energy  :  -252.9622459 Eh     change       -0.4554614E+00 Eh
 * total energy  :  -253.0643456 Eh     change       -0.1020997E+00 Eh
 * total energy  :  -253.1184351 Eh     change       -0.5408955E-01 Eh
 * total energy  :  -253.1389050 Eh     change       -0.2046984E-01 Eh
 * total energy  :  -253.1490169 Eh     change       -0.1011192E-01 Eh
 * total energy  :  -253.1533811 Eh     change       -0.4364196E-02 Eh
 * total energy  :  -253.1548208 Eh     change       -0.1439672E-02 Eh
 * total energy  :  -253.1563027 Eh     change       -0.1481903E-02 Eh
 * total energy  :  -253.1569922 Eh     change       -0.6895161E-03 Eh
 * total energy  :  -253.1603388 Eh     change       -0.1584704E-04 Eh
 * total energy  :  -253.1603485 Eh     change       -0.9730593E-05 Eh
 * total energy  :  -253.1603636 Eh     change       -0.1512464E-04 Eh
 * total energy  :  -253.1603859 Eh     change       -0.2229321E-04 Eh
 * total energy  :  -253.1604033 Eh     change       -0.1740321E-04 Eh
 * total energy  :  -253.1604130 Eh     change       -0.9698124E-05 Eh
 * total energy  :  -253.1604092 Eh     change        0.3831172E-05 Eh
 * total energy  :  -253.1604228 Eh     change       -0.1363164E-04 Eh
 * total energy  :  -253.1604259 Eh     change       -0.3017424E-05 Eh
   *** GEOMETRY OPTIMIZATION CONVERGED AFTER 71 ITERATIONS ***

 final structure:
================
128
 xtb: 6.5.1 (b24c23e)
Co          16.01605935925174        0.07909561758166        0.04622695918324
C           12.65101769408276        0.10933183195065        0.32966825944478
C           13.29435489076697        1.29310380676808        0.03951584137987
C           12.61343939937137        2.53454115410565       -0.16862375603905
C           13.56853250237267        3.48716172452464       -0.27616399869720
C           14.83266635662615        2.82609551679030       -0.13064228476808
N           14.65392599375543        1.47411123368591        0.02153868616193
C           16.04053937323349        3.49302827840947        0.02155692476544
C           16.04701930950103        4.97729409795320        0.00860606215389
C           15.72224544112156        5.67044557050063       -1.15663544520460
C           15.73093631223356        7.06074657919531       -1.16387179921827
O           15.42496449358024        7.74650180446024       -2.29192715038281
C           16.05677800233285        7.76032102598228       -0.00073754202938
O           16.05300031419091        9.13014088968355       -0.03697523120958
C           16.37596291363666        7.06639754080208        1.16356952327970
O           16.68015447830915        7.82131384605312        2.26557912120896
C           16.37624195421503        5.67695067526013        1.17208659168078
C           17.23581359361269        2.81743658019972        0.21266544259698
C           18.50086774104452        3.46657917772601        0.38249983008751
C           19.44396374899804        2.49477750261945        0.37469953870319
N           17.40312518413654        1.45292951421010        0.13185707063717
C           18.75452428820383        1.25768882128415        0.18741507274291
C           19.41227071823135        0.04637090308698       -0.03757323566073
C           18.71775081288728       -1.14565226462355       -0.25793063795639
C           19.36483647875731       -2.38441452982507       -0.55257051874522
C           18.39802147454420       -3.33285013590107       -0.56798844364737
C           17.16270486582112       -2.66900996050999       -0.27798682254610
N           17.36878732467254       -1.31561979560805       -0.12811635829216
C           15.97667341753334       -3.33379850421144       -0.00835170553205
C           15.95440266009656       -4.81668569795431       -0.07472317291942
C           15.76076069952251       -5.56777104459155        1.08373884685952
C           15.74257805677607       -6.95638603951503        1.01709188776193
O           15.56282353614455       -7.69824422282722        2.13669010082755
C           15.91023293004499       -7.59557519914734       -0.21236715089048
O           15.88296027401456       -8.96523253439359       -0.24776714856176
C           16.10073163562964       -6.84366468283468       -1.36885337517199
O           16.25424463998383       -7.54152282559860       -2.53768765546716
C           16.12831854934473       -5.45584895226083       -1.30445875194474
C           14.81284380453080       -2.65758995130157        0.33021055832885
C           13.57006893599756       -3.30444386642942        0.63486142565730
C           12.63721031581946       -2.33030085937842        0.74321593115445
C           13.30745684280072       -1.09143813131126        0.48883804624354
N           14.64916224396599       -1.29602863834122        0.28519103146869
H           11.57119545980960        0.12054441561039        0.42031885109054
H           11.54137155391141        2.64319815391051       -0.21128293379618
H           13.44201610564269        4.54797889623632       -0.41882487590678
H           15.47978488121887        5.13720022607848       -2.06669063063835
H           15.48629948041450        8.69640069216624       -2.09765962849933
H           16.29962123648210        9.45269431743038        0.84449981949849
H           16.88617442965227        7.25760015179669        3.02277900540286
H           16.61295335297140        5.14246093113379        2.08452727933823
H           18.64062078157201        4.53134023101772        0.47391075897915
H           20.51391892671517        2.59166182086203        0.46456440213526
H           20.42498244516174       -2.49838420735739       -0.71203875819112
H           18.50376983771163       -4.39235532376173       -0.73522376387669
H           15.64238679815872       -5.08157370720196        2.04335984592773
H           15.58173952512418       -8.63697773832191        1.88727448191819
H           16.01239093012324       -9.24289492417595       -1.16862446740618
H           16.37765418275075       -6.94002519329184       -3.28368577370184
H           16.26634387811490       -4.87525713589050       -2.20896210591192
H           13.43950745440126       -4.36967973464844        0.73447184326279
H           11.58320526677997       -2.42282776664291        0.95163552057153
Co          29.40716025430833       -0.08182668858117        0.01976667236975
C           32.77345743143616       -0.13872074992401        0.27187041651178
C           32.12864901332691       -1.28185063136222       -0.14889009966883
C           32.80811442482978       -2.49036309258385       -0.50388750348867
C           31.85281802136859       -3.42797530372593       -0.70318378747991
C           30.58995179434108       -2.79054947560560       -0.46872534110839
N           30.76914580742157       -1.46328738586087       -0.17017429199705
C           29.38434858195871       -3.47233236228800       -0.37518749555758
C           29.37724622757417       -4.94696037763580       -0.54435583700577
C           29.68803106506012       -5.51441212979608       -1.77926705084916
C           29.67497124480334       -6.89629632352968       -1.93229727251677
O           29.96652739982269       -7.46040012665907       -3.12945497287989
C           29.35892600978664       -7.71354872063706       -0.84572007881706
O           29.35707733844716       -9.07195676949184       -1.02591334028495
C           29.05433795851794       -7.14520955858052        0.38848691298216
O           28.75897747729147       -8.01106107249350        1.40822552624886
C           29.05837622781676       -5.76437212532533        0.54277355295798
C           28.19027600396547       -2.82254750105120       -0.10365890625939
C           26.92623239848278       -3.48720691301929        0.00199028459047
C           25.98232348732577       -2.52088339712296        0.09780651495586
N           28.02164725084953       -1.45733234695772       -0.03972018772736
C           26.67024683333070       -1.27025799046055        0.03892053053374
C           26.01173058488657       -0.04225975605555       -0.05564720602950
C           26.70562668412607        1.16709860367313       -0.14470810779578
C           26.05841612148552        2.43089276784482       -0.29933087807454
C           27.02394487634682        3.37570677316322       -0.20054572788287
C           28.25884287285888        2.68407188940305        0.01728931944272
N           28.05391804266058        1.32231341991522        0.00899623960384
C           29.44293460613011        3.31307486642179        0.36931631145508
C           29.46404281119048        4.79296847576400        0.48304371262257
C           29.65952540813157        5.39752381911979        1.72404660610029
C           29.67883286663928        6.78387761333162        1.82680639019312
O           29.86098175674023        7.38381498137802        3.02813348761604
C           29.51013396372977        7.56801449491216        0.68447712136553
O           29.53903252991568        8.93176472474134        0.81585052249412
C           29.31748040708077        6.96245824203447       -0.55462247068806
O           29.16333830016146        7.79742881635567       -1.62965981985696
C           29.28901598016746        5.57711953877626       -0.65956428268695
C           30.60743527883687        2.60230572616918        0.62503224222168
C           31.85060711805913        3.20948151128742        1.00152595237797
C           32.78605990644601        2.23196019294409        0.98281149869538
C           32.11664021889134        1.03213526350804        0.58160270235899
N           30.77321219072145        1.25679910704536        0.41334112101430
H           33.85413787902408       -0.15783718799457        0.35018212803974
H           33.87964368165797       -2.59071439483058       -0.57262742963076
H           31.97868179098387       -4.46606900655681       -0.96439167137956
H           29.92205367998110       -4.88908041642077       -2.63104710874827
H           29.90337682251596       -8.42529105624560       -3.03554212401389
H           29.11761081230510       -9.48476289117284       -0.18085844335796
H           28.56226591330612       -7.52953780885499        2.22248656257168
H           28.83236403889826       -5.32804859580055        1.50859198432143
H           26.78755230657595       -4.55583877737299       -0.01792449261919
H           24.91268075391270       -2.62777895257848        0.17968863575397
H           24.99891235411570        2.56146566901760       -0.45016730247197
H           26.91726490379217        4.44728928810084       -0.24563040017679
H           29.77883984125111        4.79814031112414        2.61724600208961
H           29.84312135151507        8.34593001036656        2.89473952245244
H           29.40918855723685        9.31946216814681       -0.06429709033150
H           29.03835287249348        7.29127716658080       -2.44313322784115
H           29.15027246652227        5.11104655709459       -1.62794090275277
H           31.97988994818668        4.25455028592812        1.23130242071175
H           33.84109283382466        2.30092458203454        1.19512577582324
C           22.03762439420734        0.01240327894339       -0.06920443463230
C           20.81533772164881        0.02890090562630       -0.05937642712728
C           23.38623384276834       -0.00650190888803       -0.07272358783541
C           24.60861036712987       -0.02292821634023       -0.07118380657650

          :  Hamiltonian                  GFN1-xTB          :
         :: total energy            -253.160425860378 Eh    ::
         :: gradient norm              0.000454099001 Eh/a0 ::
         :: HOMO-LUMO gap              0.008543543699 eV    ::
         :: SCC energy              -256.509430151562 Eh    ::
         :: repulsion energy           3.461316763555 Eh    ::

    * Orbital Energies and Occupations

         #    Occupation            Energy/Eh            Energy/eV
      -------------------------------------------------------------
         1        2.0000           -0.8135071             -22.1367
       ...           ...                  ...                  ...
       208        2.0000           -0.4120555             -11.2126
       209        2.0000           -0.4120145             -11.2115
       210        2.0000           -0.3976700             -10.8212
       211        2.0000           -0.3976408             -10.8204
       212        2.0000           -0.3973568             -10.8126
       213        2.0000           -0.3957635             -10.7693
       214        2.0000           -0.3954987             -10.7621
       215        1.9998           -0.3924786             -10.6799
       216        1.9998           -0.3924785             -10.6799
       217        1.9998           -0.3924063             -10.6779
       218        1.9998           -0.3923903             -10.6775
       219        1.8766           -0.3861608             -10.5080
       220        1.1442           -0.3838506             -10.4451 (HOMO)
       221        0.9799           -0.3835366             -10.4366 (LUMO)
       222                         -0.3395252              -9.2390
       223                         -0.3281236              -8.9287
       224                         -0.3280764              -8.9274
       225                         -0.3256881              -8.8624
       226                         -0.2983399              -8.1182
       227                         -0.2956095              -8.0439
       228                         -0.2954904              -8.0407
       229                         -0.2906176              -7.9081
       230                         -0.2629359              -7.1549
       231                         -0.2560988              -6.9688
       ...                                ...                  ...
       446                          1.5140370              41.1990
      -------------------------------------------------------------
                  HL-Gap            0.0003140 Eh            0.0085 eV

Wiberg/Mayer (AO) data.
largest (>0.10) Wiberg bond orders for each atom

     #   Z sym  total        # sym  WBO       # sym  WBO       # sym  WBO
 ---------------------------------------------------------------------------
     1  27 Co   3.034 --    43 N    0.638     7 N    0.636    21 N    0.632
                            28 N    0.631
     2   6 C    3.927 --    42 C    1.366     3 C    1.363    44 H    0.970
     3   6 C    3.924 --     2 C    1.363     7 N    1.204     4 C    1.174
     4   6 C    3.960 --     5 C    1.650     3 C    1.174    45 H    0.975
     5   6 C    3.963 --     4 C    1.650     6 C    1.176    46 H    0.973
     6   6 C    3.919 --     8 C    1.321     7 N    1.211     5 C    1.176
     7   7 N    3.346 --     6 C    1.211     3 C    1.204     1 Co   0.636
     8   6 C    3.931 --    18 C    1.335     6 C    1.321     9 C    1.021
     9   6 C    3.988 --    10 C    1.401    17 C    1.388     8 C    1.021
    10   6 C    3.977 --     9 C    1.401    11 C    1.379    47 H    0.970
    11   6 C    3.917 --    10 C    1.379    13 C    1.324    12 O    1.053
    12   8 O    2.049 --    11 C    1.053    48 H    0.847
    13   6 C    3.904 --    15 C    1.341    11 C    1.324    14 O    1.021
    14   8 O    2.021 --    13 C    1.021    49 H    0.846
    15   6 C    3.905 --    17 C    1.383    13 C    1.341    16 O    1.014
    16   8 O    2.025 --    15 C    1.014    50 H    0.860
    17   6 C    3.973 --     9 C    1.388    15 C    1.383    51 H    0.970
    18   6 C    3.916 --     8 C    1.335    21 N    1.194    19 C    1.182
    19   6 C    3.959 --    20 C    1.638    18 C    1.182    52 H    0.973
    20   6 C    3.961 --    19 C    1.638    22 C    1.189    53 H    0.973
    21   7 N    3.346 --    22 C    1.233    18 C    1.194     1 Co   0.632
    22   6 C    3.905 --    23 C    1.260    21 N    1.233    20 C    1.189
    23   6 C    3.931 --    22 C    1.260    24 C    1.257   126 C    1.190
    24   6 C    3.905 --    23 C    1.257    28 N    1.234    25 C    1.190
    25   6 C    3.961 --    26 C    1.637    24 C    1.190    54 H    0.973
    26   6 C    3.958 --    25 C    1.637    27 C    1.182    55 H    0.973
    27   6 C    3.916 --    29 C    1.335    28 N    1.192    26 C    1.182
    28   7 N    3.348 --    24 C    1.234    27 C    1.192     1 Co   0.631
    29   6 C    3.930 --    27 C    1.335    39 C    1.321    30 C    1.020
    30   6 C    3.988 --    31 C    1.401    38 C    1.389    29 C    1.020
    31   6 C    3.977 --    30 C    1.401    32 C    1.378    56 H    0.970
    32   6 C    3.917 --    31 C    1.378    34 C    1.325    33 O    1.053
    33   8 O    2.049 --    32 C    1.053    57 H    0.847
    34   6 C    3.905 --    36 C    1.341    32 C    1.325    35 O    1.021
    35   8 O    2.021 --    34 C    1.021    58 H    0.846
    36   6 C    3.905 --    38 C    1.383    34 C    1.341    37 O    1.014
    37   8 O    2.025 --    36 C    1.014    59 H    0.860
    38   6 C    3.973 --    30 C    1.389    36 C    1.383    60 H    0.970
    39   6 C    3.919 --    29 C    1.321    43 N    1.213    40 C    1.176
    40   6 C    3.963 --    41 C    1.651    39 C    1.176    61 H    0.973
    41   6 C    3.960 --    40 C    1.651    42 C    1.173    62 H    0.975
    42   6 C    3.925 --     2 C    1.366    43 N    1.202    41 C    1.173
    43   7 N    3.344 --    39 C    1.213    42 C    1.202     1 Co   0.638
    44   1 H    1.000 --     2 C    0.970
    45   1 H    0.997 --     4 C    0.975
    46   1 H    1.005 --     5 C    0.973
    47   1 H    0.999 --    10 C    0.970
    48   1 H    0.877 --    12 O    0.847
    49   1 H    0.876 --    14 O    0.846
    50   1 H    0.881 --    16 O    0.860
    51   1 H    1.000 --    17 C    0.970
    52   1 H    1.005 --    19 C    0.973
    53   1 H    1.002 --    20 C    0.973
    54   1 H    1.002 --    25 C    0.973
    55   1 H    1.005 --    26 C    0.973
    56   1 H    0.999 --    31 C    0.970
    57   1 H    0.877 --    33 O    0.847
    58   1 H    0.876 --    35 O    0.846
    59   1 H    0.881 --    37 O    0.860
    60   1 H    1.000 --    38 C    0.970
    61   1 H    1.005 --    40 C    0.973
    62   1 H    0.997 --    41 C    0.975
    63  27 Co   3.040 --   105 N    0.639    69 N    0.637    83 N    0.633
                            90 N    0.631
    64   6 C    3.928 --   104 C    1.366    65 C    1.363   106 H    0.970
    65   6 C    3.924 --    64 C    1.363    69 N    1.204    66 C    1.174
    66   6 C    3.960 --    67 C    1.650    65 C    1.174   107 H    0.975
    67   6 C    3.963 --    66 C    1.650    68 C    1.176   108 H    0.973
    68   6 C    3.919 --    70 C    1.321    69 N    1.211    67 C    1.176
    69   7 N    3.347 --    68 C    1.211    65 C    1.204    63 Co   0.637
    70   6 C    3.931 --    80 C    1.335    68 C    1.321    71 C    1.021
    71   6 C    3.988 --    72 C    1.402    79 C    1.388    70 C    1.021
    72   6 C    3.977 --    71 C    1.402    73 C    1.378   109 H    0.970
    73   6 C    3.917 --    72 C    1.378    75 C    1.324    74 O    1.053
    74   8 O    2.049 --    73 C    1.053   110 H    0.847
    75   6 C    3.904 --    77 C    1.341    73 C    1.324    76 O    1.021
    76   8 O    2.021 --    75 C    1.021   111 H    0.846
    77   6 C    3.905 --    79 C    1.383    75 C    1.341    78 O    1.014
    78   8 O    2.025 --    77 C    1.014   112 H    0.860
    79   6 C    3.973 --    71 C    1.388    77 C    1.383   113 H    0.970
    80   6 C    3.916 --    70 C    1.335    83 N    1.194    81 C    1.182
    81   6 C    3.959 --    82 C    1.638    80 C    1.182   114 H    0.973
    82   6 C    3.962 --    81 C    1.638    84 C    1.189   115 H    0.973
    83   7 N    3.346 --    84 C    1.233    80 C    1.194    63 Co   0.633
    84   6 C    3.905 --    85 C    1.260    83 N    1.233    82 C    1.189
    85   6 C    3.931 --    84 C    1.260    86 C    1.257   128 C    1.190
    86   6 C    3.905 --    85 C    1.257    90 N    1.234    87 C    1.191
    87   6 C    3.961 --    88 C    1.637    86 C    1.191   116 H    0.973
    88   6 C    3.958 --    87 C    1.637    89 C    1.182   117 H    0.973
    89   6 C    3.916 --    91 C    1.334    90 N    1.193    88 C    1.182
    90   7 N    3.348 --    86 C    1.234    89 C    1.193    63 Co   0.631
    91   6 C    3.931 --    89 C    1.334   101 C    1.321    92 C    1.020
    92   6 C    3.988 --    93 C    1.401   100 C    1.389    91 C    1.020
    93   6 C    3.977 --    92 C    1.401    94 C    1.379   118 H    0.970
    94   6 C    3.917 --    93 C    1.379    96 C    1.324    95 O    1.053
    95   8 O    2.049 --    94 C    1.053   119 H    0.847
    96   6 C    3.905 --    98 C    1.341    94 C    1.324    97 O    1.021
    97   8 O    2.021 --    96 C    1.021   120 H    0.846
    98   6 C    3.905 --   100 C    1.383    96 C    1.341    99 O    1.014
    99   8 O    2.025 --    98 C    1.014   121 H    0.860
   100   6 C    3.973 --    92 C    1.389    98 C    1.383   122 H    0.970
   101   6 C    3.919 --    91 C    1.321   105 N    1.213   102 C    1.176
   102   6 C    3.963 --   103 C    1.651   101 C    1.176   123 H    0.972
   103   6 C    3.960 --   102 C    1.651   104 C    1.173   124 H    0.975
   104   6 C    3.925 --    64 C    1.366   105 N    1.202   103 C    1.173
   105   7 N    3.344 --   101 C    1.213   104 C    1.202    63 Co   0.639
   106   1 H    1.000 --    64 C    0.970
   107   1 H    0.997 --    66 C    0.975
   108   1 H    1.005 --    67 C    0.973
   109   1 H    0.999 --    72 C    0.970
   110   1 H    0.877 --    74 O    0.847
   111   1 H    0.876 --    76 O    0.846
   112   1 H    0.881 --    78 O    0.860
   113   1 H    1.000 --    79 C    0.970
   114   1 H    1.005 --    81 C    0.973
   115   1 H    1.002 --    82 C    0.973
   116   1 H    1.002 --    87 C    0.973
   117   1 H    1.005 --    88 C    0.973
   118   1 H    0.999 --    93 C    0.970
   119   1 H    0.877 --    95 O    0.847
   120   1 H    0.876 --    97 O    0.846
   121   1 H    0.881 --    99 O    0.860
   122   1 H    1.000 --   100 C    0.970
   123   1 H    1.005 --   102 C    0.972
   124   1 H    0.997 --   103 C    0.975
   125   6 C    3.930 --   126 C    2.468   127 C    1.313
   126   6 C    3.920 --   125 C    2.468    23 C    1.190   128 C    0.198
   127   6 C    3.929 --   128 C    2.468   125 C    1.313
   128   6 C    3.920 --   127 C    2.468    85 C    1.190   126 C    0.198
 ---------------------------------------------------------------------------

           -------------------------------------------------
          | TOTAL ENERGY             -253.160425860378 Eh   |
          | GRADIENT NORM               0.000454099001 Eh/α |
          | HOMO-LUMO GAP               0.008543543699 eV   |
           -------------------------------------------------

 * finished run on 2022/07/30 at 03:41:50.641
