   * xtb version 6.5.1 (b24c23e) compiled by 'conda@728c89f4b128' on 2022-07-12
          program call               : xtb Zn_PhNH2_C8_2.xyz --gfn 1 --opt -T 48

   ID    Z sym.   atoms
    1   30 Zn     1, 61
    2    6 C      2-6, 8-12, 14-18, 20-25, 27-31, 33-38, 62-66, 68-72, 74-78,
                  80-85, 87-91, 93-98, 121-128
    3    7 N      7, 13, 19, 26, 32, 39, 67, 73, 79, 86, 92, 99
    4    1 H      40-60, 100-120
########################################################################
[WARNING] Please study the warnings concerning your input carefully
-1- prog_main_parseArguments: Unknown option '-T' provided
########################################################################

          :  Hamiltonian                  GFN1-xTB          :
 * total energy  :  -213.5219879 Eh     change        0.2557954E-11 Eh
 * total energy  :  -214.3376732 Eh     change       -0.8156853E+00 Eh
 * total energy  :  -214.4775828 Eh     change       -0.1399096E+00 Eh
 * total energy  :  -214.5332815 Eh     change       -0.5569871E-01 Eh
 * total energy  :  -214.5549516 Eh     change       -0.2167015E-01 Eh
 * total energy  :  -214.5660620 Eh     change       -0.1111038E-01 Eh
 * total energy  :  -214.5744613 Eh     change       -0.8399301E-02 Eh
 * total energy  :  -214.5813246 Eh     change       -0.6863289E-02 Eh
 * total energy  :  -214.5870717 Eh     change       -0.5747110E-02 Eh
 * total energy  :  -214.5914660 Eh     change       -0.4394313E-02 Eh
 * total energy  :  -214.6118765 Eh     change       -0.4044811E-04 Eh
 * total energy  :  -214.6119005 Eh     change       -0.2402317E-04 Eh
 * total energy  :  -214.6119150 Eh     change       -0.1444226E-04 Eh
 * total energy  :  -214.6119292 Eh     change       -0.1422023E-04 Eh
 * total energy  :  -214.6119399 Eh     change       -0.1065732E-04 Eh
 * total energy  :  -214.6119495 Eh     change       -0.9656906E-05 Eh
 * total energy  :  -214.6119579 Eh     change       -0.8406006E-05 Eh
 * total energy  :  -214.6119636 Eh     change       -0.5671827E-05 Eh
 * total energy  :  -214.6119654 Eh     change       -0.1777454E-05 Eh
   *** GEOMETRY OPTIMIZATION CONVERGED AFTER 44 ITERATIONS ***

 final structure:
================
128
 xtb: 6.5.1 (b24c23e)
Zn          12.80860456186417        0.02147952117278       -0.00422929082012
C            9.40157875468709        0.12872194465888        0.08818630575597
C           10.04113206884132        1.24516777252705       -0.43754759149234
C            9.37758553533319        2.40380838504208       -0.96515620655099
C           10.34474882846619        3.26222678860562       -1.37640031121184
C           11.61209086004913        2.64267476044156       -1.09411142129562
N           11.39228083160575        1.41787949886106       -0.53482998800162
C           12.86829993607176        3.19848958352442       -1.37074217796645
C           12.89566809095899        4.56330290292467       -1.95105909369399
C           13.47141372021336        4.79530947202108       -3.20251675057351
C           13.50014964269617        6.06743733483721       -3.74624444398699
C           12.95238794000176        7.14293540572015       -3.04264747459815
N           13.02484217820049        8.42559436960458       -3.55992360585868
C           12.38448584688983        6.92158218884058       -1.78557664834140
C           12.35185399272407        5.64457397052202       -1.25357894471488
C           14.10018014929810        2.57554692254038       -1.14095590275932
C           15.38645739385821        3.17262310354714       -1.37116655485967
C           16.32333012559828        2.25639419830695       -1.01630228594143
N           14.28111682699159        1.31452561932960       -0.63658415610263
C           15.62058968079828        1.09537708137848       -0.55604907106976
C           16.24033346921320       -0.08320496769017       -0.09165574767723
C           15.57517085065411       -1.22347130094652        0.40351129751850
C           16.22857543061021       -2.42426345863021        0.83300142551067
C           15.25667237677949       -3.28186672836816        1.23760102868306
C           13.99890111762031       -2.60817500985920        1.06942980182937
N           14.23046237969179       -1.36151524015668        0.55049043315943
C           12.74433247789457       -3.15244152904101        1.36721844756704
C           12.71505817440217       -4.51331248342226        1.95676582275524
C           13.33654690822544       -4.77389358750729        3.18041709970260
C           13.30640145253929       -6.04047871354700        3.73685617522014
C           12.66214584785765       -7.08460390028249        3.06858968772053
N           12.59497455663658       -8.34376708538022        3.64069001265313
C           12.03503015643200       -6.83199596569031        1.84594238459587
C           12.06211722115516       -5.56011501994789        1.30146216429401
C           11.51231709151074       -2.51873410756576        1.15658928571732
C           10.22613436096979       -3.05553445308475        1.51380363264166
C            9.29362454139072       -2.13870531488166        1.15195773498938
C            9.99822560892335       -1.02584487426221        0.58082267878391
N           11.33916481361651       -1.28397642560853        0.60265736593192
H            8.31677010838710        0.16292461509508        0.11882391250907
H            8.30738606522235        2.53037640377697       -1.01781616835897
H           10.21497699366304        4.22602387715238       -1.84239439914317
H           13.88380826469587        3.96286942751879       -3.76230932452993
H           13.94522761391248        6.23352197737451       -4.72126915704722
H           13.12930536768981        8.47439377053351       -4.56087135594413
H           12.34512301994306        9.07122631848759       -3.19067359871144
H           11.96987149431170        7.75484026816740       -1.22867060701142
H           11.91866420419529        5.48274743152048       -0.27246449484061
H           15.55148169134235        4.17131190645230       -1.74219785522600
H           17.39663685688647        2.35511225505386       -1.05193813340444
H           17.29467042857504       -2.58661500131489        0.81594471117352
H           15.37894844961604       -4.28820312995108        1.60475422622271
H           13.83089940341976       -3.96667483140500        3.70988272346519
H           13.78313680658254       -6.22726828521580        4.69297851415365
H           13.31404479027620       -8.54210346077890        4.31792806128045
H           12.42768258506985       -9.09693919924823        2.99281964285626
H           11.53052788398496       -7.63781190541443        1.32388696143573
H           11.58790753090357       -5.37634040344128        0.34344459314134
H           10.06196473178838       -4.00714529808368        1.99360675978604
H            8.22232816280918       -2.19643005756553        1.26628896765220
Zn          31.41318289887144       -0.01721918226578        0.01578135144801
C           34.82037099916400        0.00255450998740        0.15395405022067
C           34.18178677686762       -1.05264821065399        0.79476545219078
C           34.84637717932151       -2.13185885080486        1.46910238941214
C           33.87999443127628       -2.94949764775268        1.95796940533815
C           32.61209710682041       -2.37294080535064        1.59782393777143
N           32.83080608883196       -1.23009368062735        0.88555739915907
C           31.35637911503760       -2.91120269025398        1.90913919910664
C           31.32986560747510       -4.14876997637497        2.72644283347800
C           30.75428923275251       -5.32033951003404        2.22884637002656
C           30.72550762476572       -6.47603298316141        2.98930721688175
C           31.27297378713120       -6.48309689458918        4.27462211672953
N           31.20011643465637       -7.62241011415057        5.05862809799305
C           31.84087384510505       -5.31277311580198        4.78411250104097
C           31.87362074607043       -4.16418014170848        4.01306860981653
C           30.12391160408094       -2.37606167220796        1.51788633614212
C           28.83820386289786       -2.89802754981268        1.89007289608162
C           27.90044152012125       -2.09650506012566        1.32322720745549
N           29.94175063899752       -1.25935580016853        0.74519825708450
C           28.60206118313771       -1.07164031482447        0.60836732139672
C           27.98125105080539       -0.03383398878343       -0.11714176450897
C           28.64540940275822        1.00929580940053       -0.79436062589417
C           27.99089823873041        2.03112891818060       -1.55647860313198
C           28.96203396604093        2.84293014400582       -2.04806308059776
C           30.22041370886866        2.33054949539738       -1.58111852325730
N           29.99000336100358        1.20861699260575       -0.82927599961418
C           31.47450228606331        2.87984912007255       -1.87133616703423
C           31.50322658928881        4.12354536909423       -2.67933953861249
C           30.88384797039505        5.28787360740515       -2.21877263010870
C           30.91508021826871        6.45203978798596       -2.96611984047311
C           31.55804761344799        6.47196912075953       -4.20627020004167
N           31.62621136100810        7.64558381627980       -4.93859851757684
C           32.18299088553589        5.31290834155423       -4.67290357944444
C           32.15488008249964        4.15573555510978       -3.91455808829093
C           32.70712142269282        2.35444823645499       -1.46101257975515
C           33.99282502934300        2.94918449321508       -1.71261914189433
C           34.92622404075392        2.14150209844314       -1.14918774817368
C           34.22266578934063        1.05047839160406       -0.53616045003501
N           32.88145717356176        1.21068742109707       -0.73794984553690
H           35.90519968978986        0.00988078545988        0.19874990153966
H           35.91669766267275       -2.24475738595451        1.54521619433473
H           34.01061873922266       -3.87013285522876        2.50410519427867
H           30.34197795818669       -5.32746560757408        1.22567932555620
H           30.28048303314108       -7.38068897684029        2.58943423538581
H           31.09531272591383       -8.48397217579689        4.54689245861624
H           31.87965648992436       -7.67112386936061        5.80092457370762
H           32.25524360279241       -5.30842875601445        5.78643119335048
H           32.30676377755350       -3.25679483187872        4.41984617008080
H           28.67419584061868       -3.75875241167829        2.51818987432600
H           26.82723297959615       -2.18091204484977        1.38721927051485
H           26.92463963566161        2.10631469128315       -1.70016868537571
H           28.83890235434187        3.70560960729209       -2.68296406648655
H           30.39082504038990        5.28320804323765       -1.25269777118143
H           30.44038775914209        7.35273891652769       -2.59222632726189
H           30.90156786725694        8.31527595760719       -4.73467611917783
H           31.79747820641753        7.52114982727453       -5.92372910203466
H           32.68674350049100        5.32303332689391       -5.63340765849321
H           32.62704793765378        3.25513311275841       -4.29200568215680
H           34.15609840393496        3.87477532087112       -2.24114756806315
H           35.99748779681825        2.26908248094643       -1.13538334603241
C           17.64419040524346       -0.11726742778898       -0.12120878334282
C           18.86890199329823       -0.12300198755533       -0.14809777504199
C           20.21112049037922       -0.12457609046598       -0.16836184362675
C           21.44203601748525       -0.11330440846871       -0.18582877408817
C           22.77958799063942       -0.09553634634915       -0.19551557253691
C           24.01047137067659       -0.07604838067502       -0.19664578482291
C           25.35264962063366       -0.05759310318748       -0.18272579306955
C           26.57737398262536       -0.03964678689639       -0.16116586133246

          :  Hamiltonian                  GFN1-xTB          :
         :: total energy            -214.611965375013 Eh    ::
         :: gradient norm              0.000440351475 Eh/a0 ::
         :: HOMO-LUMO gap              1.062643248966 eV    ::
         :: SCC energy              -218.191954960611 Eh    ::
         :: repulsion energy           3.690186328655 Eh    ::

    * Orbital Energies and Occupations

         #    Occupation            Energy/Eh            Energy/eV
      -------------------------------------------------------------
         1        2.0000           -0.7763855             -21.1265
       ...           ...                  ...                  ...
       185        2.0000           -0.4128253             -11.2335
       186        2.0000           -0.4127608             -11.2318
       187        2.0000           -0.4124047             -11.2221
       188        2.0000           -0.4053712             -11.0307
       189        2.0000           -0.3971320             -10.8065
       190        2.0000           -0.3959036             -10.7731
       191        2.0000           -0.3943058             -10.7296
       192        2.0000           -0.3939467             -10.7198
       193        2.0000           -0.3938982             -10.7185
       194        2.0000           -0.3851831             -10.4814
       195        2.0000           -0.3851749             -10.4811
       196        2.0000           -0.3749939             -10.2041
       197        2.0000           -0.3672297              -9.9928 (HOMO)
       198                         -0.3281783              -8.9302 (LUMO)
       199                         -0.3182530              -8.6601
       200                         -0.3169070              -8.6235
       201                         -0.3168995              -8.6233
       202                         -0.2909724              -7.9178
       203                         -0.2888427              -7.8598
       204                         -0.2821481              -7.6776
       205                         -0.2629350              -7.1548
       206                         -0.2544905              -6.9250
       207                         -0.2544857              -6.9249
       208                         -0.2544177              -6.9231
       ...                                ...                  ...
       428                          1.6159053              43.9710
      -------------------------------------------------------------
                  HL-Gap            0.0390514 Eh            1.0626 eV

Wiberg/Mayer (AO) data.
largest (>0.10) Wiberg bond orders for each atom

     #   Z sym  total        # sym  WBO       # sym  WBO       # sym  WBO
 ---------------------------------------------------------------------------
     1  30 Zn   2.000 --    39 N    0.460     7 N    0.459    19 N    0.457
                            26 N    0.457
     2   6 C    3.925 --    38 C    1.357     3 C    1.356    40 H    0.972
     3   6 C    3.923 --     2 C    1.356     7 N    1.232     4 C    1.173
     4   6 C    3.959 --     5 C    1.655     3 C    1.173    41 H    0.976
     5   6 C    3.963 --     4 C    1.655     6 C    1.175    42 H    0.973
     6   6 C    3.916 --     8 C    1.310     7 N    1.245     5 C    1.175
     7   7 N    3.293 --     6 C    1.245     3 C    1.232     1 Zn   0.459
     8   6 C    3.934 --    16 C    1.324     6 C    1.310     9 C    1.032
     9   6 C    3.988 --    15 C    1.382    10 C    1.382     8 C    1.032
    10   6 C    3.988 --    11 C    1.468     9 C    1.382    43 H    0.973
                            14 C    0.100
    11   6 C    3.990 --    10 C    1.468    12 C    1.355    44 H    0.972
                            15 C    0.100
    12   6 C    3.952 --    14 C    1.355    11 C    1.355    13 N    1.113
    13   7 N    3.132 --    12 C    1.113    45 H    0.934    46 H    0.934
    14   6 C    3.990 --    15 C    1.467    12 C    1.355    47 H    0.972
                            10 C    0.100
    15   6 C    3.988 --    14 C    1.467     9 C    1.382    48 H    0.973
                            11 C    0.100
    16   6 C    3.912 --     8 C    1.324    19 N    1.223    17 C    1.180
    17   6 C    3.960 --    18 C    1.644    16 C    1.180    49 H    0.973
    18   6 C    3.961 --    17 C    1.644    20 C    1.188    50 H    0.974
    19   7 N    3.297 --    20 C    1.264    16 C    1.223     1 Zn   0.457
    20   6 C    3.902 --    19 N    1.264    21 C    1.250    18 C    1.188
    21   6 C    3.936 --    22 C    1.251    20 C    1.250   121 C    1.195
    22   6 C    3.902 --    26 N    1.264    21 C    1.251    23 C    1.188
    23   6 C    3.961 --    24 C    1.644    22 C    1.188    51 H    0.974
    24   6 C    3.960 --    23 C    1.644    25 C    1.181    52 H    0.973
    25   6 C    3.912 --    27 C    1.323    26 N    1.224    24 C    1.181
    26   7 N    3.297 --    22 C    1.264    25 C    1.224     1 Zn   0.457
    27   6 C    3.933 --    25 C    1.323    35 C    1.310    28 C    1.032
    28   6 C    3.988 --    34 C    1.382    29 C    1.382    27 C    1.032
    29   6 C    3.988 --    30 C    1.468    28 C    1.382    53 H    0.973
                            33 C    0.100
    30   6 C    3.990 --    29 C    1.468    31 C    1.355    54 H    0.972
                            34 C    0.100
    31   6 C    3.952 --    30 C    1.355    33 C    1.355    32 N    1.114
    32   7 N    3.132 --    31 C    1.114    55 H    0.934    56 H    0.934
    33   6 C    3.990 --    34 C    1.468    31 C    1.355    57 H    0.972
                            29 C    0.100
    34   6 C    3.988 --    33 C    1.468    28 C    1.382    58 H    0.973
                            30 C    0.100
    35   6 C    3.916 --    27 C    1.310    39 N    1.245    36 C    1.175
    36   6 C    3.963 --    37 C    1.655    35 C    1.175    59 H    0.973
    37   6 C    3.960 --    36 C    1.655    38 C    1.173    60 H    0.976
    38   6 C    3.923 --     2 C    1.357    39 N    1.232    37 C    1.173
    39   7 N    3.294 --    35 C    1.245    38 C    1.232     1 Zn   0.460
    40   1 H    1.002 --     2 C    0.972
    41   1 H    0.998 --     4 C    0.976
    42   1 H    1.006 --     5 C    0.973
    43   1 H    1.005 --    10 C    0.973
    44   1 H    0.999 --    11 C    0.972
    45   1 H    0.961 --    13 N    0.934
    46   1 H    0.961 --    13 N    0.934
    47   1 H    0.999 --    14 C    0.972
    48   1 H    1.005 --    15 C    0.973
    49   1 H    1.006 --    17 C    0.973
    50   1 H    1.002 --    18 C    0.974
    51   1 H    1.002 --    23 C    0.974
    52   1 H    1.006 --    24 C    0.973
    53   1 H    1.005 --    29 C    0.973
    54   1 H    0.999 --    30 C    0.972
    55   1 H    0.961 --    32 N    0.934
    56   1 H    0.961 --    32 N    0.934
    57   1 H    0.999 --    33 C    0.972
    58   1 H    1.005 --    34 C    0.973
    59   1 H    1.006 --    36 C    0.973
    60   1 H    0.998 --    37 C    0.976
    61  30 Zn   2.000 --    99 N    0.460    67 N    0.459    79 N    0.457
                            86 N    0.457
    62   6 C    3.925 --    98 C    1.357    63 C    1.356   100 H    0.972
    63   6 C    3.923 --    62 C    1.356    67 N    1.232    64 C    1.173
    64   6 C    3.959 --    65 C    1.655    63 C    1.173   101 H    0.976
    65   6 C    3.963 --    64 C    1.655    66 C    1.175   102 H    0.973
    66   6 C    3.916 --    68 C    1.310    67 N    1.245    65 C    1.175
    67   7 N    3.293 --    66 C    1.245    63 C    1.232    61 Zn   0.459
    68   6 C    3.934 --    76 C    1.324    66 C    1.310    69 C    1.032
    69   6 C    3.988 --    75 C    1.382    70 C    1.382    68 C    1.032
    70   6 C    3.988 --    71 C    1.468    69 C    1.382   103 H    0.973
                            74 C    0.100
    71   6 C    3.990 --    70 C    1.468    72 C    1.355   104 H    0.972
                            75 C    0.100
    72   6 C    3.952 --    74 C    1.355    71 C    1.355    73 N    1.113
    73   7 N    3.132 --    72 C    1.113   105 H    0.934   106 H    0.934
    74   6 C    3.990 --    75 C    1.467    72 C    1.355   107 H    0.972
                            70 C    0.100
    75   6 C    3.988 --    74 C    1.467    69 C    1.382   108 H    0.973
                            71 C    0.100
    76   6 C    3.912 --    68 C    1.324    79 N    1.223    77 C    1.180
    77   6 C    3.960 --    78 C    1.644    76 C    1.180   109 H    0.973
    78   6 C    3.961 --    77 C    1.644    80 C    1.188   110 H    0.974
    79   7 N    3.297 --    80 C    1.264    76 C    1.223    61 Zn   0.457
    80   6 C    3.902 --    79 N    1.264    81 C    1.250    78 C    1.188
    81   6 C    3.936 --    82 C    1.251    80 C    1.250   128 C    1.195
    82   6 C    3.902 --    86 N    1.264    81 C    1.251    83 C    1.188
    83   6 C    3.961 --    84 C    1.644    82 C    1.188   111 H    0.974
    84   6 C    3.960 --    83 C    1.644    85 C    1.181   112 H    0.973
    85   6 C    3.912 --    87 C    1.323    86 N    1.224    84 C    1.181
    86   7 N    3.297 --    82 C    1.264    85 C    1.224    61 Zn   0.457
    87   6 C    3.933 --    85 C    1.323    95 C    1.310    88 C    1.032
    88   6 C    3.988 --    94 C    1.382    89 C    1.382    87 C    1.032
    89   6 C    3.988 --    90 C    1.468    88 C    1.382   113 H    0.973
                            93 C    0.100
    90   6 C    3.990 --    89 C    1.468    91 C    1.355   114 H    0.972
                            94 C    0.100
    91   6 C    3.952 --    93 C    1.355    90 C    1.355    92 N    1.113
    92   7 N    3.132 --    91 C    1.113   116 H    0.934   115 H    0.934
    93   6 C    3.990 --    94 C    1.467    91 C    1.355   117 H    0.972
                            89 C    0.100
    94   6 C    3.988 --    93 C    1.467    88 C    1.382   118 H    0.973
                            90 C    0.100
    95   6 C    3.916 --    87 C    1.310    99 N    1.245    96 C    1.175
    96   6 C    3.963 --    97 C    1.655    95 C    1.175   119 H    0.973
    97   6 C    3.960 --    96 C    1.655    98 C    1.173   120 H    0.976
    98   6 C    3.923 --    62 C    1.357    99 N    1.232    97 C    1.173
    99   7 N    3.294 --    95 C    1.245    98 C    1.232    61 Zn   0.460
   100   1 H    1.002 --    62 C    0.972
   101   1 H    0.998 --    64 C    0.976
   102   1 H    1.006 --    65 C    0.973
   103   1 H    1.005 --    70 C    0.973
   104   1 H    0.999 --    71 C    0.972
   105   1 H    0.961 --    73 N    0.934
   106   1 H    0.961 --    73 N    0.934
   107   1 H    0.999 --    74 C    0.972
   108   1 H    1.005 --    75 C    0.973
   109   1 H    1.006 --    77 C    0.973
   110   1 H    1.002 --    78 C    0.974
   111   1 H    1.002 --    83 C    0.974
   112   1 H    1.006 --    84 C    0.973
   113   1 H    1.005 --    89 C    0.973
   114   1 H    0.999 --    90 C    0.972
   115   1 H    0.961 --    92 N    0.934
   116   1 H    0.961 --    92 N    0.934
   117   1 H    0.999 --    93 C    0.972
   118   1 H    1.005 --    94 C    0.973
   119   1 H    1.006 --    96 C    0.973
   120   1 H    0.998 --    97 C    0.976
   121   6 C    3.876 --   122 C    2.435    21 C    1.195   124 C    0.186
   122   6 C    3.933 --   121 C    2.435   123 C    1.346
   123   6 C    3.892 --   124 C    2.333   122 C    1.346   126 C    0.182
   124   6 C    3.924 --   123 C    2.333   125 C    1.371   121 C    0.186
   125   6 C    3.924 --   126 C    2.333   124 C    1.371   128 C    0.186
   126   6 C    3.892 --   125 C    2.333   127 C    1.346   123 C    0.182
   127   6 C    3.933 --   128 C    2.435   126 C    1.346
   128   6 C    3.876 --   127 C    2.435    81 C    1.195   125 C    0.186
 ---------------------------------------------------------------------------

           -------------------------------------------------
          | TOTAL ENERGY             -214.611965375013 Eh   |
          | GRADIENT NORM               0.000440351475 Eh/α |
          | HOMO-LUMO GAP               1.062643248966 eV   |
           -------------------------------------------------

 * finished run on 2022/07/30 at 09:50:56.699
