   * xtb version 6.5.1 (b24c23e) compiled by 'conda@728c89f4b128' on 2022-07-12
          program call               : xtb Fe_Py_C8_2.xyz --gfn 1 --opt -T 48

   ID    Z sym.   atoms
    1   26 Fe     1, 55
    2    6 C      2-6, 8-11, 13-17, 19-24, 26-29, 31-36, 56-60, 62-65, 67-71,
                  73-78, 80-83, 85-90, 109-116
    3    7 N      7, 12, 18, 25, 30, 37, 61, 66, 72, 79, 84, 91
    4    1 H      38-54, 92-108
########################################################################
[WARNING] Please study the warnings concerning your input carefully
-1- prog_main_parseArguments: Unknown option '-T' provided
########################################################################

          :  Hamiltonian                  GFN1-xTB          :
 * total energy  :  -205.7429420 Eh     change        0.1369926E-08 Eh
 * total energy  :  -205.9924744 Eh     change       -0.2495324E+00 Eh
 * total energy  :  -206.0626873 Eh     change       -0.7021291E-01 Eh
 * total energy  :  -206.0892990 Eh     change       -0.2661177E-01 Eh
 * total energy  :  -206.0997078 Eh     change       -0.1040880E-01 Eh
 * total energy  :  -206.1050467 Eh     change       -0.5338826E-02 Eh
 * total energy  :  -206.1065533 Eh     change       -0.1506605E-02 Eh
 * total energy  :  -206.1086866 Eh     change       -0.2133277E-02 Eh
 * total energy  :  -206.1095293 Eh     change       -0.8427812E-03 Eh
 * total energy  :  -206.1104131 Eh     change       -0.8838096E-03 Eh
 * total energy  :  -206.1126123 Eh     change       -0.1097628E-04 Eh
 * total energy  :  -206.1126224 Eh     change       -0.1013016E-04 Eh
 * total energy  :  -206.1126320 Eh     change       -0.9546216E-05 Eh
 * total energy  :  -206.1126429 Eh     change       -0.1091432E-04 Eh
 * total energy  :  -206.1126538 Eh     change       -0.1095517E-04 Eh
 * total energy  :  -206.1126642 Eh     change       -0.1034924E-04 Eh
 * total energy  :  -206.1126758 Eh     change       -0.1158188E-04 Eh
 * total energy  :  -206.1126858 Eh     change       -0.1000263E-04 Eh
 * total energy  :  -206.1126883 Eh     change       -0.2532066E-05 Eh
   *** GEOMETRY OPTIMIZATION CONVERGED AFTER 44 ITERATIONS ***

 final structure:
================
116
 xtb: 6.5.1 (b24c23e)
Fe           9.82475878083780       -0.04376760533617       -0.06043371547642
C            6.43403414979444       -0.06604614244582       -0.11259377621554
C            7.08574509366021       -1.28103138338549       -0.07165892922726
C            6.40602990944320       -2.54109144091773       -0.04897265535534
C            7.35764095332014       -3.49207930921662        0.09908112749016
C            8.61941861315759       -2.81149213978033        0.15132219173855
N            8.43986609549851       -1.45941859098716        0.03959368887378
C            9.83660039288575       -3.44927208380111        0.36294950060640
C            9.84030298264678       -4.92077681658554        0.54170798801115
C           10.20866953604857       -5.49999881244431        1.75473734866420
C           10.18892247684976       -6.88070308852433        1.87618462359721
N            9.83842900022230       -7.69016765066892        0.88212580402304
C            9.49067495059353       -7.14525264574237       -0.27912792053052
C            9.47339554210001       -5.77635027564241       -0.49583034792531
C           11.04811059429640       -2.77510761150918        0.39891208044158
C           12.31544722924764       -3.42580968750456        0.55166845158038
C           13.26439461689584       -2.46884848921777        0.41726516344510
N           11.22494742999543       -1.42696985532907        0.19321311059035
C           12.57501277801684       -1.23839799909426        0.18469176356281
C           13.23576832879302       -0.02735705515935       -0.05661743403544
C           12.56030254256720        1.18272607722694       -0.25785894691489
C           13.23299437387273        2.41863138894454       -0.50865090441562
C           12.27658194267756        3.37626127314698       -0.56526279784636
C           11.02192226857202        2.72041635638375       -0.34571328969427
N           11.21169933729645        1.36890365249378       -0.18281878077494
C            9.80230224911021        3.38105242613786       -0.29885747235243
C            9.79384597090813        4.85711780208697       -0.41883229152807
C            9.15516803896188        5.49299361921557       -1.48282797760645
C            9.17834520367176        6.87685060697635       -1.55475907945533
N            9.78121933009852        7.63915358131395       -0.64818607546680
C           10.39077251578262        7.04089206071816        0.37014107589747
C           10.42687708088203        5.66410152430899        0.52562296423433
C            8.58738439105163        2.71766563226293       -0.16716792895954
C            7.31572056302423        3.37927822609905       -0.10887302254560
C            6.37179868366787        2.40969632342347       -0.07606873774173
C            7.06811622371964        1.15884207719687       -0.09486425447833
N            8.42349419507169        1.35958767286093       -0.11736211266652
H            5.35030111273414       -0.07419774278807       -0.14389784180512
H            5.33692805299892       -2.66072854381365       -0.12406992629227
H            7.22882906140319       -4.55931543133178        0.17720277434245
H           10.49218003826798       -4.87768243698770        2.59506408826833
H           10.46590379743004       -7.35619398346558        2.81251417928112
H            9.21299924070368       -7.83294711868397       -1.07254341746363
H            9.19239999143509       -5.37601853997129       -1.46257464364746
H           12.45079143614450       -4.48168908525694        0.71988103970583
H           14.33654349057406       -2.57240050417738        0.46136422755678
H           14.29965681710318        2.52412066682356       -0.62383076223169
H           12.39847813767770        4.43103965890088       -0.74970799810611
H            8.66153605964382        4.91110735718950       -2.25198582525812
H            8.69170941908762        7.39467600399114       -2.37608382694931
H           10.87303585611659        7.69071138868398        1.09446005222489
H           10.92719785786955        5.22008627313940        1.37789629696154
H            7.17612406834785        4.44790605504071       -0.09286089715060
H            5.29893221474670        2.51181336778587       -0.03779758929660
Fe          28.37963054207898        0.02153073042829       -0.06972855964523
C           31.77053385611734        0.03014844178902       -0.12090941916594
C           31.11840156612307        1.20401769280334       -0.43610374143439
C           31.79767750258613        2.41669211245102       -0.78004652391668
C           30.84551014867272        3.36883232371404       -0.91669483343760
C           29.58388402508225        2.73190722769423       -0.67049174664515
N           29.76404242804665        1.40602461268194       -0.38342881294554
C           28.36617082196845        3.40269869097182       -0.65546100173061
C           28.36139809497411        4.86245007011857       -0.91314281807087
C           27.99136640728418        5.76972419376598        0.07809465830346
C           28.00943808612403        7.12584823678450       -0.20838890339951
N           28.35954311621160        7.61066171738818       -1.39524162229177
C           28.70880443427093        6.75125496344152       -2.34697654884530
C           28.72820190420395        5.37871013703092       -2.15490874693749
C           27.15480744755363        2.76730754799104       -0.42654846240191
C           25.88710290613066        3.43347871274349       -0.47131808052547
C           24.93860905001972        2.47821252331989       -0.32247141924641
N           26.97864383285411        1.41756788635233       -0.23105822537450
C           25.62864731538481        1.23381024898170       -0.18582454698695
C           24.96848977161653        0.00454523362668       -0.06492189357404
C           25.64462516857997       -1.21139142903906        0.09422283883502
C           24.97273923936138       -2.46742324803214        0.21180543998492
C           25.92957465036676       -3.39954588326693        0.43680875782698
C           27.18366992079236       -2.70725356212991        0.45816912845238
N           26.99319774248855       -1.36675544287596        0.22168134067140
C           28.40340451042039       -3.32478481162564        0.69682561276396
C           28.41288937055212       -4.77216262760923        1.01035374419200
C           29.05334631032762       -5.68854542205997        0.17705760969568
C           29.03177235055385       -7.03375710331440        0.50974040780839
N           28.42887161211318       -7.50098922053844        1.59815558085423
C           27.81750507438282       -6.63382130964218        2.39859849486393
C           27.77965846480767       -5.27119202338806        2.14784399724607
C           29.61788775433936       -2.65077098600306        0.63244539507171
C           30.88957639338790       -3.26599787464873        0.88256683548266
C           31.83324056772583       -2.32804210828585        0.63379383912525
C           31.13669236482892       -1.13713077668957        0.25117102825380
N           29.78139804045905       -1.33663149829002        0.28599185443105
H           32.85431661000040        0.02965827469452       -0.15147939304066
H           32.86685981681679        2.51010659903652       -0.88518385857028
H           30.97374287624757        4.41268770296891       -1.15251951024821
H           27.70762442151526        5.41910660322870        1.06316805009828
H           27.73067141720924        7.85337287272468        0.54826213259615
H           28.98681817383236        7.17806473529276       -3.30618830606014
H           29.01071158687260        4.71417259989058       -2.96261879786345
H           25.75122128268118        4.49249278255676       -0.61798103713503
H           23.86638484179033        2.58947769790017       -0.31181691205579
H           23.90627871222054       -2.60252573430651        0.13068452504979
H           25.80839822918289       -4.46256426953686        0.56627509725890
H           29.54721843047661       -5.35413566178221       -0.72744697541089
H           29.51993630862000       -7.76693799450783       -0.12560590465384
H           27.33537101378428       -7.04616770497829        3.28007831673942
H           27.27794693479218       -4.59966616267829        2.83426986394270
H           31.02936767195131       -4.28378825106245        1.20855360846187
H           32.90606242746168       -2.41394226777885        0.70170797529613
C           14.63608401421545       -0.02509463900658       -0.08607924485838
C           15.86246120359971       -0.02371098082104       -0.10733858135636
C           17.20185719286428       -0.02152277614361       -0.12081233493886
C           18.43476580578115       -0.01899145627919       -0.12683122529866
C           19.76940209831096       -0.02093883858776       -0.12747389145998
C           21.00234861302590       -0.01706993596513       -0.12415757146583
C           22.34175770984740       -0.01099236634915       -0.11156117157083
C           23.56818579634698       -0.00667880783474       -0.09267087237423

          :  Hamiltonian                  GFN1-xTB          :
         :: total energy            -206.112688285702 Eh    ::
         :: gradient norm              0.000552006632 Eh/a0 ::
         :: HOMO-LUMO gap              0.091917494575 eV    ::
         :: SCC energy              -209.492523018806 Eh    ::
         :: repulsion energy           3.483788492399 Eh    ::

    * Orbital Energies and Occupations

         #    Occupation            Energy/Eh            Energy/eV
      -------------------------------------------------------------
         1        2.0000           -0.7760714             -21.1180
       ...           ...                  ...                  ...
       179        2.0000           -0.4222393             -11.4897
       180        2.0000           -0.4222058             -11.4888
       181        2.0000           -0.4173430             -11.3565
       182        2.0000           -0.4037054             -10.9854
       183        2.0000           -0.4037029             -10.9853
       184        2.0000           -0.4021844             -10.9440
       185        1.9918           -0.3961970             -10.7811
       186        1.9909           -0.3961018             -10.7785
       187        1.9449           -0.3943643             -10.7312
       188        1.9438           -0.3943451             -10.7307
       189        1.9390           -0.3942644             -10.7285
       190        1.9389           -0.3942641             -10.7285
       191        1.7199           -0.3927031             -10.6860 (HOMO)
       192        0.2984           -0.3893252             -10.5941 (LUMO)
       193        0.2324           -0.3890513             -10.5866
       194                         -0.3469984              -9.4423
       195                         -0.3354963              -9.1293
       196                         -0.3353240              -9.1246
       197                         -0.3353146              -9.1244
       198                         -0.3120016              -8.4900
       199                         -0.3104981              -8.4491
       200                         -0.3087935              -8.4027
       201                         -0.3087851              -8.4025
       202                         -0.3021337              -8.2215
       ...                                ...                  ...
       406                          1.5919510              43.3192
      -------------------------------------------------------------
                  HL-Gap            0.0033779 Eh            0.0919 eV

Wiberg/Mayer (AO) data.
largest (>0.10) Wiberg bond orders for each atom

     #   Z sym  total        # sym  WBO       # sym  WBO       # sym  WBO
 ---------------------------------------------------------------------------
     1  26 Fe   3.151 --    37 N    0.671     7 N    0.667    18 N    0.664
                            25 N    0.661
     2   6 C    3.925 --     3 C    1.363    36 C    1.363    38 H    0.970
     3   6 C    3.924 --     2 C    1.363     7 N    1.209     4 C    1.172
     4   6 C    3.959 --     5 C    1.651     3 C    1.172    39 H    0.975
     5   6 C    3.961 --     4 C    1.651     6 C    1.174    40 H    0.972
     6   6 C    3.921 --     8 C    1.314     7 N    1.225     5 C    1.174
     7   7 N    3.382 --     6 C    1.225     3 C    1.209     1 Fe   0.667
     8   6 C    3.928 --    15 C    1.336     6 C    1.314     9 C    1.023
     9   6 C    3.986 --    10 C    1.395    14 C    1.394     8 C    1.023
                            12 N    0.107
    10   6 C    3.987 --    11 C    1.441     9 C    1.395    41 H    0.973
                            13 C    0.109
    11   6 C    3.972 --    10 C    1.441    12 N    1.416    42 H    0.972
                            14 C    0.109
    12   7 N    3.031 --    11 C    1.416    13 C    1.416     9 C    0.107
    13   6 C    3.972 --    14 C    1.441    12 N    1.416    43 H    0.972
                            10 C    0.109
    14   6 C    3.987 --    13 C    1.441     9 C    1.394    44 H    0.973
                            11 C    0.109
    15   6 C    3.917 --     8 C    1.336    18 N    1.199    16 C    1.179
    16   6 C    3.956 --    17 C    1.639    15 C    1.179    45 H    0.973
    17   6 C    3.960 --    16 C    1.639    19 C    1.188    46 H    0.973
    18   7 N    3.382 --    19 C    1.247    15 C    1.199     1 Fe   0.664
    19   6 C    3.902 --    20 C    1.249    18 N    1.247    17 C    1.188
    20   6 C    3.926 --    21 C    1.250    19 C    1.249   109 C    1.206
    21   6 C    3.902 --    20 C    1.250    25 N    1.245    22 C    1.188
    22   6 C    3.960 --    23 C    1.638    21 C    1.188    47 H    0.973
    23   6 C    3.957 --    22 C    1.638    24 C    1.180    48 H    0.973
    24   6 C    3.917 --    26 C    1.332    25 N    1.201    23 C    1.180
    25   7 N    3.381 --    21 C    1.245    24 C    1.201     1 Fe   0.661
    26   6 C    3.928 --    24 C    1.332    33 C    1.314    27 C    1.028
    27   6 C    3.986 --    32 C    1.392    28 C    1.392    26 C    1.028
                            30 N    0.107
    28   6 C    3.986 --    29 C    1.442    27 C    1.392    49 H    0.973
                            31 C    0.109
    29   6 C    3.972 --    28 C    1.442    30 N    1.416    50 H    0.972
                            32 C    0.109
    30   7 N    3.030 --    31 C    1.416    29 C    1.416    27 C    0.107
    31   6 C    3.972 --    32 C    1.442    30 N    1.416    51 H    0.972
                            28 C    0.109
    32   6 C    3.987 --    31 C    1.442    27 C    1.392    52 H    0.973
                            29 C    0.109
    33   6 C    3.921 --    26 C    1.314    37 N    1.224    34 C    1.174
    34   6 C    3.961 --    35 C    1.650    33 C    1.174    53 H    0.972
    35   6 C    3.959 --    34 C    1.650    36 C    1.173    54 H    0.975
    36   6 C    3.924 --     2 C    1.363    37 N    1.209    35 C    1.173
    37   7 N    3.383 --    33 C    1.224    36 C    1.209     1 Fe   0.671
    38   1 H    1.000 --     2 C    0.970
    39   1 H    0.997 --     4 C    0.975
    40   1 H    1.004 --     5 C    0.972
    41   1 H    1.003 --    10 C    0.973
    42   1 H    1.013 --    11 C    0.972
    43   1 H    1.013 --    13 C    0.972
    44   1 H    1.003 --    14 C    0.973
    45   1 H    1.004 --    16 C    0.973
    46   1 H    1.001 --    17 C    0.973
    47   1 H    1.001 --    22 C    0.973
    48   1 H    1.004 --    23 C    0.973
    49   1 H    1.004 --    28 C    0.973
    50   1 H    1.013 --    29 C    0.972
    51   1 H    1.013 --    31 C    0.972
    52   1 H    1.003 --    32 C    0.973
    53   1 H    1.004 --    34 C    0.972
    54   1 H    0.997 --    35 C    0.975
    55  26 Fe   3.151 --    91 N    0.671    61 N    0.668    72 N    0.664
                            79 N    0.661
    56   6 C    3.925 --    57 C    1.363    90 C    1.363    92 H    0.970
    57   6 C    3.924 --    56 C    1.363    61 N    1.209    58 C    1.172
    58   6 C    3.959 --    59 C    1.651    57 C    1.172    93 H    0.975
    59   6 C    3.961 --    58 C    1.651    60 C    1.174    94 H    0.972
    60   6 C    3.921 --    62 C    1.314    61 N    1.225    59 C    1.174
    61   7 N    3.382 --    60 C    1.225    57 C    1.209    55 Fe   0.668
    62   6 C    3.928 --    69 C    1.336    60 C    1.314    63 C    1.023
    63   6 C    3.986 --    64 C    1.395    68 C    1.394    62 C    1.023
                            66 N    0.107
    64   6 C    3.987 --    65 C    1.441    63 C    1.395    95 H    0.973
                            67 C    0.109
    65   6 C    3.972 --    64 C    1.441    66 N    1.416    96 H    0.972
                            68 C    0.109
    66   7 N    3.031 --    65 C    1.416    67 C    1.416    63 C    0.107
    67   6 C    3.972 --    68 C    1.441    66 N    1.416    97 H    0.972
                            64 C    0.109
    68   6 C    3.987 --    67 C    1.441    63 C    1.394    98 H    0.973
                            65 C    0.109
    69   6 C    3.917 --    62 C    1.336    72 N    1.199    70 C    1.179
    70   6 C    3.956 --    71 C    1.639    69 C    1.179    99 H    0.973
    71   6 C    3.960 --    70 C    1.639    73 C    1.188   100 H    0.973
    72   7 N    3.382 --    73 C    1.247    69 C    1.199    55 Fe   0.664
    73   6 C    3.902 --    74 C    1.249    72 N    1.247    71 C    1.188
    74   6 C    3.926 --    75 C    1.250    73 C    1.249   116 C    1.206
    75   6 C    3.902 --    74 C    1.250    79 N    1.245    76 C    1.188
    76   6 C    3.960 --    77 C    1.638    75 C    1.188   101 H    0.973
    77   6 C    3.957 --    76 C    1.638    78 C    1.180   102 H    0.973
    78   6 C    3.917 --    80 C    1.332    79 N    1.201    77 C    1.180
    79   7 N    3.381 --    75 C    1.245    78 C    1.201    55 Fe   0.661
    80   6 C    3.928 --    78 C    1.332    87 C    1.314    81 C    1.028
    81   6 C    3.986 --    86 C    1.393    82 C    1.392    80 C    1.028
                            84 N    0.107
    82   6 C    3.986 --    83 C    1.442    81 C    1.392   103 H    0.973
                            85 C    0.109
    83   6 C    3.972 --    82 C    1.442    84 N    1.416   104 H    0.972
                            86 C    0.109
    84   7 N    3.030 --    85 C    1.416    83 C    1.416    81 C    0.107
    85   6 C    3.972 --    86 C    1.442    84 N    1.416   105 H    0.972
                            82 C    0.109
    86   6 C    3.987 --    85 C    1.442    81 C    1.393   106 H    0.973
                            83 C    0.109
    87   6 C    3.921 --    80 C    1.314    91 N    1.224    88 C    1.174
    88   6 C    3.961 --    89 C    1.650    87 C    1.174   107 H    0.972
    89   6 C    3.959 --    88 C    1.650    90 C    1.173   108 H    0.975
    90   6 C    3.924 --    56 C    1.363    91 N    1.209    89 C    1.173
    91   7 N    3.383 --    87 C    1.224    90 C    1.209    55 Fe   0.671
    92   1 H    1.000 --    56 C    0.970
    93   1 H    0.997 --    58 C    0.975
    94   1 H    1.004 --    59 C    0.972
    95   1 H    1.003 --    64 C    0.973
    96   1 H    1.013 --    65 C    0.972
    97   1 H    1.013 --    67 C    0.972
    98   1 H    1.003 --    68 C    0.973
    99   1 H    1.004 --    70 C    0.973
   100   1 H    1.001 --    71 C    0.973
   101   1 H    1.001 --    76 C    0.973
   102   1 H    1.004 --    77 C    0.973
   103   1 H    1.004 --    82 C    0.973
   104   1 H    1.013 --    83 C    0.972
   105   1 H    1.013 --    85 C    0.972
   106   1 H    1.003 --    86 C    0.973
   107   1 H    1.004 --    88 C    0.972
   108   1 H    0.997 --    89 C    0.975
   109   6 C    3.865 --   110 C    2.412    20 C    1.206   112 C    0.182
   110   6 C    3.923 --   109 C    2.412   111 C    1.363
   111   6 C    3.880 --   112 C    2.306   110 C    1.363   114 C    0.178
   112   6 C    3.914 --   111 C    2.306   113 C    1.389   109 C    0.182
   113   6 C    3.914 --   114 C    2.306   112 C    1.389   116 C    0.182
   114   6 C    3.880 --   113 C    2.306   115 C    1.363   111 C    0.178
   115   6 C    3.923 --   116 C    2.412   114 C    1.363
   116   6 C    3.865 --   115 C    2.412    74 C    1.206   113 C    0.182
 ---------------------------------------------------------------------------

           -------------------------------------------------
          | TOTAL ENERGY             -206.112688285702 Eh   |
          | GRADIENT NORM               0.000552006632 Eh/α |
          | HOMO-LUMO GAP               0.091917494575 eV   |
           -------------------------------------------------

 * finished run on 2022/07/29 at 17:33:14.905
