   * xtb version 6.5.1 (b24c23e) compiled by 'conda@728c89f4b128' on 2022-07-12
          program call               : xtb Co_Ph2Me_C6_2.xyz --gfn 1 --opt -T 48

   ID    Z sym.   atoms
    1   27 Co     1, 69
    2    6 C      2-6, 8-11, 13-31, 34-41, 70-74, 76-79, 81-99, 102-109,
                  137-142
    3    7 N      7, 12, 32, 33, 75, 80, 100, 101
    4    1 H      42-68, 110-136
########################################################################
[WARNING] Please study the warnings concerning your input carefully
-1- prog_main_parseArguments: Unknown option '-T' provided
########################################################################

          :  Hamiltonian                  GFN1-xTB          :
 * total energy  :  -226.3043769 Eh     change        0.3047944E-08 Eh
 * total energy  :  -226.4136004 Eh     change       -0.1092235E+00 Eh
 * total energy  :  -226.4625862 Eh     change       -0.4898585E-01 Eh
 * total energy  :  -226.4749916 Eh     change       -0.1240535E-01 Eh
 * total energy  :  -226.4805347 Eh     change       -0.5543095E-02 Eh
 * total energy  :  -226.4832196 Eh     change       -0.2684887E-02 Eh
 * total energy  :  -226.4841828 Eh     change       -0.9632592E-03 Eh
 * total energy  :  -226.4844696 Eh     change       -0.2867743E-03 Eh
 * total energy  :  -226.4847963 Eh     change       -0.3266902E-03 Eh
 * total energy  :  -226.4849364 Eh     change       -0.1401216E-03 Eh
 * total energy  :  -226.4895916 Eh     change       -0.1270593E-04 Eh
 * total energy  :  -226.4895989 Eh     change       -0.7315613E-05 Eh
 * total energy  :  -226.4896007 Eh     change       -0.1838771E-05 Eh
 * total energy  :  -226.4896061 Eh     change       -0.5366046E-05 Eh
 * total energy  :  -226.4895977 Eh     change        0.8365461E-05 Eh
 * total energy  :  -226.4896093 Eh     change       -0.1151246E-04 Eh
 * total energy  :  -226.4895815 Eh     change        0.2774477E-04 Eh
 * total energy  :  -226.4896085 Eh     change       -0.2702044E-04 Eh
 * total energy  :  -226.4896122 Eh     change       -0.3684002E-05 Eh
   *** GEOMETRY OPTIMIZATION CONVERGED AFTER 157 ITERATIONS ***

 final structure:
================
142
 xtb: 6.5.1 (b24c23e)
Co          14.28193867028550        0.34053915879700       -0.61941312054946
C           11.21739876799974        0.72374955885737       -1.87907442712716
C           11.76713832618620        1.78028856136627       -1.18131288419981
C           11.06309542920171        2.99353148609467       -0.89535592079764
C           11.81356156241948        3.67644863590560        0.00217704948082
C           13.01362387579194        2.91859383252679        0.20409352259655
N           12.96181045200446        1.74923585726919       -0.50890002676749
C           14.10766323281695        3.34936936286711        0.94595793461134
C           15.32939478479983        2.69363134237412        0.87823394040659
C           16.56368160380840        3.26311310047520        1.32898807775482
C           17.55609428826865        2.46055885200086        0.87133349608978
N           15.56777450789928        1.51908773847547        0.20523270662016
C           16.92438044041008        1.37127624704545        0.19689246137236
C           17.61516186782607        0.25493962390087       -0.28997151851423
C           16.94304761863932       -0.92632492758801       -0.62545095601843
C           17.59673249523211       -2.18655372294488       -0.78671262610173
C           16.62005146687211       -3.12329683681681       -0.87088859060584
C           15.37110215817558       -2.42473381983498       -0.82571756832542
C           14.14257726080102       -3.02147384486326       -1.07733705003277
C           14.08097668562398       -4.50045058778021       -1.14533706722387
C           13.78250681923915       -5.15681761851686       -2.33669179937606
C           13.73852884382315       -6.54772946327231       -2.38428658491231
C           13.40416194317357       -7.24447822434010       -3.67566777266212
C           13.99258463467174       -7.27781309348411       -1.22908841665875
C           14.29992898606298       -6.63526907880795       -0.03142313463806
C           14.58602774803275       -7.44580151627923        1.20378189035711
C           14.34779282699694       -5.24755579927020        0.00276974793071
C           13.01879160016017       -2.26011455140620       -1.37504666063257
C           11.79747761268244       -2.78365662083831       -1.91331995473248
C           11.03379826687603       -1.72022702501089       -2.26152903534587
C           11.75251848528817       -0.54890282078875       -1.86100657273468
N           12.96236424390103       -0.89129102909532       -1.31571206717467
N           15.58673572752025       -1.07782223323206       -0.66533855250730
C           14.02361712495404        4.60310003411911        1.73199760306711
C           13.79339651188640        5.82766457382737        1.10857311846215
C           13.72332532321449        6.99848111976324        1.85762732912620
C           13.49737833067833        8.31902044877424        1.17204438670597
C           13.88694789818082        6.93628654941652        3.23742582012874
C           14.12648661769724        5.72088946162804        3.87353139603418
C           14.28806261759649        5.66725079744673        5.36869282569111
C           14.19706624279157        4.55814553284616        3.11516686906962
H           10.25275131931926        0.86797332661353       -2.35181297550800
H           10.09852321934139        3.25177937109993       -1.30300618870518
H           11.58889486879857        4.61656297668372        0.47913835139276
H           16.64926209786789        4.18190736838179        1.88621648302790
H           18.62168706758353        2.56901304830045        0.99505753890868
H           18.66588430817402       -2.32525903318155       -0.79784998209976
H           16.72367423150805       -4.18940872407495       -0.99206302703420
H           13.60800995230849       -4.57974883612312       -3.23808268126999
H           13.69577241046870       -8.29406959873590       -3.64008935293855
H           12.32854337222816       -7.19313958806367       -3.85873243414095
H           13.91153576941927       -6.76557969006631       -4.51394196062559
H           13.95760200047348       -8.36202689268474       -1.25960807217581
H           14.71216366702895       -6.80170801757582        2.07378930942517
H           13.76961237674328       -8.14291136803530        1.39932536589166
H           15.49965809255960       -8.02794463782733        1.06790052068883
H           14.58133920813041       -4.73264003049753        0.92820997416660
H           11.57023899597150       -3.83148188484161       -2.02395366594394
H           10.05339965850111       -1.71259823357425       -2.71093964040257
H           13.69072174917072        5.86914833662828        0.02976301488256
H           13.09305769535723        9.05490377286743        1.86712261356984
H           12.80741482019673        8.20705710528147        0.33505422194842
H           14.44327982108950        8.70141775250762        0.78161561621486
H           13.83222290405747        7.84643854874482        3.82587904461323
H           13.30660712354983        5.63886373188011        5.84754157196341
H           14.81594781611782        6.54931319863747        5.73250568464525
H           14.83966886019437        4.77641247329890        5.66918142600970
H           14.37624652307889        3.60347473862632        3.59762527678306
Co          30.11590132768652        0.50609037109217       -0.50478441748066
C           33.18771828666311        1.59750265044640       -1.21604875606849
C           32.63482951479625        0.63715586317026       -2.03901299935880
C           33.33826514778506        0.02343186359081       -3.12432379743547
C           32.58450482530738       -1.02537098093002       -3.53279228087948
C           31.38354383573313       -1.00503185458958       -2.75017366685617
N           31.43723296004837        0.00447290140473       -1.82477363391381
C           30.28844765909599       -1.83596337372023       -2.95778798811285
C           29.06683968055469       -1.58763100550664       -2.34713296147796
C           27.83273173131114       -2.18071424313040       -2.76693548807845
C           26.84025536416774       -1.51745782464561       -2.12392732889352
N           28.82840045102682       -0.61273301529674       -1.40786997917209
C           27.47176496505876       -0.56410079487229       -1.26784390820452
C           26.78063387178473        0.21786367771356       -0.33449332565117
C           27.45230498463797        0.87446293834617        0.70346312893203
C           26.79746781995875        1.38755968175321        1.86517085567584
C           27.77316813331247        1.72997421859518        2.74221785809686
C           29.02279620104374        1.48499697319466        2.08787298801916
C           30.25179897617901        1.88657798660946        2.59456529586921
C           30.31295128437746        2.35921038131968        3.99766856060149
C           30.61676263316583        3.68340012868795        4.30297549022728
C           30.66295173199461        4.10916729447898        5.62800262608674
C           31.00326736823238        5.54050372816338        5.94490028497294
C           30.40593965685377        3.19855500925902        6.64620427336398
C           30.09308143878384        1.87207664362330        6.35574793288840
C           29.80472884380685        0.90601958928814        7.47293156117841
C           30.04271919671626        1.46021027795900        5.03028995318808
C           31.37872290033224        1.95363306873349        1.78437180824745
C           32.60241694785103        2.60969887704954        2.14149124354512
C           33.37029243181621        2.64318666656689        1.02591407669077
C           32.65104003410155        1.93624402601481        0.01009022533613
N           31.43711812231481        1.51471204932148        0.48655168640323
N           28.80856271828655        0.95249733918625        0.84014320180359
C           30.37415364085281       -2.94185928033020       -3.94091451584061
C           30.60589904453005       -2.68708933306648       -5.29091498910560
C           30.68206160700162       -3.73503039397054       -6.20357468480753
C           30.91128399552113       -3.44789051042322       -7.66299357199653
C           30.52263349102348       -5.04222960870843       -5.75603724634799
C           30.28083486121391       -5.31166608161851       -4.41134420471254
C           30.12411544058113       -6.73204323727675       -3.93958744777380
C           30.20433188083604       -4.25712922495786       -3.50907615835704
H           34.15524325367793        2.00646382456156       -1.48326557599056
H           34.30459603446757        0.33988762787976       -3.48388793377893
H           32.80758017586294       -1.74512908061716       -4.30347873741507
H           27.74740644581887       -2.97303769726761       -3.49287327071914
H           25.77472317859526       -1.66742165468949       -2.19261617831987
H           25.72817597369210        1.44086319004043        1.99251205934589
H           27.66884360548244        2.14791061974922        3.73038747529270
H           30.79431620440415        4.39188950911307        3.50141167617104
H           30.72553599782445        5.79062967057603        6.96873203786276
H           32.07758178730035        5.70177674714630        5.83137719626025
H           30.48737303094987        6.21845562433189        5.26388098162789
H           30.44328090776659        3.52403533004237        7.68078255259557
H           29.67473336979505       -0.10625503833262        7.09069669170687
H           30.62197527662092        0.90521226149446        8.19601243448569
H           28.89267314223634        1.19866632324235        7.99690543842021
H           29.80501215703691        0.43022170735065        4.78786890672795
H           32.82804790856918        3.00725283188085        3.11763311866079
H           34.35358718516045        3.06703874155712        0.89676233189642
H           30.70583097445822       -1.66311045407967       -5.63385804823256
H           31.31862060132232       -4.32107624670170       -8.17267228435643
H           31.60011944595191       -2.61195562136237       -7.78896393299238
H           29.96624629598379       -3.18238210723637       -8.14233970154154
H           30.58276858035419       -5.86282631844766       -6.46362299548217
H           31.10718065436984       -7.18147452004696       -3.78148545272562
H           29.59490459635885       -7.32998746601560       -4.68223686950458
H           29.57592798809313       -6.77164514072505       -2.99827131056234
H           30.02397759096174       -4.45212470913643       -2.45755312650905
C           22.81242840187767        0.26926982009438       -0.36863699119746
C           21.58310891046126        0.27744340215469       -0.36103805473370
C           20.24042978071391        0.27929446888802       -0.33850475855038
C           19.01605113003314        0.26961077499768       -0.30614961843445
C           24.15516278283541        0.25272739389912       -0.36564185618725
C           25.37965779445939        0.22790546926886       -0.35195280265826

          :  Hamiltonian                  GFN1-xTB          :
         :: total energy            -226.489612221922 Eh    ::
         :: gradient norm              0.000455918737 Eh/a0 ::
         :: HOMO-LUMO gap              0.019204219448 eV    ::
         :: SCC energy              -230.200713598145 Eh    ::
         :: repulsion energy           3.830680470460 Eh    ::

    * Orbital Energies and Occupations

         #    Occupation            Energy/Eh            Energy/eV
      -------------------------------------------------------------
         1        2.0000           -0.7684285             -20.9100
       ...           ...                  ...                  ...
       200        2.0000           -0.4192512             -11.4084
       201        2.0000           -0.4146735             -11.2838
       202        2.0000           -0.3950387             -10.7495
       203        2.0000           -0.3939178             -10.7190
       204        2.0000           -0.3938549             -10.7173
       205        2.0000           -0.3914694             -10.6524
       206        1.9999           -0.3872734             -10.5382
       207        1.9999           -0.3872361             -10.5372
       208        1.9999           -0.3870706             -10.5327
       209        1.9999           -0.3870502             -10.5322
       210        1.9995           -0.3850260             -10.4771
       211        1.9380           -0.3804778             -10.3533
       212        1.2148           -0.3776215             -10.2756 (HOMO)
       213        0.8479           -0.3769158             -10.2564 (LUMO)
       214                         -0.3360311              -9.1439
       215                         -0.3255486              -8.8586
       216                         -0.3247339              -8.8365
       217                         -0.3246569              -8.8344
       218                         -0.2975748              -8.0974
       219                         -0.2930756              -7.9750
       220                         -0.2817637              -7.6672
       221                         -0.2809216              -7.6443
       222                         -0.2807134              -7.6386
       223                         -0.2638754              -7.1804
       ...                                ...                  ...
       470                          1.5775999              42.9287
      -------------------------------------------------------------
                  HL-Gap            0.0007057 Eh            0.0192 eV

Wiberg/Mayer (AO) data.
largest (>0.10) Wiberg bond orders for each atom

     #   Z sym  total        # sym  WBO       # sym  WBO       # sym  WBO
 ---------------------------------------------------------------------------
     1  27 Co   3.061 --    32 N    0.635     7 N    0.635    12 N    0.634
                            33 N    0.634
     2   6 C    3.925 --     3 C    1.362    31 C    1.359    42 H    0.971
     3   6 C    3.925 --     2 C    1.362     7 N    1.204     4 C    1.174
     4   6 C    3.959 --     5 C    1.647     3 C    1.174    43 H    0.975
     5   6 C    3.963 --     4 C    1.647     6 C    1.178    44 H    0.972
     6   6 C    3.921 --     8 C    1.315     7 N    1.216     5 C    1.178
     7   7 N    3.347 --     6 C    1.216     3 C    1.204     1 Co   0.635
     8   6 C    3.931 --     9 C    1.330     6 C    1.315    34 C    1.025
     9   6 C    3.917 --     8 C    1.330    12 N    1.195    10 C    1.182
    10   6 C    3.959 --    11 C    1.635     9 C    1.182    45 H    0.974
    11   6 C    3.962 --    10 C    1.635    13 C    1.191    46 H    0.974
    12   7 N    3.350 --    13 C    1.236     9 C    1.195     1 Co   0.634
    13   6 C    3.904 --    14 C    1.251    12 N    1.236    11 C    1.191
    14   6 C    3.930 --    15 C    1.253    13 C    1.251   140 C    1.199
    15   6 C    3.904 --    14 C    1.253    33 N    1.232    16 C    1.191
    16   6 C    3.961 --    17 C    1.635    15 C    1.191    47 H    0.974
    17   6 C    3.959 --    16 C    1.635    18 C    1.183    48 H    0.974
    18   6 C    3.917 --    19 C    1.326    33 N    1.198    17 C    1.183
    19   6 C    3.931 --    18 C    1.326    28 C    1.319    20 C    1.026
    20   6 C    3.988 --    21 C    1.404    27 C    1.389    19 C    1.026
                            24 C    0.103
    21   6 C    3.986 --    22 C    1.409    20 C    1.404    49 H    0.972
                            25 C    0.104
    22   6 C    3.988 --    24 C    1.424    21 C    1.409    23 C    1.020
                            27 C    0.103
    23   6 C    3.996 --    22 C    1.020    50 H    0.985    52 H    0.980
                            51 H    0.972
    24   6 C    3.988 --    22 C    1.424    25 C    1.406    53 H    0.972
                            20 C    0.103
    25   6 C    3.988 --    27 C    1.426    24 C    1.406    26 C    1.020
                            21 C    0.104
    26   6 C    3.995 --    25 C    1.020    54 H    0.986    55 H    0.977
                            56 H    0.974
    27   6 C    3.985 --    25 C    1.426    20 C    1.389    57 H    0.972
                            22 C    0.103
    28   6 C    3.921 --    19 C    1.319    32 N    1.214    29 C    1.177
    29   6 C    3.963 --    30 C    1.647    28 C    1.177    58 H    0.972
    30   6 C    3.959 --    29 C    1.647    31 C    1.175    59 H    0.975
    31   6 C    3.925 --     2 C    1.359    32 N    1.207    30 C    1.175
    32   7 N    3.346 --    28 C    1.214    31 C    1.207     1 Co   0.635
    33   7 N    3.351 --    15 C    1.232    18 C    1.198     1 Co   0.634
    34   6 C    3.988 --    35 C    1.400    41 C    1.393     8 C    1.025
                            38 C    0.103
    35   6 C    3.986 --    36 C    1.412    34 C    1.400    60 H    0.972
                            39 C    0.104
    36   6 C    3.988 --    38 C    1.420    35 C    1.412    37 C    1.020
                            41 C    0.103
    37   6 C    3.995 --    36 C    1.020    61 H    0.984    62 H    0.981
                            63 H    0.971
    38   6 C    3.989 --    36 C    1.420    39 C    1.411    64 H    0.972
                            34 C    0.103
    39   6 C    3.988 --    41 C    1.421    38 C    1.411    40 C    1.020
                            35 C    0.104
    40   6 C    3.995 --    39 C    1.020    67 H    0.984    66 H    0.981
                            65 H    0.971
    41   6 C    3.985 --    39 C    1.421    34 C    1.393    68 H    0.972
                            36 C    0.103
    42   1 H    1.000 --     2 C    0.971
    43   1 H    0.998 --     4 C    0.975
    44   1 H    1.005 --     5 C    0.972
    45   1 H    1.004 --    10 C    0.974
    46   1 H    1.001 --    11 C    0.974
    47   1 H    1.001 --    16 C    0.974
    48   1 H    1.004 --    17 C    0.974
    49   1 H    1.003 --    21 C    0.972
    50   1 H    1.004 --    23 C    0.985
    51   1 H    1.006 --    23 C    0.972
    52   1 H    1.005 --    23 C    0.980
    53   1 H    1.000 --    24 C    0.972
    54   1 H    1.003 --    26 C    0.986
    55   1 H    1.005 --    26 C    0.977
    56   1 H    1.005 --    26 C    0.974
    57   1 H    1.002 --    27 C    0.972
    58   1 H    1.005 --    29 C    0.972
    59   1 H    0.998 --    30 C    0.975
    60   1 H    1.003 --    35 C    0.972
    61   1 H    1.004 --    37 C    0.984
    62   1 H    1.004 --    37 C    0.981
    63   1 H    1.006 --    37 C    0.971
    64   1 H    1.000 --    38 C    0.972
    65   1 H    1.006 --    40 C    0.971
    66   1 H    1.004 --    40 C    0.981
    67   1 H    1.004 --    40 C    0.984
    68   1 H    1.002 --    41 C    0.972
    69  27 Co   3.059 --    75 N    0.635   100 N    0.635    80 N    0.634
                           101 N    0.634
    70   6 C    3.925 --    71 C    1.362    99 C    1.359   110 H    0.971
    71   6 C    3.925 --    70 C    1.362    75 N    1.204    72 C    1.174
    72   6 C    3.959 --    73 C    1.647    71 C    1.174   111 H    0.975
    73   6 C    3.963 --    72 C    1.647    74 C    1.178   112 H    0.972
    74   6 C    3.921 --    76 C    1.315    75 N    1.216    73 C    1.178
    75   7 N    3.347 --    74 C    1.216    71 C    1.204    69 Co   0.635
    76   6 C    3.931 --    77 C    1.331    74 C    1.315   102 C    1.025
    77   6 C    3.917 --    76 C    1.331    80 N    1.195    78 C    1.182
    78   6 C    3.959 --    79 C    1.636    77 C    1.182   113 H    0.974
    79   6 C    3.962 --    78 C    1.636    81 C    1.191   114 H    0.974
    80   7 N    3.350 --    81 C    1.236    77 C    1.195    69 Co   0.634
    81   6 C    3.904 --    82 C    1.251    80 N    1.236    79 C    1.191
    82   6 C    3.930 --    83 C    1.253    81 C    1.251   142 C    1.199
    83   6 C    3.904 --    82 C    1.253   101 N    1.232    84 C    1.191
    84   6 C    3.961 --    85 C    1.635    83 C    1.191   115 H    0.974
    85   6 C    3.959 --    84 C    1.635    86 C    1.183   116 H    0.974
    86   6 C    3.917 --    87 C    1.326   101 N    1.198    85 C    1.183
    87   6 C    3.931 --    86 C    1.326    96 C    1.319    88 C    1.025
    88   6 C    3.988 --    89 C    1.404    95 C    1.389    87 C    1.025
                            92 C    0.103
    89   6 C    3.986 --    90 C    1.408    88 C    1.404   117 H    0.972
                            93 C    0.104
    90   6 C    3.988 --    92 C    1.425    89 C    1.408    91 C    1.020
                            95 C    0.103
    91   6 C    3.996 --    90 C    1.020   118 H    0.985   120 H    0.980
                           119 H    0.972
    92   6 C    3.988 --    90 C    1.425    93 C    1.406   121 H    0.972
                            88 C    0.103
    93   6 C    3.988 --    95 C    1.426    92 C    1.406    94 C    1.020
                            89 C    0.104
    94   6 C    3.995 --    93 C    1.020   122 H    0.986   123 H    0.977
                           124 H    0.974
    95   6 C    3.985 --    93 C    1.426    88 C    1.389   125 H    0.972
                            90 C    0.103
    96   6 C    3.921 --    87 C    1.319   100 N    1.214    97 C    1.177
    97   6 C    3.963 --    98 C    1.647    96 C    1.177   126 H    0.972
    98   6 C    3.959 --    97 C    1.647    99 C    1.175   127 H    0.975
    99   6 C    3.925 --    70 C    1.359   100 N    1.207    98 C    1.175
   100   7 N    3.346 --    96 C    1.214    99 C    1.207    69 Co   0.635
   101   7 N    3.351 --    83 C    1.232    86 C    1.198    69 Co   0.634
   102   6 C    3.988 --   103 C    1.401   109 C    1.393    76 C    1.025
                           106 C    0.103
   103   6 C    3.986 --   104 C    1.412   102 C    1.401   128 H    0.972
                           107 C    0.104
   104   6 C    3.988 --   106 C    1.420   103 C    1.412   105 C    1.020
                           109 C    0.103
   105   6 C    3.995 --   104 C    1.020   129 H    0.984   130 H    0.981
                           131 H    0.971
   106   6 C    3.989 --   104 C    1.420   107 C    1.411   132 H    0.972
                           102 C    0.103
   107   6 C    3.988 --   109 C    1.421   106 C    1.411   108 C    1.020
                           103 C    0.104
   108   6 C    3.995 --   107 C    1.020   135 H    0.984   134 H    0.981
                           133 H    0.971
   109   6 C    3.985 --   107 C    1.421   102 C    1.393   136 H    0.972
                           104 C    0.103
   110   1 H    1.000 --    70 C    0.971
   111   1 H    0.998 --    72 C    0.975
   112   1 H    1.005 --    73 C    0.972
   113   1 H    1.004 --    78 C    0.974
   114   1 H    1.001 --    79 C    0.974
   115   1 H    1.001 --    84 C    0.974
   116   1 H    1.004 --    85 C    0.974
   117   1 H    1.003 --    89 C    0.972
   118   1 H    1.004 --    91 C    0.985
   119   1 H    1.006 --    91 C    0.972
   120   1 H    1.005 --    91 C    0.980
   121   1 H    1.000 --    92 C    0.972
   122   1 H    1.003 --    94 C    0.986
   123   1 H    1.005 --    94 C    0.977
   124   1 H    1.005 --    94 C    0.974
   125   1 H    1.002 --    95 C    0.972
   126   1 H    1.005 --    97 C    0.972
   127   1 H    0.998 --    98 C    0.975
   128   1 H    1.003 --   103 C    0.972
   129   1 H    1.004 --   105 C    0.984
   130   1 H    1.004 --   105 C    0.981
   131   1 H    1.006 --   105 C    0.971
   132   1 H    1.000 --   106 C    0.972
   133   1 H    1.006 --   108 C    0.971
   134   1 H    1.004 --   108 C    0.981
   135   1 H    1.004 --   108 C    0.984
   136   1 H    1.002 --   109 C    0.972
   137   6 C    3.918 --   138 C    2.354   141 C    1.343   140 C    0.188
   138   6 C    3.918 --   137 C    2.354   139 C    1.343   142 C    0.188
   139   6 C    3.927 --   140 C    2.435   138 C    1.343
   140   6 C    3.885 --   139 C    2.435    14 C    1.199   137 C    0.188
   141   6 C    3.927 --   142 C    2.435   137 C    1.343
   142   6 C    3.885 --   141 C    2.435    82 C    1.199   138 C    0.188
 ---------------------------------------------------------------------------

           -------------------------------------------------
          | TOTAL ENERGY             -226.489612221922 Eh   |
          | GRADIENT NORM               0.000455918737 Eh/α |
          | HOMO-LUMO GAP               0.019204219448 eV   |
           -------------------------------------------------

 * finished run on 2022/07/30 at 00:43:00.891
