   * xtb version 6.5.1 (b24c23e) compiled by 'conda@728c89f4b128' on 2022-07-12
          program call               : xtb Ni_PhCHO_C6_2.xyz --gfn 1 --opt -T 48

   ID    Z sym.   atoms
    1   28 Ni     1, 61
    2    6 C      2-6, 8-13, 15-19, 21-26, 28-33, 35-40, 62-66, 68-73, 75-79,
                  81-86, 88-93, 95-100, 121-126
    3    7 N      7, 20, 27, 41, 67, 80, 87, 101
    4    8 O      14, 34, 74, 94
    5    1 H      42-60, 102-120
########################################################################
[WARNING] Please study the warnings concerning your input carefully
-1- prog_main_parseArguments: Unknown option '-T' provided
########################################################################

          :  Hamiltonian                  GFN1-xTB          :
 * total energy  :  -229.1368072 Eh     change       -0.1460364E-08 Eh
 * total energy  :  -229.2282416 Eh     change       -0.9143436E-01 Eh
 * total energy  :  -229.2715765 Eh     change       -0.4333484E-01 Eh
 * total energy  :  -229.2834085 Eh     change       -0.1183201E-01 Eh
 * total energy  :  -229.2905489 Eh     change       -0.7140460E-02 Eh
 * total energy  :  -229.2943938 Eh     change       -0.3844900E-02 Eh
 * total energy  :  -229.2968627 Eh     change       -0.2468895E-02 Eh
 * total energy  :  -229.2980712 Eh     change       -0.1208483E-02 Eh
 * total energy  :  -229.2990342 Eh     change       -0.9630147E-03 Eh
 * total energy  :  -229.2993878 Eh     change       -0.3535452E-03 Eh
 * total energy  :  -229.3009926 Eh     change       -0.8784415E-05 Eh
 * total energy  :  -229.3010019 Eh     change       -0.9251016E-05 Eh
 * total energy  :  -229.3010099 Eh     change       -0.8062311E-05 Eh
 * total energy  :  -229.3010152 Eh     change       -0.5224887E-05 Eh
 * total energy  :  -229.3010249 Eh     change       -0.9696368E-05 Eh
 * total energy  :  -229.3010306 Eh     change       -0.5702174E-05 Eh
 * total energy  :  -229.3010325 Eh     change       -0.1923364E-05 Eh
 * total energy  :  -229.3010378 Eh     change       -0.5344895E-05 Eh
 * total energy  :  -229.3010426 Eh     change       -0.4735134E-05 Eh
   *** GEOMETRY OPTIMIZATION CONVERGED AFTER 35 ITERATIONS ***

 final structure:
================
126
 xtb: 6.5.1 (b24c23e)
Ni          14.56718608479035        0.03280403118417       -0.06288570184156
C           11.17494805790116        0.08668311569586       -0.16622119308876
C           11.83969566459130        1.29377704948506       -0.11363689400527
C           11.17202974958755        2.55919168098692       -0.08016751409008
C           12.13097266482497        3.49924743847197        0.08626460365247
C           13.38601052146627        2.80766861018432        0.13864213388935
N           13.19785625605867        1.45524313990798        0.00183246056320
C           14.60328156733262        3.43087010275874        0.38036373339827
C           14.62125081217278        4.89805360119005        0.59229454471444
C           14.99255408059787        5.42599117291382        1.83196432846760
C           15.00789990262364        6.79324358998530        2.03040005318965
C           14.65823681986571        7.66267334736020        0.99201989481833
C           14.68607541458080        9.11801162276243        1.22766800882638
O           14.99149417939663        9.61984110574961        2.27881546715800
C           14.29035410765113        7.13537392624305       -0.24801050137697
C           14.26974005942459        5.76579792496619       -0.44454245566511
C           15.80769541515839        2.74184898551372        0.42320855069780
C           17.07671799400952        3.37720655435194        0.61241020191121
C           18.02003077304269        2.41592393722294        0.47156840400497
N           15.97323540014009        1.39651054206646        0.18279000164273
C           17.32637475051945        1.19805280711410        0.19643571727956
C           17.98125948266529       -0.00703160599738       -0.07220160115179
C           17.29641718568799       -1.20195202746142       -0.30719328419583
C           17.95737968250186       -2.43825521281081       -0.58005554557176
C           16.99256237328656       -3.38572548429509       -0.65753427146364
C           15.74408720512589       -2.72379341040292       -0.42778689990288
N           15.94051289674361       -1.37394520507173       -0.24550337315608
C           14.52049222134067       -3.37968015459047       -0.38756205998514
C           14.50413354564360       -4.85510510435267       -0.51789254214206
C           13.85246200380860       -5.46139824400717       -1.59532048000317
C           13.83940398431850       -6.83914854669654       -1.72088857517922
C           14.47389272007026       -7.63858035039693       -0.76712876149398
C           14.47193538025753       -9.10892050577860       -0.87695517724595
O           15.00280235971704       -9.84020037717157       -0.08094375328126
C           15.12425560450324       -7.03196929209233        0.31252986988434
C           15.14200085280813       -5.65586809186543        0.43417885774441
C           13.31231396333119       -2.70911195133095       -0.24602196748416
C           12.03706129405824       -3.36227901032461       -0.18721772125519
C           11.09945847739849       -2.38737939971160       -0.14384676093494
C           11.80274495441876       -1.14117170437156       -0.15578678702923
N           13.15938418516481       -1.34659743113375       -0.18895424058003
H           10.09184281857813        0.10376051827772       -0.19858318622129
H           10.10444061947945        2.68890796641572       -0.15867549026990
H           12.01121027076156        4.56635235976799        0.17913907134089
H           15.25520154695252        4.75330956173324        2.64050501634956
H           15.28970421241980        7.21199653637842        2.99049979956287
H           14.39522481802597        9.72807902464205        0.34592811835543
H           14.02155358230762        7.80329776356138       -1.05989577597145
H           13.99505352065557        5.35893173404204       -1.41119037139517
H           17.21824452100453        4.42727242892979        0.80878140389155
H           19.09191029083139        2.50896589837372        0.53725424903754
H           19.02354380100814       -2.55048125228885       -0.69292613374465
H           17.10497900250703       -4.43813146551607       -0.86047110515480
H           13.36985015675887       -4.84273511191447       -2.34354093010939
H           13.33626058385249       -7.30157758940867       -2.56385326133657
H           13.93434044644205       -9.49853549992821       -1.76768620461012
H           15.61152838658282       -7.66099749270942        1.04975277115846
H           15.63793621618751       -5.18846372355177        1.27731897759507
H           11.89135569542820       -4.43017415968304       -0.17753398113432
H           10.02623440832190       -2.48284018460563       -0.10101302333553
Ni          30.57031340551358       -0.02393237543722       -0.06747771626423
C           33.96262783465063       -0.06270175504082       -0.17524931507788
C           33.29784220529333       -1.26492608474973       -0.29542970778541
C           33.96550470296656       -2.52218693452419       -0.44269630894018
C           33.00647523261718       -3.47630687298568       -0.41288537709088
C           31.75141904314568       -2.79923425856658       -0.26271604219984
N           31.93961982616783       -1.44112953483889       -0.20496701725962
C           30.53414223583572       -3.45054602469674       -0.11240326470254
C           30.51623457620115       -4.93295570750370       -0.11156870649842
C           30.14503454351619       -5.63198003804144        1.04036752042851
C           30.12987556247484       -7.01355466091673        1.04223054875162
C           30.47984781273283       -7.72633471718369       -0.10924655219471
C           30.45315141311486       -9.20041388386956       -0.08281943624006
O           30.14666316761415       -9.84672165830448        0.88592679006337
C           30.84747936614701       -7.02789076060522       -1.26167145327343
C           30.86779464718496       -5.64427911926941       -1.26135036703220
C           29.32972586129584       -2.77469283724187        0.02830433099526
C           28.06072914455642       -3.43056754741670        0.12509439281240
C           27.11737096066866       -2.45906737622409        0.12248415330636
N           29.16414040186729       -1.40884041378746       -0.01808051803783
C           27.81099501475241       -1.21438446143993        0.02386469254158
C           27.15625472577442        0.01677403687556       -0.07022837471679
C           27.84123409605653        1.23289925645508       -0.13262275184913
C           27.18019321267612        2.49541312069748       -0.22666151476402
C           28.14494521667577        3.44431970625106       -0.16844094490237
C           29.39350192763111        2.75648518685819       -0.03562259185648
N           29.19715540772960        1.39441143183557       -0.04746372743783
C           30.61709029205002        3.40011834126687        0.09696567774900
C           30.63329709914677        4.87905845918662        0.17820044061307
C           31.28468369889197        5.63294097643698       -0.80184100596112
C           31.29764386428364        7.01452130815426       -0.72954281441173
C           30.66330013381424        7.66965322482044        0.32863167598329
C           30.66481117917456        9.14065228895669        0.42951739271160
O           30.13468303882013        9.75076489439046        1.32224392303426
C           30.01326585027888        6.91513568809199        1.31086769276300
C           29.99559688275459        5.53576115655537        1.23491122152161
C           31.82533660274069        2.71632338123055        0.14133326907342
C           33.10060509110269        3.35452475990220        0.29212066355690
C           34.03816907145806        2.38323734118982        0.19733594868931
C           33.33485369838725        1.15131636016660        0.00891769205387
N           31.97823013037178        1.35947107555939        0.00470603659686
H           35.04575559089530       -0.07514325338686       -0.20897647909634
H           35.03313021419297       -2.63941352953421       -0.53844526662705
H           33.12618622839293       -4.54572947218881       -0.47357960691173
H           29.88239103034093       -5.08123858795896        1.93642927192144
H           29.84831469543947       -7.56470127987467        1.93302580140744
H           30.74218923750434       -9.67873005501848       -1.04287736140807
H           31.11637866003049       -7.57345218229724       -2.16033501956468
H           31.14233636083944       -5.10397069484121       -2.16029275291177
H           27.91922940278605       -4.49789704731083        0.17000942391951
H           26.04550385543985       -2.56061848700692        0.17422372990751
H           26.11399699265299        2.62245332570313       -0.32222124994748
H           28.03243946190416        4.51489387864572       -0.21929920772515
H           31.76711784019444        5.12743171058327       -1.63082118045478
H           31.80059314083298        7.59253859176079       -1.49800101247355
H           31.20340549567209        9.65335700937258       -0.39581295421365
H           29.52604881067995        7.43249568723285        2.13035820980728
H           29.49984175808509        4.95280826049750        2.00282873415940
H           33.24639065432171        4.41030524832387        0.45273971009841
H           35.11138855480547        2.47163012582220        0.25343728577056
C           23.18258045017914        0.01245571879637       -0.10486112318320
C           21.95496544749059       -0.00206244273076       -0.10619874803229
C           20.60976583451090       -0.01016649425725       -0.09939060503008
C           19.38654912124953       -0.01636527067920       -0.09138615832338
C           24.52778913183494        0.02019753710909       -0.09797163380903
C           25.75099530486258        0.02896724197216       -0.08863707575465

          :  Hamiltonian                  GFN1-xTB          :
         :: total energy            -229.301042576670 Eh    ::
         :: gradient norm              0.000587361172 Eh/a0 ::
         :: HOMO-LUMO gap              1.234569768893 eV    ::
         :: SCC energy              -232.859771069681 Eh    ::
         :: repulsion energy           3.670759035541 Eh    ::

    * Orbital Energies and Occupations

         #    Occupation            Energy/Eh            Energy/eV
      -------------------------------------------------------------
         1        2.0000           -0.7934192             -21.5900
       ...           ...                  ...                  ...
       197        2.0000           -0.4259035             -11.5894
       198        2.0000           -0.4110687             -11.1857
       199        2.0000           -0.4110334             -11.1848
       200        2.0000           -0.4105861             -11.1726
       201        2.0000           -0.4105816             -11.1725
       202        2.0000           -0.4098008             -11.1512
       203        2.0000           -0.4098001             -11.1512
       204        2.0000           -0.4087413             -11.1224
       205        2.0000           -0.4087396             -11.1224
       206        2.0000           -0.4086663             -11.1204
       207        2.0000           -0.4086651             -11.1203
       208        2.0000           -0.4073726             -11.0852
       209        2.0000           -0.3971902             -10.8081 (HOMO)
       210                         -0.3518206              -9.5735 (LUMO)
       211                         -0.3447897              -9.3822
       212                         -0.3447889              -9.3822
       213                         -0.3412073              -9.2847
       214                         -0.3411750              -9.2838
       215                         -0.3406402              -9.2693
       216                         -0.3285475              -8.9402
       217                         -0.3281248              -8.9287
       218                         -0.3238829              -8.8133
       219                         -0.3238729              -8.8130
       220                         -0.3099349              -8.4338
       ...                                ...                  ...
       438                          1.5692152              42.7005
      -------------------------------------------------------------
                  HL-Gap            0.0453696 Eh            1.2346 eV

Wiberg/Mayer (AO) data.
largest (>0.10) Wiberg bond orders for each atom

     #   Z sym  total        # sym  WBO       # sym  WBO       # sym  WBO
 ---------------------------------------------------------------------------
     1  28 Ni   3.009 --     7 N    0.663    41 N    0.663    20 N    0.661
                            27 N    0.661
     2   6 C    3.935 --     3 C    1.365    40 C    1.364    42 H    0.970
     3   6 C    3.922 --     2 C    1.365     7 N    1.213     4 C    1.174
     4   6 C    3.960 --     5 C    1.651     3 C    1.174    43 H    0.975
     5   6 C    3.963 --     4 C    1.651     6 C    1.176    44 H    0.972
     6   6 C    3.919 --     8 C    1.322     7 N    1.222     5 C    1.176
     7   7 N    3.402 --     6 C    1.222     3 C    1.213     1 Ni   0.663
     8   6 C    3.938 --    17 C    1.328     6 C    1.322     9 C    1.025
     9   6 C    3.986 --    16 C    1.386    10 C    1.383     8 C    1.025
    10   6 C    3.988 --    11 C    1.470     9 C    1.383    45 H    0.972
                            15 C    0.101
    11   6 C    3.988 --    10 C    1.470    12 C    1.371    46 H    0.968
                            16 C    0.101
    12   6 C    3.985 --    15 C    1.379    11 C    1.371    13 C    1.048
    13   6 C    3.864 --    14 O    1.809    12 C    1.048    47 H    0.942
    14   8 O    2.005 --    13 C    1.809
    15   6 C    3.993 --    16 C    1.464    12 C    1.379    48 H    0.971
                            10 C    0.101
    16   6 C    3.988 --    15 C    1.464     9 C    1.386    49 H    0.972
                            11 C    0.101
    17   6 C    3.914 --     8 C    1.328    20 N    1.206    18 C    1.182
    18   6 C    3.958 --    19 C    1.638    17 C    1.182    50 H    0.972
    19   6 C    3.961 --    18 C    1.638    21 C    1.190    51 H    0.973
    20   7 N    3.407 --    21 C    1.239    17 C    1.206     1 Ni   0.661
    21   6 C    3.902 --    22 C    1.263    20 N    1.239    19 C    1.190
    22   6 C    3.945 --    23 C    1.265    21 C    1.263   124 C    1.183
    23   6 C    3.902 --    22 C    1.265    27 N    1.237    24 C    1.191
    24   6 C    3.961 --    25 C    1.636    23 C    1.191    52 H    0.973
    25   6 C    3.959 --    24 C    1.636    26 C    1.183    53 H    0.973
    26   6 C    3.914 --    28 C    1.325    27 N    1.208    25 C    1.183
    27   7 N    3.406 --    23 C    1.237    26 C    1.208     1 Ni   0.661
    28   6 C    3.938 --    26 C    1.325    37 C    1.321    29 C    1.030
    29   6 C    3.986 --    30 C    1.384    36 C    1.381    28 C    1.030
    30   6 C    3.988 --    31 C    1.465    29 C    1.384    54 H    0.972
                            35 C    0.101
    31   6 C    3.993 --    30 C    1.465    32 C    1.379    55 H    0.971
                            36 C    0.100
    32   6 C    3.984 --    31 C    1.379    35 C    1.370    33 C    1.049
    33   6 C    3.864 --    34 O    1.809    32 C    1.049    56 H    0.942
    34   8 O    2.004 --    33 C    1.809
    35   6 C    3.988 --    36 C    1.470    32 C    1.370    57 H    0.968
                            30 C    0.101
    36   6 C    3.988 --    35 C    1.470    29 C    1.381    58 H    0.972
                            31 C    0.100
    37   6 C    3.919 --    28 C    1.321    41 N    1.222    38 C    1.176
    38   6 C    3.963 --    39 C    1.650    37 C    1.176    59 H    0.972
    39   6 C    3.959 --    38 C    1.650    40 C    1.174    60 H    0.975
    40   6 C    3.922 --     2 C    1.364    41 N    1.213    39 C    1.174
    41   7 N    3.402 --    37 C    1.222    40 C    1.213     1 Ni   0.663
    42   1 H    1.000 --     2 C    0.970
    43   1 H    0.997 --     4 C    0.975
    44   1 H    1.004 --     5 C    0.972
    45   1 H    1.003 --    10 C    0.972
    46   1 H    1.005 --    11 C    0.968
    47   1 H    1.010 --    13 C    0.942
    48   1 H    1.000 --    15 C    0.971
    49   1 H    1.003 --    16 C    0.972
    50   1 H    1.004 --    18 C    0.972
    51   1 H    1.001 --    19 C    0.973
    52   1 H    1.001 --    24 C    0.973
    53   1 H    1.003 --    25 C    0.973
    54   1 H    1.004 --    30 C    0.972
    55   1 H    1.000 --    31 C    0.971
    56   1 H    1.010 --    33 C    0.942
    57   1 H    1.005 --    35 C    0.968
    58   1 H    1.004 --    36 C    0.972
    59   1 H    1.004 --    38 C    0.972
    60   1 H    0.997 --    39 C    0.975
    61  28 Ni   3.009 --    67 N    0.663   101 N    0.663    80 N    0.661
                            87 N    0.661
    62   6 C    3.935 --    63 C    1.364   100 C    1.364   102 H    0.970
    63   6 C    3.922 --    62 C    1.364    67 N    1.213    64 C    1.174
    64   6 C    3.960 --    65 C    1.651    63 C    1.174   103 H    0.975
    65   6 C    3.963 --    64 C    1.651    66 C    1.176   104 H    0.972
    66   6 C    3.919 --    68 C    1.322    67 N    1.222    65 C    1.176
    67   7 N    3.402 --    66 C    1.222    63 C    1.213    61 Ni   0.663
    68   6 C    3.938 --    77 C    1.328    66 C    1.322    69 C    1.025
    69   6 C    3.986 --    76 C    1.386    70 C    1.383    68 C    1.025
    70   6 C    3.988 --    71 C    1.470    69 C    1.383   105 H    0.972
                            75 C    0.101
    71   6 C    3.988 --    70 C    1.470    72 C    1.371   106 H    0.968
                            76 C    0.101
    72   6 C    3.985 --    75 C    1.379    71 C    1.371    73 C    1.048
    73   6 C    3.864 --    74 O    1.809    72 C    1.048   107 H    0.942
    74   8 O    2.005 --    73 C    1.809
    75   6 C    3.993 --    76 C    1.464    72 C    1.379   108 H    0.971
                            70 C    0.101
    76   6 C    3.988 --    75 C    1.464    69 C    1.386   109 H    0.972
                            71 C    0.101
    77   6 C    3.914 --    68 C    1.328    80 N    1.206    78 C    1.182
    78   6 C    3.958 --    79 C    1.638    77 C    1.182   110 H    0.972
    79   6 C    3.961 --    78 C    1.638    81 C    1.190   111 H    0.973
    80   7 N    3.407 --    81 C    1.239    77 C    1.206    61 Ni   0.661
    81   6 C    3.902 --    82 C    1.263    80 N    1.239    79 C    1.190
    82   6 C    3.945 --    83 C    1.265    81 C    1.263   126 C    1.183
    83   6 C    3.902 --    82 C    1.265    87 N    1.237    84 C    1.191
    84   6 C    3.961 --    85 C    1.636    83 C    1.191   112 H    0.973
    85   6 C    3.959 --    84 C    1.636    86 C    1.183   113 H    0.973
    86   6 C    3.914 --    88 C    1.325    87 N    1.208    85 C    1.183
    87   7 N    3.406 --    83 C    1.237    86 C    1.208    61 Ni   0.661
    88   6 C    3.938 --    86 C    1.325    97 C    1.321    89 C    1.030
    89   6 C    3.986 --    90 C    1.384    96 C    1.381    88 C    1.030
    90   6 C    3.988 --    91 C    1.465    89 C    1.384   114 H    0.972
                            95 C    0.101
    91   6 C    3.993 --    90 C    1.465    92 C    1.379   115 H    0.971
                            96 C    0.100
    92   6 C    3.984 --    91 C    1.379    95 C    1.370    93 C    1.049
    93   6 C    3.864 --    94 O    1.809    92 C    1.049   116 H    0.942
    94   8 O    2.004 --    93 C    1.809
    95   6 C    3.988 --    96 C    1.470    92 C    1.370   117 H    0.968
                            90 C    0.101
    96   6 C    3.988 --    95 C    1.470    89 C    1.381   118 H    0.972
                            91 C    0.100
    97   6 C    3.919 --    88 C    1.321   101 N    1.222    98 C    1.176
    98   6 C    3.963 --    99 C    1.650    97 C    1.176   119 H    0.972
    99   6 C    3.959 --    98 C    1.650   100 C    1.174   120 H    0.975
   100   6 C    3.922 --    62 C    1.364   101 N    1.213    99 C    1.174
   101   7 N    3.402 --    97 C    1.222   100 C    1.213    61 Ni   0.663
   102   1 H    1.000 --    62 C    0.970
   103   1 H    0.997 --    64 C    0.975
   104   1 H    1.004 --    65 C    0.972
   105   1 H    1.003 --    70 C    0.972
   106   1 H    1.005 --    71 C    0.968
   107   1 H    1.010 --    73 C    0.942
   108   1 H    1.000 --    75 C    0.971
   109   1 H    1.003 --    76 C    0.972
   110   1 H    1.004 --    78 C    0.972
   111   1 H    1.001 --    79 C    0.973
   112   1 H    1.001 --    84 C    0.973
   113   1 H    1.003 --    85 C    0.973
   114   1 H    1.004 --    90 C    0.972
   115   1 H    1.000 --    91 C    0.971
   116   1 H    1.010 --    93 C    0.942
   117   1 H    1.005 --    95 C    0.968
   118   1 H    1.004 --    96 C    0.972
   119   1 H    1.004 --    98 C    0.972
   120   1 H    0.997 --    99 C    0.975
   121   6 C    3.928 --   122 C    2.377   125 C    1.330   124 C    0.191
   122   6 C    3.928 --   121 C    2.377   123 C    1.330   126 C    0.191
   123   6 C    3.938 --   124 C    2.458   122 C    1.330
   124   6 C    3.892 --   123 C    2.458    22 C    1.183   121 C    0.191
   125   6 C    3.938 --   126 C    2.458   121 C    1.330
   126   6 C    3.892 --   125 C    2.458    82 C    1.183   122 C    0.191
 ---------------------------------------------------------------------------

           -------------------------------------------------
          | TOTAL ENERGY             -229.301042576670 Eh   |
          | GRADIENT NORM               0.000587361172 Eh/α |
          | HOMO-LUMO GAP               1.234569768893 eV   |
           -------------------------------------------------

 * finished run on 2022/07/30 at 04:25:51.336
