   * xtb version 6.5.1 (b24c23e) compiled by 'conda@728c89f4b128' on 2022-07-12
          program call               : xtb Co_PhNH2_C4_3.xyz --gfn 1 --opt -T 48

   ID    Z sym.   atoms
    1   27 Co     1, 61, 129
    2    6 C      2-6, 8-12, 14-18, 20-25, 27-31, 33-38, 62-66, 68-72, 74-78,
                  80-85, 87-91, 93-98, 121-128, 130-134, 136-140, 142-146,
                  148-153, 155-159, 161-166
    3    7 N      7, 13, 19, 26, 32, 39, 67, 73, 79, 86, 92, 99, 135, 141,
                  147, 154, 160, 167
    4    1 H      40-60, 100-120, 168-187
########################################################################
[WARNING] Please study the warnings concerning your input carefully
-1- prog_main_parseArguments: Unknown option '-T' provided
########################################################################

          :  Hamiltonian                  GFN1-xTB          :
 * total energy  :  -319.3318245 Eh     change       -0.6378968E-09 Eh
 * total energy  :  -320.6660324 Eh     change       -0.1334208E+01 Eh
 * total energy  :  -320.9031632 Eh     change       -0.2371308E+00 Eh
 * total energy  :  -321.0372083 Eh     change       -0.1340451E+00 Eh
 * total energy  :  -321.1077673 Eh     change       -0.7055892E-01 Eh
 * total energy  :  -321.1430313 Eh     change       -0.3526408E-01 Eh
 * total energy  :  -321.1648877 Eh     change       -0.2185639E-01 Eh
 * total energy  :  -321.1763465 Eh     change       -0.1145882E-01 Eh
 * total energy  :  -321.1839645 Eh     change       -0.7617972E-02 Eh
 * total energy  :  -321.1890050 Eh     change       -0.5040507E-02 Eh
 * total energy  :  -321.2096629 Eh     change       -0.1807099E-04 Eh
 * total energy  :  -321.2096823 Eh     change       -0.1939970E-04 Eh
 * total energy  :  -321.2097056 Eh     change       -0.2328839E-04 Eh
 * total energy  :  -321.2097274 Eh     change       -0.2185851E-04 Eh
 * total energy  :  -321.2097455 Eh     change       -0.1812171E-04 Eh
 * total energy  :  -321.2097620 Eh     change       -0.1650736E-04 Eh
 * total energy  :  -321.2097775 Eh     change       -0.1542976E-04 Eh
 * total energy  :  -321.2097875 Eh     change       -0.1006324E-04 Eh
 * total energy  :  -321.2097884 Eh     change       -0.8964811E-06 Eh
   *** GEOMETRY OPTIMIZATION CONVERGED AFTER 59 ITERATIONS ***

 final structure:
================
187
 xtb: 6.5.1 (b24c23e)
Co          31.72542517095911        0.02864216923720        0.02224483206611
C           28.35780429740189        0.11337609435573        0.13148198614570
C           29.01410685608735        1.04681871859548       -0.64300397139827
C           28.35697864149904        2.03273319398239       -1.44498516336030
C           29.31862173149835        2.87996181566359       -1.88390463398679
C           30.55976344102809        2.41958046186241       -1.33388447097319
N           30.37101337654124        1.25430896004453       -0.63688054661587
C           31.75357051697883        3.13100611228503       -1.38577331362487
C           31.76572643107101        4.47765346455062       -1.99479379211069
C           32.62518638863074        4.77111838912368       -3.05706214504964
C           32.63661038748148        6.02805416034616       -3.63414246188651
C           31.79576365892086        7.03171818040053       -3.14565394937799
N           31.77701941595744        8.27872274847571       -3.74449854618528
C           30.93178495570806        6.74619992746916       -2.08491355996242
C           30.91812981778502        5.48310294679797       -1.52150809595754
C           32.93279591470703        2.60910082260652       -0.87217443921210
C           34.17676281948306        3.31642053219643       -0.82571579060604
C           35.12246726489386        2.42142368451340       -0.44817398753886
N           33.10657749900582        1.31042126761291       -0.45120561424752
C           34.45195566488868        1.17548462220322       -0.25465081326662
C           35.11422948168343       -0.03717333080623       -0.04042364199975
C           34.41453868253430       -1.22664723845277        0.18513792976331
C           35.04211000925782       -2.50064991304969        0.33352621459618
C           34.07435689374062       -3.36696947587595        0.72225699789567
C           32.86186060914744       -2.61267692175548        0.82737391678511
N           33.07231256846331       -1.31351970785238        0.42375660501771
C           31.68640097479143       -3.09269835697446        1.38789706868382
C           31.66418248862926       -4.45009986442664        1.97200117329522
C           32.56215233346223       -4.80715792528648        2.98164217796988
C           32.53876852594445       -6.07370338593887        3.53681419394812
C           31.62177426077392       -7.02363804595216        3.07865805499606
N           31.56930412466578       -8.27836868345281        3.65832524783615
C           30.71871190934660       -6.67422583508393        2.07083681952810
C           30.74104108741505       -5.40164927628491        1.52950341450460
C           30.52780665199913       -2.32362157236413        1.41809270444407
C           29.30343767257174       -2.72897075790381        2.04369909345304
C           28.36192187553982       -1.82242712702847        1.68742331026196
C           29.01492075262706       -0.85901789042281        0.85527463667895
N           30.35543922727960       -1.13776955809464        0.75317500380545
H           27.27513663356286        0.14250101433983        0.16902543609050
H           27.29521139549361        2.05986924756352       -1.63246356998485
H           29.20951702493079        3.74261844820274       -2.52112716614314
H           33.27371341313010        3.99485762866632       -3.44819863286847
H           33.29834333139024        6.23951366881785       -4.46700413255480
H           32.61350934914272        8.52198756036032       -4.25056591237969
H           31.41790045778360        9.02362465686048       -3.16897048399524
H           30.27559413102815        7.52062517275556       -1.70289091040208
H           30.25893997502827        5.27549217917831       -0.68566024064419
H           34.30004726630771        4.36303252863818       -1.05218243688017
H           36.18147232451508        2.57417192128841       -0.31525061261658
H           36.08950640882679       -2.69101633017470        0.16240053663296
H           34.16374642517555       -4.42236859860564        0.92221166677556
H           33.26916836525015       -4.07231946484460        3.35068921903346
H           33.23159050149482       -6.33429251684308        4.32940972447634
H           32.41581808142202       -8.57347302348630        4.11781287375834
H           31.13949779707580       -8.99349186923693        3.09393594410366
H           30.00337502769671       -7.40653623844556        1.71273170082272
H           30.04930498405507       -5.14440845292173        0.73481595225396
H           29.19140005666014       -3.59693655265695        2.67308107221863
H           27.31562440315398       -1.79655778148842        1.94781906741350
Co          58.50447843787857       -0.02090942887381        0.04160250964927
C           61.87511556075032        0.01788480079432        0.17362440114691
C           61.21742477425656       -1.13913544418265        0.53360922674287
C           61.87646691101747       -2.34729248007892        0.92512748737619
C           60.91436197859647       -3.18287996544179        1.38389604156305
C           59.67072982630773       -2.47629916187276        1.28755624822824
N           59.85948410737488       -1.25195597378994        0.69956559726222
C           58.47312168329054       -2.92321678429602        1.83331301259291
C           58.46200316624210       -4.17837562001150        2.61523673305313
C           57.63149813733141       -5.24047382319775        2.24822160093827
C           57.62551162002345       -6.41930850072230        2.97207187951251
C           58.44246249052486       -6.55545578771238        4.09763257439436
N           58.46920795984509       -7.74698461833896        4.80058890560757
C           59.27622179890916       -5.49805068508739        4.47142859557798
C           59.28486823701035       -4.32724847175948        3.73492261481611
C           57.29070776024724       -2.21539732231390        1.66970768210780
C           56.04247628279692       -2.58597330379299        2.26512682699193
C           55.09799006917541       -1.77251523512855        1.73303687568860
N           57.12005532778360       -1.13509448003604        0.83428913224614
C           55.77317062491065       -0.90159699482488        0.82449890127809
C           55.11288949422492       -0.02849935537190       -0.04347255944926
C           55.81067147646785        0.83688396735892       -0.88952408901297
C           55.17861946617951        1.68773680259302       -1.84669027217110
C           56.14741645024890        2.48923360140344       -2.35281274133054
C           57.36558247758654        2.13601815256871       -1.68826594197677
N           57.15628187938454        1.07143957081170       -0.84107669816115
C           58.54830973405776        2.85417473992290       -1.79402521546187
C           58.57271923268971        4.09544372222123       -2.59729875268706
C           57.70359115857205        5.15042654380942       -2.30680729983458
C           57.73047928008845        6.31710257628073       -3.04939601382870
C           58.62192282700548        6.44832485056964       -4.11770518908642
N           58.67970788318092        7.62841511024555       -4.83679708770227
C           59.49576133404063        5.39860736563514       -4.41394103935061
C           59.47027764348231        4.24002718534610       -3.65871228757400
C           59.71163654878212        2.43922533935858       -1.15598700158854
C           60.94265563968658        3.17375832294900       -1.16551750151154
C           61.88169738952379        2.37287480576654       -0.60774399117843
C           61.22116105490715        1.15525677167179       -0.24943968159603
N           59.87940008996044        1.23093523904563       -0.53054329633320
H           62.95774431946161        0.03190008680174        0.21998951354219
H           62.93972952601295       -2.51398532490454        0.85481804649673
H           61.02412615076251       -4.18805522666086        1.75770572343262
H           57.00166276122262       -5.14626751450563        1.37039217152806
H           56.98693267405531       -7.24188124503209        2.66890325431424
H           57.64654117986171       -8.32005145357243        4.70165405217431
H           58.80512960065241       -7.67652598600379        5.74778701207913
H           59.91339754983691       -5.59827853844541        5.34335064445322
H           59.92142142127734       -3.50468288253539        4.04229400041937
H           55.91625092607727       -3.36760317863488        2.99658215609977
H           54.03698910555266       -1.75484167651877        1.92395408101610
H           54.12787005047539        1.66402590356006       -2.08730339623131
H           56.05568698153849        3.25333309483819       -3.10751768082277
H           57.01646573049172        5.06098234970516       -1.47251213453076
H           57.06028942213402        7.13412167454441       -2.80532839764053
H           57.84664021269606        8.19368460408425       -4.80138930099715
H           59.08432404450803        7.55169271870260       -5.75597414153810
H           60.19122034172437        5.49547625783673       -5.24055455589459
H           60.13978332427520        3.42346472349063       -3.90621555408419
H           61.06008331589027        4.17351216860816       -1.55124640241725
H           62.93097389809252        2.56784234243505       -0.45197530644147
C           37.73890595998917       -0.07514984664888       -0.06499452873963
C           36.51590446036214       -0.05998354346686       -0.05519408854974
C           39.08684836965696       -0.08084100462114       -0.06775314381664
C           40.31014756116114       -0.07700368854003       -0.06430857856970
C           51.13697683486458       -0.02553799178192       -0.07813899081639
C           49.91427624129010       -0.02554447898569       -0.07089121367935
C           52.48661078492208       -0.02523701607548       -0.07718375916265
C           53.70893285516590       -0.02593574432831       -0.06748960267580
Co          45.11163722181273       -0.04419512347884       -0.03558156548731
C           41.71180639267876       -0.06663232541864       -0.05195234696071
C           42.38800915554233        1.01723642990302       -0.62055472788562
C           41.71810107312166        2.12620653142822       -1.22087147814249
C           42.66445461859161        3.06563123717838       -1.46173168994279
C           43.91160502445143        2.51876900515331       -1.02082090083905
N           43.73268585456668        1.24259977991913       -0.53823194226953
C           45.09124049907037        3.24617307312459       -0.93725330503423
C           45.08289684281129        4.67524043504372       -1.32721223128811
C           44.80927795868726        5.05407670262134       -2.64328814539404
C           44.80531552690978        6.38826396264828       -3.00979103686992
C           45.07261980568732        7.37746307743308       -2.05954819906225
N           45.02054681148495        8.71414363561667       -2.41066256508080
C           45.33560180606597        7.00582815858881       -0.73827366030943
C           45.34809392439158        5.66895987087181       -0.38236798247303
C           46.28272247234261        2.67449719767728       -0.51128295211671
C           47.52991230436715        3.37610356810857       -0.47078954120488
C           48.49216429652581        2.45068459428555       -0.23966524263752
N           46.47637711380255        1.33529188060968       -0.26192021979478
C           47.82972418087439        1.18978278598155       -0.13973243603194
C           48.51081559280249       -0.02665225591551       -0.04438589666648
C           47.83630514224883       -1.24298759303711        0.09145057623278
C           48.49861276990585       -2.50563178705250        0.16225252616906
C           47.54925565461583       -3.42366538276976        0.46939340326825
C           46.31353265747173       -2.71295909785126        0.59236118099751
N           46.49299716196629       -1.38193933448136        0.30038524007206
C           45.12915600240245       -3.28303691695889        1.04368256120403
C           45.14306480062108       -4.68599801509578        1.50872099137787
C           44.31258276792115       -5.64398799999398        0.92057053425517
C           44.33176577060028       -6.95873356590367        1.34954091300491
C           45.18298944489975       -7.34549380865366        2.38846620368174
N           45.16907477085351       -8.64747866716496        2.85362029753330
C           46.00649793302771       -6.39059949436130        2.99143936695515
C           45.99099199697899       -5.08101223839685        2.54733013250684
C           43.93520479291428       -2.57511241548340        1.05998617455962
C           42.69647791469971       -3.10402214628594        1.54434206819419
C           41.73436896991878       -2.20813790553470        1.21423497575815
C           42.39272584787817       -1.12887892259123        0.55066326996644
N           43.74313883012374       -1.32784600609290        0.51043616006616
H           40.65690915944908        2.17442703816308       -1.40485523912115
H           42.53422399081630        4.05038206773441       -1.87961019445861
H           44.61884245058683        4.29120667832507       -3.39015935278707
H           44.59851134825900        6.67077557213214       -4.03626564756375
H           45.15198065326153        8.90634748057266       -3.39065225689520
H           45.52199632625878        9.33840257034648       -1.79935173672036
H           45.53080917200018        7.76989319030623        0.00621596379645
H           45.54493710714615        5.38822550048485        0.64647394687794
H           47.64766098334933        4.43567716678636       -0.62871057607400
H           49.55795958582846        2.59097469641151       -0.15762271537527
H           49.55422843827498       -2.65399704356066        0.00094773354260
H           47.66541044428563       -4.48751145083607        0.59770424702675
H           43.66371775612856       -5.35643758295604        0.10056270935872
H           43.68985269950045       -7.69520187877150        0.87861653156164
H           45.99664436963396       -8.93383685738489        3.35142516006570
H           44.82457994512520       -9.33296462308281        2.20089521287744
H           46.65833752830643       -6.68172947019372        3.80788925470563
H           46.62661502147073       -4.34403111877421        3.02581656538887
H           42.58652725349015       -4.03980776642512        2.06756974481183
H           40.67304490938654       -2.25909931103002        1.39685353333112

          :  Hamiltonian                  GFN1-xTB          :
         :: total energy            -321.209788436923 Eh    ::
         :: gradient norm              0.000972722300 Eh/a0 ::
         :: HOMO-LUMO gap              0.006624030231 eV    ::
         :: SCC energy              -326.376671008579 Eh    ::
         :: repulsion energy           5.333473540842 Eh    ::

    * Orbital Energies and Occupations

         #    Occupation            Energy/Eh            Energy/eV
      -------------------------------------------------------------
         1        2.0000           -0.7816976             -21.2711
       ...           ...                  ...                  ...
       286        2.0000           -0.3846792             -10.4677
       287        2.0000           -0.3846603             -10.4671
       288        2.0000           -0.3845498             -10.4641
       289        1.9999           -0.3820400             -10.3958
       290        1.9999           -0.3818585             -10.3909
       291        1.9998           -0.3815153             -10.3816
       292        1.9998           -0.3814655             -10.3802
       293        1.9998           -0.3814518             -10.3798
       294        1.9998           -0.3813940             -10.3783
       295        1.9982           -0.3792630             -10.3203
       296        1.6796           -0.3741370             -10.1808
       297        1.1561           -0.3727767             -10.1438
       298        1.1418           -0.3727466             -10.1430 (HOMO)
       299        1.0252           -0.3725032             -10.1363 (LUMO)
       300                         -0.3343522              -9.0982
       301                         -0.3239187              -8.8143
       302                         -0.3202601              -8.7147
       303                         -0.3182306              -8.6595
       304                         -0.3175370              -8.6406
       305                         -0.3171990              -8.6314
       306                         -0.2952470              -8.0341
       307                         -0.2862470              -7.7892
       308                         -0.2859185              -7.7802
       309                         -0.2837874              -7.7222
       ...                                ...                  ...
       639                          1.5197701              41.3550
      -------------------------------------------------------------
                  HL-Gap            0.0002434 Eh            0.0066 eV

Wiberg/Mayer (AO) data.
largest (>0.10) Wiberg bond orders for each atom

     #   Z sym  total        # sym  WBO       # sym  WBO       # sym  WBO
 ---------------------------------------------------------------------------
     1  27 Co   3.028 --     7 N    0.635    39 N    0.634    19 N    0.630
                            26 N    0.630
     2   6 C    3.923 --    38 C    1.365     3 C    1.363    40 H    0.970
     3   6 C    3.926 --     2 C    1.363     7 N    1.200     4 C    1.177
     4   6 C    3.958 --     5 C    1.644     3 C    1.177    41 H    0.975
     5   6 C    3.963 --     4 C    1.644     6 C    1.179    42 H    0.973
     6   6 C    3.918 --     8 C    1.311     7 N    1.216     5 C    1.179
     7   7 N    3.341 --     6 C    1.216     3 C    1.200     1 Co   0.635
     8   6 C    3.928 --    16 C    1.328     6 C    1.311     9 C    1.039
     9   6 C    3.986 --    10 C    1.377    15 C    1.377     8 C    1.039
    10   6 C    3.985 --    11 C    1.471     9 C    1.377    43 H    0.972
    11   6 C    3.989 --    10 C    1.471    12 C    1.352    44 H    0.972
    12   6 C    3.950 --    11 C    1.352    14 C    1.352    13 N    1.118
    13   7 N    3.135 --    12 C    1.118    46 H    0.933    45 H    0.933
    14   6 C    3.988 --    15 C    1.471    12 C    1.352    47 H    0.972
    15   6 C    3.985 --    14 C    1.471     9 C    1.377    48 H    0.972
    16   6 C    3.916 --     8 C    1.328    19 N    1.194    17 C    1.184
    17   6 C    3.959 --    18 C    1.633    16 C    1.184    49 H    0.973
    18   6 C    3.959 --    17 C    1.633    20 C    1.193    50 H    0.974
    19   7 N    3.342 --    20 C    1.232    16 C    1.194     1 Co   0.630
    20   6 C    3.905 --    21 C    1.256    19 N    1.232    18 C    1.193
    21   6 C    3.926 --    20 C    1.256    22 C    1.255   122 C    1.196
    22   6 C    3.905 --    21 C    1.255    26 N    1.233    23 C    1.193
    23   6 C    3.960 --    24 C    1.632    22 C    1.193    51 H    0.974
    24   6 C    3.958 --    23 C    1.632    25 C    1.184    52 H    0.973
    25   6 C    3.917 --    27 C    1.329    26 N    1.193    24 C    1.184
    26   7 N    3.342 --    22 C    1.233    25 C    1.193     1 Co   0.630
    27   6 C    3.928 --    25 C    1.329    35 C    1.310    28 C    1.040
    28   6 C    3.986 --    29 C    1.377    34 C    1.377    27 C    1.040
    29   6 C    3.985 --    30 C    1.471    28 C    1.377    53 H    0.972
    30   6 C    3.989 --    29 C    1.471    31 C    1.352    54 H    0.972
    31   6 C    3.950 --    30 C    1.352    33 C    1.352    32 N    1.118
    32   7 N    3.135 --    31 C    1.118    56 H    0.933    55 H    0.933
    33   6 C    3.988 --    34 C    1.471    31 C    1.352    57 H    0.972
    34   6 C    3.985 --    33 C    1.471    28 C    1.377    58 H    0.972
    35   6 C    3.918 --    27 C    1.310    39 N    1.217    36 C    1.179
    36   6 C    3.963 --    37 C    1.644    35 C    1.179    59 H    0.973
    37   6 C    3.957 --    36 C    1.644    38 C    1.177    60 H    0.975
    38   6 C    3.926 --     2 C    1.365    39 N    1.199    37 C    1.177
    39   7 N    3.341 --    35 C    1.217    38 C    1.199     1 Co   0.634
    40   1 H    1.000 --     2 C    0.970
    41   1 H    0.998 --     4 C    0.975
    42   1 H    1.005 --     5 C    0.973
    43   1 H    1.005 --    10 C    0.972
    44   1 H    0.998 --    11 C    0.972
    45   1 H    0.960 --    13 N    0.933
    46   1 H    0.960 --    13 N    0.933
    47   1 H    0.998 --    14 C    0.972
    48   1 H    1.006 --    15 C    0.972
    49   1 H    1.005 --    17 C    0.973
    50   1 H    1.002 --    18 C    0.974
    51   1 H    1.002 --    23 C    0.974
    52   1 H    1.005 --    24 C    0.973
    53   1 H    1.006 --    29 C    0.972
    54   1 H    0.998 --    30 C    0.972
    55   1 H    0.960 --    32 N    0.933
    56   1 H    0.960 --    32 N    0.933
    57   1 H    0.998 --    33 C    0.972
    58   1 H    1.006 --    34 C    0.972
    59   1 H    1.005 --    36 C    0.973
    60   1 H    0.998 --    37 C    0.975
    61  27 Co   3.025 --    67 N    0.636    99 N    0.635    79 N    0.631
                            86 N    0.631
    62   6 C    3.926 --    98 C    1.365    63 C    1.364   100 H    0.970
    63   6 C    3.926 --    62 C    1.364    67 N    1.200    64 C    1.177
    64   6 C    3.958 --    65 C    1.645    63 C    1.177   101 H    0.975
    65   6 C    3.963 --    64 C    1.645    66 C    1.179   102 H    0.973
    66   6 C    3.919 --    68 C    1.314    67 N    1.214    65 C    1.179
    67   7 N    3.343 --    66 C    1.214    63 C    1.200    61 Co   0.636
    68   6 C    3.931 --    76 C    1.328    66 C    1.314    69 C    1.037
    69   6 C    3.986 --    70 C    1.379    75 C    1.378    68 C    1.037
    70   6 C    3.986 --    71 C    1.470    69 C    1.379   103 H    0.972
    71   6 C    3.989 --    70 C    1.470    72 C    1.353   104 H    0.972
    72   6 C    3.951 --    71 C    1.353    74 C    1.352    73 N    1.117
    73   7 N    3.134 --    72 C    1.117   105 H    0.933   106 H    0.933
    74   6 C    3.989 --    75 C    1.470    72 C    1.352   107 H    0.972
    75   6 C    3.985 --    74 C    1.470    69 C    1.378   108 H    0.972
    76   6 C    3.917 --    68 C    1.328    79 N    1.195    77 C    1.184
    77   6 C    3.959 --    78 C    1.634    76 C    1.184   109 H    0.973
    78   6 C    3.960 --    77 C    1.634    80 C    1.192   110 H    0.974
    79   7 N    3.345 --    80 C    1.229    76 C    1.195    61 Co   0.631
    80   6 C    3.907 --    81 C    1.261    79 N    1.229    78 C    1.192
    81   6 C    3.930 --    80 C    1.261    82 C    1.260   128 C    1.186
    82   6 C    3.907 --    81 C    1.260    86 N    1.230    83 C    1.192
    83   6 C    3.960 --    84 C    1.634    82 C    1.192   111 H    0.974
    84   6 C    3.959 --    83 C    1.634    85 C    1.183   112 H    0.973
    85   6 C    3.917 --    87 C    1.329    86 N    1.194    84 C    1.183
    86   7 N    3.344 --    82 C    1.230    85 C    1.194    61 Co   0.631
    87   6 C    3.931 --    85 C    1.329    95 C    1.313    88 C    1.037
    88   6 C    3.986 --    89 C    1.378    94 C    1.378    87 C    1.037
    89   6 C    3.986 --    90 C    1.470    88 C    1.378   113 H    0.972
    90   6 C    3.989 --    89 C    1.470    91 C    1.352   114 H    0.972
    91   6 C    3.950 --    90 C    1.352    93 C    1.352    92 N    1.118
    92   7 N    3.135 --    91 C    1.118   115 H    0.933   116 H    0.933
    93   6 C    3.989 --    94 C    1.471    91 C    1.352   117 H    0.972
    94   6 C    3.985 --    93 C    1.471    88 C    1.378   118 H    0.972
    95   6 C    3.919 --    87 C    1.313    99 N    1.216    96 C    1.179
    96   6 C    3.963 --    97 C    1.645    95 C    1.179   119 H    0.973
    97   6 C    3.958 --    96 C    1.645    98 C    1.177   120 H    0.975
    98   6 C    3.926 --    62 C    1.365    99 N    1.199    97 C    1.177
    99   7 N    3.343 --    95 C    1.216    98 C    1.199    61 Co   0.635
   100   1 H    1.000 --    62 C    0.970
   101   1 H    0.998 --    64 C    0.975
   102   1 H    1.005 --    65 C    0.973
   103   1 H    1.005 --    70 C    0.972
   104   1 H    0.999 --    71 C    0.972
   105   1 H    0.960 --    73 N    0.933
   106   1 H    0.960 --    73 N    0.933
   107   1 H    0.999 --    74 C    0.972
   108   1 H    1.005 --    75 C    0.972
   109   1 H    1.005 --    77 C    0.973
   110   1 H    1.002 --    78 C    0.974
   111   1 H    1.002 --    83 C    0.974
   112   1 H    1.005 --    84 C    0.973
   113   1 H    1.006 --    89 C    0.972
   114   1 H    0.999 --    90 C    0.972
   115   1 H    0.960 --    92 N    0.933
   116   1 H    0.960 --    92 N    0.933
   117   1 H    0.999 --    93 C    0.972
   118   1 H    1.005 --    94 C    0.972
   119   1 H    1.005 --    96 C    0.973
   120   1 H    0.998 --    97 C    0.975
   121   6 C    3.928 --   122 C    2.460   123 C    1.318
   122   6 C    3.915 --   121 C    2.460    21 C    1.196   124 C    0.197
   123   6 C    3.924 --   124 C    2.458   121 C    1.318
   124   6 C    3.919 --   123 C    2.458   130 C    1.198   122 C    0.197
   125   6 C    3.924 --   126 C    2.468   127 C    1.310
   126   6 C    3.918 --   125 C    2.468   149 C    1.190   128 C    0.196
   127   6 C    3.930 --   128 C    2.471   125 C    1.310
   128   6 C    3.915 --   127 C    2.471    81 C    1.186   126 C    0.196
   129  27 Co   3.007 --   147 N    0.626   167 N    0.624   135 N    0.623
                           154 N    0.622
   130   6 C    3.916 --   131 C    1.253   166 C    1.252   124 C    1.198
   131   6 C    3.907 --   130 C    1.253   135 N    1.236   132 C    1.192
   132   6 C    3.960 --   133 C    1.633   131 C    1.192   168 H    0.974
   133   6 C    3.960 --   132 C    1.633   134 C    1.186   169 H    0.972
   134   6 C    3.913 --   136 C    1.323   135 N    1.198   133 C    1.186
   135   7 N    3.337 --   131 C    1.236   134 C    1.198   129 Co   0.623
   136   6 C    3.922 --   134 C    1.323   144 C    1.323   137 C    1.028
   137   6 C    3.985 --   138 C    1.382   143 C    1.381   136 C    1.028
   138   6 C    3.987 --   139 C    1.468   137 C    1.382   170 H    0.973
   139   6 C    3.988 --   138 C    1.468   140 C    1.353   171 H    0.972
   140   6 C    3.951 --   139 C    1.353   142 C    1.353   141 N    1.118
   141   7 N    3.136 --   140 C    1.118   172 H    0.933   173 H    0.933
   142   6 C    3.988 --   143 C    1.469   140 C    1.353   174 H    0.972
   143   6 C    3.987 --   142 C    1.469   137 C    1.381   175 H    0.973
   144   6 C    3.913 --   136 C    1.323   147 N    1.199   145 C    1.185
   145   6 C    3.960 --   146 C    1.633   144 C    1.185   176 H    0.973
   146   6 C    3.960 --   145 C    1.633   148 C    1.193   177 H    0.974
   147   7 N    3.336 --   148 C    1.234   144 C    1.199   129 Co   0.626
   148   6 C    3.908 --   149 C    1.257   147 N    1.234   146 C    1.193
   149   6 C    3.916 --   148 C    1.257   150 C    1.256   126 C    1.190
   150   6 C    3.908 --   149 C    1.256   154 N    1.232   151 C    1.195
   151   6 C    3.959 --   152 C    1.628   150 C    1.195   178 H    0.974
   152   6 C    3.960 --   151 C    1.628   153 C    1.188   179 H    0.973
   153   6 C    3.913 --   155 C    1.314   154 N    1.203   152 C    1.188
   154   7 N    3.336 --   150 C    1.232   153 C    1.203   129 Co   0.622
   155   6 C    3.923 --   163 C    1.323   153 C    1.314   156 C    1.040
   156   6 C    3.985 --   157 C    1.377   162 C    1.376   155 C    1.040
   157   6 C    3.986 --   158 C    1.471   156 C    1.377   180 H    0.972
   158   6 C    3.988 --   157 C    1.471   159 C    1.351   181 H    0.972
   159   6 C    3.950 --   158 C    1.351   161 C    1.351   160 N    1.120
   160   7 N    3.136 --   159 C    1.120   182 H    0.933   183 H    0.933
   161   6 C    3.988 --   162 C    1.472   159 C    1.351   184 H    0.972
   162   6 C    3.985 --   161 C    1.472   156 C    1.376   185 H    0.972
   163   6 C    3.914 --   155 C    1.323   167 N    1.197   164 C    1.186
   164   6 C    3.960 --   165 C    1.631   163 C    1.186   186 H    0.973
   165   6 C    3.958 --   164 C    1.631   166 C    1.194   187 H    0.974
   166   6 C    3.907 --   130 C    1.252   167 N    1.238   165 C    1.194
   167   7 N    3.335 --   166 C    1.238   163 C    1.197   129 Co   0.624
   168   1 H    1.002 --   132 C    0.974
   169   1 H    1.005 --   133 C    0.972
   170   1 H    1.004 --   138 C    0.973
   171   1 H    0.998 --   139 C    0.972
   172   1 H    0.960 --   141 N    0.933
   173   1 H    0.960 --   141 N    0.933
   174   1 H    0.998 --   142 C    0.972
   175   1 H    1.004 --   143 C    0.973
   176   1 H    1.005 --   145 C    0.973
   177   1 H    1.002 --   146 C    0.974
   178   1 H    1.002 --   151 C    0.974
   179   1 H    1.005 --   152 C    0.973
   180   1 H    1.005 --   157 C    0.972
   181   1 H    0.998 --   158 C    0.972
   182   1 H    0.960 --   160 N    0.933
   183   1 H    0.960 --   160 N    0.933
   184   1 H    0.998 --   161 C    0.972
   185   1 H    1.005 --   162 C    0.972
   186   1 H    1.005 --   164 C    0.973
   187   1 H    1.002 --   165 C    0.974
 ---------------------------------------------------------------------------

           -------------------------------------------------
          | TOTAL ENERGY             -321.209788436923 Eh   |
          | GRADIENT NORM               0.000972722300 Eh/α |
          | HOMO-LUMO GAP               0.006624030231 eV   |
           -------------------------------------------------

 * finished run on 2022/07/30 at 00:08:22.289
