   * xtb version 6.5.1 (b24c23e) compiled by 'conda@728c89f4b128' on 2022-07-12
          program call               : xtb Ph2OMe_C2_3.xyz --gfn 1 --opt -T 48

   ID    Z sym.   atoms
    1    6 C      1-5, 7-10, 12-20, 22-26, 28-32, 35, 36, 38-42, 44, 74-78,
                  80-83, 85-93, 95-99, 101-105, 108, 109, 111-115, 117,
                  147-155, 157-160, 162-170, 172-176, 178-182, 185, 186,
                  188-192, 194
    2    7 N      6, 11, 33, 34, 79, 84, 106, 107, 156, 161, 183, 184
    3    8 O      21, 27, 37, 43, 94, 100, 110, 116, 171, 177, 187, 193
    4    1 H      45-73, 118-146, 195-222

          :  Hamiltonian                  GFN1-xTB          :
 * total energy  :  -376.9973885 Eh     change       -0.3814250E-08 Eh
 * total energy  :  -377.1348362 Eh     change       -0.1374477E+00 Eh
 * total energy  :  -377.2202031 Eh     change       -0.8536685E-01 Eh
 * total energy  :  -377.2558093 Eh     change       -0.3560625E-01 Eh
 * total energy  :  -377.2949708 Eh     change       -0.3916151E-01 Eh
 * total energy  :  -377.3369603 Eh     change       -0.4198949E-01 Eh
 * total energy  :  -377.3741571 Eh     change       -0.3719683E-01 Eh
 * total energy  :  -377.4071794 Eh     change       -0.3302224E-01 Eh
 * total energy  :  -377.4385650 Eh     change       -0.3138563E-01 Eh
 * total energy  :  -377.4652197 Eh     change       -0.2665466E-01 Eh
 * total energy  :  -377.7099915 Eh     change       -0.1865035E-04 Eh
 * total energy  :  -377.7100100 Eh     change       -0.1847940E-04 Eh
 * total energy  :  -377.7100293 Eh     change       -0.1927291E-04 Eh
 * total energy  :  -377.7100504 Eh     change       -0.2117932E-04 Eh
 * total energy  :  -377.7100735 Eh     change       -0.2302268E-04 Eh
 * total energy  :  -377.7100969 Eh     change       -0.2344263E-04 Eh
 * total energy  :  -377.7101187 Eh     change       -0.2182050E-04 Eh
 * total energy  :  -377.7101369 Eh     change       -0.1818643E-04 Eh
 * total energy  :  -377.7101414 Eh     change       -0.4494210E-05 Eh
   *** GEOMETRY OPTIMIZATION CONVERGED AFTER 260 ITERATIONS ***

 final structure:
================
222
 xtb: 6.5.1 (b24c23e)
C           30.19745239993853       -0.00290564252340        0.12959058936168
C           30.82652877463132        0.36955387859279        1.31045729178238
C           30.20272322943942        0.70215570589061        2.54631538167499
C           31.18522610996308        1.01409700117680        3.44339243682375
C           32.44086147942060        0.87543320603225        2.78655805265421
N           32.17377290832009        0.49304317054736        1.50221220180078
C           33.71039535769382        1.09569590370505        3.32763469023748
C           34.91833954971372        0.92335983417700        2.64927577680285
C           36.21959714915961        1.08309211033834        3.27174951709786
C           37.13465302621229        0.82388375938112        2.31444862104517
N           35.06451374817807        0.57959765152181        1.33953329096638
C           36.39195104518586        0.51127926691631        1.10883297187640
C           37.01606338446360        0.17726278230669       -0.10940849486583
C           36.36069513708916       -0.16242125465305       -1.30697713895034
C           36.97568059927477       -0.44556317674261       -2.55577904324384
C           35.98691051433642       -0.69856228514395       -3.46580769028959
C           34.73670213944696       -0.58368220571371       -2.79797692161066
C           33.46538230110284       -0.74815203460946       -3.35561194166158
C           33.40692931118326       -1.14494767447635       -4.79356222750646
C           33.00091522492180       -0.30008966731445       -5.83119889308992
O           32.65426148657004        1.00799215164019       -5.70561595245354
C           33.03818872677247        1.81813754499603       -4.60970401189991
C           32.91142962560981       -0.79163804923168       -7.13991235934436
C           33.23402002603308       -2.10376737600961       -7.41852899074586
C           33.66237462450863       -2.95647934514553       -6.40799023533281
C           33.74555988312856       -2.47701067809088       -5.10597349251784
O           34.13635400152648       -3.24052023671511       -4.04922507416513
C           34.46445450146172       -4.60273648685197       -4.23405807842568
C           32.25919606992660       -0.63554062305555       -2.65899758877025
C           30.95361888855108       -0.88851000372859       -3.24789366383971
C           30.04764148008095       -0.68518837257463       -2.27018688039503
C           30.79837944238300       -0.30525187014912       -1.08606159508468
N           32.12637131413909       -0.28587988289747       -1.35620907482240
N           35.01356661567343       -0.25320785990828       -1.49788791974797
C           33.76776398194600        1.45330028077146        4.77733533295020
C           34.03819594312716        2.72986494486913        5.27821248757916
O           34.24018632771431        3.85532675980936        4.54491994095643
C           33.92530795538845        3.96871674207627        3.16986031348678
C           34.12753666188556        2.93304613139095        6.66212153950756
C           33.94061032217487        1.88459002760670        7.53861041090361
C           33.65059900251895        0.61029177890626        7.06509297114125
C           33.56631272528352        0.40113561034074        5.69379598795891
O           33.29979623558801       -0.81097202993997        5.13488734947026
C           33.12835544973728       -1.95235106584890        5.95028407149152
H           29.11429663516177       -0.05779948611908        0.16875415607518
H           29.13715831646734        0.70051786974458        2.71260095305549
H           31.06336184154210        1.31113038636403        4.47261927654878
H           32.88091788329940        0.30362858651100        0.80012311753258
H           36.38370479710211        1.34617334151403        4.30430614648980
H           38.20987289387780        0.82787786485057        2.39493613239694
H           38.03973126927402       -0.44470204911640       -2.72878522081407
H           36.10442696972849       -0.94550415530510       -4.50840540044535
H           34.08065754742597        1.64139052533689       -4.32480919562090
H           32.92852493129284        2.85287392898370       -4.94435430027700
H           32.39064952317682        1.65348753608989       -3.74180934149899
H           32.58654924086847       -0.11501863536249       -7.92015272137988
H           33.16166310383433       -2.47393244284322       -8.43493172825272
H           33.91946447973729       -3.98059057874150       -6.64247069846714
H           34.72333356862331       -4.98931616948868       -3.24654082975414
H           33.61415759127795       -5.17016062930559       -4.63131540366231
H           35.32472064452430       -4.72196936285399       -4.90386945831879
H           30.78443649097995       -1.18780999883578       -4.26982781988240
H           28.97351502393994       -0.77626021364429       -2.31439422160039
H           34.31114475533090       -0.11098061721776       -0.77983278507138
H           34.66160565438860        3.45294914214452        2.54418915502251
H           33.95056046787730        5.03740179431700        2.94243396056111
H           32.92513032942092        3.57913487708778        2.95209877175564
H           34.34463996598949        3.93175559326820        7.01938301033978
H           34.01304466949684        2.05387953282254        8.60700445192494
H           33.49917452294731       -0.20138796338422        7.76374372216943
H           32.26218328875031       -1.84571335176316        6.61474214225316
H           32.95651609359007       -2.78849724914645        5.26982610422115
H           34.02328068580787       -2.15495415725576        6.55092090634724
C           58.80703511291358       -0.17684668177580       -0.05956186856975
C           58.23024127268489       -0.47954120365973       -1.28609209543164
C           58.90458645511264       -0.83192108728244       -2.48950304771923
C           57.96047018517151       -1.04497404370513       -3.45402286865262
C           56.67878967333294       -0.83848623759106       -2.86881123574549
N           56.89253711983481       -0.49137554236710       -1.56457528510600
C           55.43376061180966       -0.95793039170672       -3.49176556969798
C           54.19595350614720       -0.78004848835646       -2.87153183009802
C           52.92591341041868       -0.99080059300212       -3.54199401724974
C           51.96542342181111       -0.70779449745130       -2.63707660374953
N           53.98669020314444       -0.37760959934261       -1.58777599337526
C           52.64923089939624       -0.32308904410423       -1.41796170605210
C           51.97029557314253        0.08163177293102       -0.25163449702117
C           52.57656873891603        0.47421029420315        0.95598601671067
C           51.91341985792608        0.89619708240968        2.13891946119924
C           52.86484001603707        1.16655854080051        3.08314474907559
C           54.13913025533962        0.90784417262726        2.50760288140842
C           55.38406275818409        1.04363740789353        3.12845366112354
C           55.37176399916169        1.44260494314930        4.56831912843939
C           55.68954294943222        2.71454066848677        5.05265164114714
O           56.01255898728402        3.80402905757899        4.30965278686223
C           55.87913667252480        3.87538591338174        2.90269713499207
C           55.69136389966706        2.95465112372145        6.43389708707479
C           55.37374459381711        1.94849388525770        7.32197337502707
C           55.03797071633782        0.67989426257724        6.86319886758651
C           55.03865985298119        0.43404765091298        5.49558787985820
O           54.73474367241815       -0.77538396214853        4.95002936064865
C           54.41925158954244       -1.87548232542160        5.77886062236201
C           56.61758347388130        0.75384004429198        2.54070869468194
C           57.88911546557102        0.83403042757105        3.24252674028953
C           58.84000444352164        0.48968026521627        2.35050017045421
C           58.15028564049489        0.20075582607057        1.10522023095778
N           56.81398460345296        0.36872577173363        1.25638556488918
N           53.91441265780517        0.50144398893348        1.21914025501596
C           55.44491938877736       -1.40356820878409       -4.91874865764508
C           55.27336414423727       -0.56804906499123       -6.02584536753561
O           55.10687438509543        0.77894477656752       -6.00846114533081
C           55.14521315210884        1.57648279940447       -4.84070229182499
C           55.27554125776197       -1.11397868763885       -7.31752521890772
C           55.45012778834383       -2.46838948010464       -7.50814714386447
C           55.63383819964599       -3.31750385867714       -6.42283974535233
C           55.63152796908467       -2.78341920101709       -5.14019741139337
O           55.79939759814142       -3.53124818920285       -4.01505522333919
C           55.95756345548779       -4.93252360005049       -4.10573849925260
H           59.88946216001017       -0.24052138660073       -0.01617669748805
H           59.97577802139374       -0.90568923630595       -2.59035609178519
H           58.12496432154929       -1.32527352482452       -4.48200842072893
H           56.15850976467080       -0.29545876399451       -0.89260648264611
H           52.81255181333466       -1.31840260490408       -4.56291862746392
H           50.89487476287783       -0.74394781015134       -2.76056655185842
H           50.84399723542163        0.97636429094613        2.24679772787137
H           52.70657745580372        1.50881102682545        4.09299516787727
H           54.89259721834595        3.53367272167932        2.57229638426793
H           55.99769684692441        4.93033028149014        2.64315254333400
H           56.65576240796342        3.29315664372269        2.39512799310767
H           55.94645218691428        3.94855432054932        6.77927063688584
H           55.37964566644215        2.14695986289456        8.38778252643104
H           54.78532555219529       -0.09859160861075        7.57030473635073
H           54.23730067150460       -2.71791891497103        5.10881626460788
H           55.24952209908896       -2.12310698517864        6.45127387412787
H           53.51622974005796       -1.68638938095933        6.37210644065601
H           58.00600186739414        1.11056460623344        4.27822306368696
H           59.90769828484876        0.42552188707107        2.49167990292123
H           54.64200697099847        0.23076265366404        0.56603110791285
H           54.27889623891599        1.38933928306799       -4.19719139676153
H           55.11587156852444        2.61286141800157       -5.18597483145313
H           56.06570403167359        1.41524098051781       -4.26959739550220
H           55.13813460959826       -0.44221423888235       -8.15541838689588
H           55.44855167081613       -2.87720528810914       -8.51223034315630
H           55.77392720540713       -4.37739626786565       -6.58649027925911
H           56.86194446926648       -5.19997542683065       -4.66582877611530
H           56.05168001063257       -5.29455032708742       -3.08015547824908
H           55.08688774975369       -5.40541384048715       -4.57594306668894
C           38.42535446620735        0.18489654352887       -0.14680155244573
C           39.64162082247760        0.18655057260397       -0.18312548005494
C           49.34465811231669        0.13222624484149       -0.29661997596858
C           50.56124395605566        0.10556655499652       -0.28109343218618
C           41.05034714560259        0.19521497025342       -0.21746857664896
C           41.69342404200023        1.11673729291943        0.62903755500229
C           41.06546860817478        2.04318176306245        1.50271245575555
C           42.04570567891357        2.76007039613217        2.13118190641484
C           43.30231726145299        2.29715326718869        1.65429495687704
N           43.03842479067112        1.30082699978848        0.75312412719453
C           44.56808535168786        2.75566444773204        2.03300466558034
C           45.78662617347744        2.25998278515826        1.57050112375304
C           47.07561956575980        2.79938203316697        1.96411746560888
C           48.00890793381905        2.07016729269552        1.31912371580873
N           45.95833488172628        1.23414316209840        0.69154888282609
C           47.28936159387251        1.09082996671798        0.52771339967154
C           47.93567572251269        0.15229814072929       -0.30040180354127
C           47.29408982545565       -0.77698028474845       -1.14016436818135
C           47.91951667598610       -1.73060769883036       -1.98510169624982
C           46.93681904817790       -2.43539146879404       -2.62489482571837
C           45.68184943106647       -1.93593025612747       -2.18319862093612
C           44.41614146760327       -2.36975330340138       -2.59100364014570
C           44.38647250212984       -3.53601676590359       -3.52567668622517
C           44.62234202464676       -4.80174582560848       -2.95075614779146
O           44.88574277215685       -4.79047221510801       -1.61543412853401
C           45.10641920781789       -5.99995328588994       -0.91897715181509
C           44.57342577764004       -5.96305345493742       -3.71219246653711
C           44.28559505599887       -5.87005148304058       -5.06902461508091
C           44.06450028080081       -4.64222204633734       -5.65682989574757
C           44.11713953872594       -3.46631256712769       -4.89525290768400
O           43.88751655649229       -2.33849439809724       -5.61523875630472
C           44.11099638879179       -1.02855249217941       -5.12842852298266
C           43.19632057259458       -1.87192701801512       -2.13389379777424
C           41.90780572938981       -2.39798474038496       -2.54642690743460
C           40.97392466058764       -1.67755830796966       -1.89061139256138
C           41.69319671542123       -0.71556089927852       -1.07869035566503
N           43.02405995460995       -0.85167460404574       -1.24829240955004
N           45.94805554361538       -0.93134044889174       -1.29171594337248
C           44.59738188919240        3.87626334559009        3.01591176139471
C           44.14864368662605        5.15241718026589        2.64963301292605
O           43.70287222729615        5.28193091130283        1.37151718582354
C           43.23446547407771        6.52991274030181        0.90078189483956
C           44.18418293732010        6.20262365830074        3.56618255377003
C           44.66159232372171        5.97155013674354        4.84730686838344
C           45.10474855408013        4.71613526155638        5.23462016283794
C           45.07430714002896        3.66650698198790        4.31710803477122
O           45.47512852328530        2.40075419679366        4.60594747812309
C           46.00021143640861        2.08925948839586        5.88064247901400
H           39.99943852736151        2.14368064099759        1.62677519652672
H           41.91447327158235        3.54255911966559        2.86049829278770
H           43.74648122128485        0.77500916386442        0.25197935613788
H           47.22215092863031        3.62727545362953        2.63876181674930
H           49.08171345740965        2.17491288509355        1.34774680681494
H           48.98538327441725       -1.85741153356432       -2.08334977262733
H           47.06252736484076       -3.23364300399460       -3.33828695488999
H           45.27640175448965       -5.72325666567120        0.12327478238446
H           45.98937887876556       -6.52801369031973       -1.29929800079231
H           44.23442028899768       -6.66248335650553       -0.97793801026783
H           44.75109705066635       -6.93171114971193       -3.26495773091253
H           44.24105182555409       -6.77214727913378       -5.66873046683490
H           43.84822626422154       -4.55683838928207       -6.71424728222893
H           44.06112477731355       -0.37167942263243       -6.00033569163706
H           43.33966955160037       -0.72924904215522       -4.41074013035232
H           45.09816444629512       -0.93377598662185       -4.66387390595058
H           41.76452860297285       -3.21342317518418       -3.23701224551038
H           39.90071462397993       -1.77650361470957       -1.92716767267462
H           45.24237637546256       -0.39778043048040       -0.79521376821322
H           44.02147279705571        7.29288677803355        0.93461492922657
H           42.36791757187686        6.87681374701641        1.47664912348894
H           42.93444320110709        6.37007086673030       -0.13653594248892
H           43.84514882518152        7.19238019326682        3.29135919408868
H           44.68758885860115        6.78813670949948        5.56038416896071
H           45.46796929073042        4.56351552475182        6.24203772155767
H           46.90060469602823        2.67644940410194        6.09808162508286
H           46.26170688002171        1.02992599002310        5.85054062576899
H           45.25929128220042        2.25486211849443        6.67213195775209

          :  Hamiltonian                  GFN1-xTB          :
         :: total energy            -377.710141413677 Eh    ::
         :: gradient norm              0.000385877545 Eh/a0 ::
         :: HOMO-LUMO gap              0.842018878467 eV    ::
         :: SCC energy              -382.985841145426 Eh    ::
         :: repulsion energy           5.473873296519 Eh    ::

    * Orbital Energies and Occupations

         #    Occupation            Energy/Eh            Energy/eV
      -------------------------------------------------------------
         1        2.0000           -0.8095871             -22.0300
       ...           ...                  ...                  ...
       321        2.0000           -0.4087818             -11.1235
       322        2.0000           -0.4083489             -11.1117
       323        2.0000           -0.4082055             -11.1078
       324        2.0000           -0.4079498             -11.1009
       325        2.0000           -0.4078184             -11.0973
       326        2.0000           -0.4072536             -11.0819
       327        2.0000           -0.4062675             -11.0551
       328        2.0000           -0.3918378             -10.6624
       329        2.0000           -0.3912361             -10.6461
       330        2.0000           -0.3896279             -10.6023
       331        2.0000           -0.3830028             -10.4220
       332        2.0000           -0.3766036             -10.2479
       333        2.0000           -0.3669230              -9.9845 (HOMO)
       334        0.0000           -0.3359794              -9.1425 (LUMO)
       335                         -0.3261705              -8.8756
       336                         -0.3229374              -8.7876
       337                         -0.3224744              -8.7750
       338                         -0.3207336              -8.7276
       339                         -0.3159384              -8.5971
       340                         -0.2916763              -7.9369
       341                         -0.2851653              -7.7597
       342                         -0.2803090              -7.6276
       343                         -0.2574260              -7.0049
       344                         -0.2549503              -6.9376
       ...                                ...                  ...
       716                          1.3466883              36.6453
      -------------------------------------------------------------
                  HL-Gap            0.0309436 Eh            0.8420 eV

Wiberg/Mayer (AO) data.
largest (>0.10) Wiberg bond orders for each atom

     #   Z sym  total        # sym  WBO       # sym  WBO       # sym  WBO
 ---------------------------------------------------------------------------
     1   6 C    3.925 --    32 C    1.363     2 C    1.347    45 H    0.971
     2   6 C    3.904 --     1 C    1.347     3 C    1.229     6 N    1.170
     3   6 C    3.953 --     4 C    1.596     2 C    1.229    46 H    0.977
     4   6 C    3.960 --     3 C    1.596     5 C    1.233    47 H    0.976
     5   6 C    3.896 --     7 C    1.308     4 C    1.233     6 N    1.172
     6   7 N    3.466 --     5 C    1.172     2 C    1.170    48 H    0.874
     7   6 C    3.938 --     8 C    1.335     5 C    1.308    35 C    1.007
     8   6 C    3.916 --     7 C    1.335    11 N    1.282     9 C    1.125
     9   6 C    3.966 --    10 C    1.708     8 C    1.125    49 H    0.975
    10   6 C    3.965 --     9 C    1.708    12 C    1.130    50 H    0.972
    11   7 N    3.020 --    12 C    1.343     8 C    1.282
    12   6 C    3.916 --    11 N    1.343    13 C    1.259    10 C    1.130
    13   6 C    3.937 --    12 C    1.259    14 C    1.258   147 C    1.176
    14   6 C    3.892 --    13 C    1.258    15 C    1.248    34 N    1.187
    15   6 C    3.959 --    16 C    1.584    14 C    1.248    51 H    0.973
    16   6 C    3.956 --    15 C    1.584    17 C    1.240    52 H    0.976
    17   6 C    3.898 --    18 C    1.311    16 C    1.240    34 N    1.163
    18   6 C    3.925 --    29 C    1.324    17 C    1.311    19 C    1.010
    19   6 C    3.974 --    20 C    1.367    26 C    1.319    18 C    1.010
    20   6 C    3.904 --    19 C    1.367    23 C    1.339    21 O    1.031
    21   8 O    2.139 --    20 C    1.031    22 C    0.926
    22   6 C    3.902 --    54 H    0.983    53 H    0.980    55 H    0.976
                            21 O    0.926
    23   6 C    3.985 --    24 C    1.473    20 C    1.339    56 H    0.971
    24   6 C    3.993 --    23 C    1.473    25 C    1.417    57 H    0.974
    25   6 C    3.981 --    24 C    1.417    26 C    1.385    58 H    0.969
    26   6 C    3.902 --    25 C    1.385    19 C    1.319    27 O    1.029
    27   8 O    2.141 --    26 C    1.029    28 C    0.935
    28   6 C    3.907 --    59 H    0.983    61 H    0.980    60 H    0.980
                            27 O    0.935
    29   6 C    3.929 --    18 C    1.324    33 N    1.308    30 C    1.117
    30   6 C    3.967 --    31 C    1.722    29 C    1.117    62 H    0.975
    31   6 C    3.966 --    30 C    1.722    32 C    1.117    63 H    0.976
    32   6 C    3.931 --     1 C    1.363    33 N    1.303    31 C    1.117
    33   7 N    3.010 --    29 C    1.308    32 C    1.303
    34   7 N    3.472 --    14 C    1.187    17 C    1.163    64 H    0.874
    35   6 C    3.974 --    36 C    1.369    42 C    1.319     7 C    1.007
    36   6 C    3.904 --    35 C    1.369    39 C    1.336    37 O    1.033
    37   8 O    2.143 --    36 C    1.033    38 C    0.927
    38   6 C    3.902 --    66 H    0.983    67 H    0.979    65 H    0.976
                            37 O    0.927
    39   6 C    3.985 --    40 C    1.476    36 C    1.336    68 H    0.971
    40   6 C    3.994 --    39 C    1.476    41 C    1.416    69 H    0.974
    41   6 C    3.981 --    40 C    1.416    42 C    1.386    70 H    0.969
    42   6 C    3.902 --    41 C    1.386    35 C    1.319    43 O    1.028
    43   8 O    2.141 --    42 C    1.028    44 C    0.936
    44   6 C    3.908 --    72 H    0.983    71 H    0.980    73 H    0.980
                            43 O    0.936
    45   1 H    1.002 --     1 C    0.971
    46   1 H    0.998 --     3 C    0.977
    47   1 H    1.002 --     4 C    0.976
    48   1 H    0.987 --     6 N    0.874
    49   1 H    1.002 --     9 C    0.975
    50   1 H    1.005 --    10 C    0.972
    51   1 H    1.004 --    15 C    0.973
    52   1 H    1.002 --    16 C    0.976
    53   1 H    1.013 --    22 C    0.980
    54   1 H    1.016 --    22 C    0.983
    55   1 H    1.019 --    22 C    0.976
    56   1 H    1.001 --    23 C    0.971
    57   1 H    1.003 --    24 C    0.974
    58   1 H    0.999 --    25 C    0.969
    59   1 H    1.016 --    28 C    0.983
    60   1 H    1.009 --    28 C    0.980
    61   1 H    1.009 --    28 C    0.980
    62   1 H    1.002 --    30 C    0.975
    63   1 H    0.999 --    31 C    0.976
    64   1 H    0.988 --    34 N    0.874
    65   1 H    1.019 --    38 C    0.976
    66   1 H    1.016 --    38 C    0.983
    67   1 H    1.014 --    38 C    0.979
    68   1 H    1.001 --    39 C    0.971
    69   1 H    1.003 --    40 C    0.974
    70   1 H    0.999 --    41 C    0.969
    71   1 H    1.009 --    44 C    0.980
    72   1 H    1.016 --    44 C    0.983
    73   1 H    1.009 --    44 C    0.980
    74   6 C    3.925 --   105 C    1.363    75 C    1.348   118 H    0.971
    75   6 C    3.904 --    74 C    1.348    76 C    1.228    79 N    1.170
    76   6 C    3.953 --    77 C    1.597    75 C    1.228   119 H    0.977
    77   6 C    3.960 --    76 C    1.597    78 C    1.233   120 H    0.976
    78   6 C    3.896 --    80 C    1.309    77 C    1.233    79 N    1.171
    79   7 N    3.466 --    78 C    1.171    75 C    1.170   121 H    0.874
    80   6 C    3.938 --    81 C    1.335    78 C    1.309   108 C    1.005
    81   6 C    3.916 --    80 C    1.335    84 N    1.283    82 C    1.125
    82   6 C    3.966 --    83 C    1.706    81 C    1.125   122 H    0.975
    83   6 C    3.964 --    82 C    1.706    85 C    1.131   123 H    0.971
    84   7 N    3.021 --    85 C    1.342    81 C    1.283
    85   6 C    3.915 --    84 N    1.342    86 C    1.259    83 C    1.131
    86   6 C    3.937 --    85 C    1.259    87 C    1.257   150 C    1.177
    87   6 C    3.891 --    86 C    1.257    88 C    1.249   107 N    1.187
    88   6 C    3.959 --    89 C    1.583    87 C    1.249   124 H    0.972
    89   6 C    3.956 --    88 C    1.583    90 C    1.240   125 H    0.976
    90   6 C    3.898 --    91 C    1.311    89 C    1.240   107 N    1.163
    91   6 C    3.925 --   102 C    1.326    90 C    1.311    92 C    1.007
    92   6 C    3.973 --    93 C    1.369    99 C    1.318    91 C    1.007
    93   6 C    3.904 --    92 C    1.369    96 C    1.334    94 O    1.035
    94   8 O    2.146 --    93 C    1.035    95 C    0.927
    95   6 C    3.901 --   127 H    0.983   126 H    0.979   128 H    0.976
                            94 O    0.927
    96   6 C    3.985 --    97 C    1.477    93 C    1.334   129 H    0.971
    97   6 C    3.994 --    96 C    1.477    98 C    1.415   130 H    0.974
    98   6 C    3.981 --    97 C    1.415    99 C    1.386   131 H    0.969
    99   6 C    3.902 --    98 C    1.386    92 C    1.318   100 O    1.028
   100   8 O    2.141 --    99 C    1.028   101 C    0.936
   101   6 C    3.908 --   132 H    0.983   134 H    0.980   133 H    0.980
                           100 O    0.936
   102   6 C    3.929 --    91 C    1.326   106 N    1.308   103 C    1.117
   103   6 C    3.967 --   104 C    1.722   102 C    1.117   135 H    0.975
   104   6 C    3.966 --   103 C    1.722   105 C    1.118   136 H    0.976
   105   6 C    3.931 --    74 C    1.363   106 N    1.304   104 C    1.118
   106   7 N    3.010 --   102 C    1.308   105 C    1.304
   107   7 N    3.472 --    87 C    1.187    90 C    1.163   137 H    0.874
   108   6 C    3.973 --   109 C    1.370   115 C    1.319    80 C    1.005
   109   6 C    3.903 --   108 C    1.370   112 C    1.332   110 O    1.036
   110   8 O    2.148 --   109 C    1.036   111 C    0.927
   111   6 C    3.901 --   139 H    0.983   140 H    0.978   138 H    0.976
                           110 O    0.927
   112   6 C    3.985 --   113 C    1.478   109 C    1.332   141 H    0.971
   113   6 C    3.995 --   112 C    1.478   114 C    1.414   142 H    0.974
   114   6 C    3.981 --   113 C    1.414   115 C    1.387   143 H    0.969
   115   6 C    3.902 --   114 C    1.387   108 C    1.319   116 O    1.028
   116   8 O    2.141 --   115 C    1.028   117 C    0.936
   117   6 C    3.908 --   145 H    0.983   144 H    0.980   146 H    0.980
                           116 O    0.936
   118   1 H    1.002 --    74 C    0.971
   119   1 H    0.998 --    76 C    0.977
   120   1 H    1.002 --    77 C    0.976
   121   1 H    0.987 --    79 N    0.874
   122   1 H    1.003 --    82 C    0.975
   123   1 H    1.006 --    83 C    0.971
   124   1 H    1.005 --    88 C    0.972
   125   1 H    1.002 --    89 C    0.976
   126   1 H    1.015 --    95 C    0.979
   127   1 H    1.016 --    95 C    0.983
   128   1 H    1.018 --    95 C    0.976
   129   1 H    1.001 --    96 C    0.971
   130   1 H    1.003 --    97 C    0.974
   131   1 H    0.999 --    98 C    0.969
   132   1 H    1.016 --   101 C    0.983
   133   1 H    1.009 --   101 C    0.980
   134   1 H    1.009 --   101 C    0.980
   135   1 H    1.002 --   103 C    0.975
   136   1 H    0.999 --   104 C    0.976
   137   1 H    0.988 --   107 N    0.874
   138   1 H    1.018 --   111 C    0.976
   139   1 H    1.016 --   111 C    0.983
   140   1 H    1.015 --   111 C    0.978
   141   1 H    1.001 --   112 C    0.971
   142   1 H    1.003 --   113 C    0.974
   143   1 H    0.999 --   114 C    0.969
   144   1 H    1.009 --   117 C    0.980
   145   1 H    1.016 --   117 C    0.983
   146   1 H    1.009 --   117 C    0.980
   147   6 C    3.929 --   148 C    2.575    13 C    1.176
   148   6 C    3.931 --   147 C    2.575   151 C    1.177
   149   6 C    3.931 --   150 C    2.574   163 C    1.178
   150   6 C    3.929 --   149 C    2.574    86 C    1.177
   151   6 C    3.924 --   182 C    1.258   152 C    1.255   148 C    1.177
   152   6 C    3.893 --   151 C    1.255   153 C    1.249   156 N    1.189
   153   6 C    3.956 --   154 C    1.582   152 C    1.249   195 H    0.973
   154   6 C    3.957 --   153 C    1.582   155 C    1.244   196 H    0.976
   155   6 C    3.892 --   157 C    1.306   154 C    1.244   156 N    1.165
   156   7 N    3.471 --   152 C    1.189   155 C    1.165   197 H    0.874
   157   6 C    3.927 --   158 C    1.344   155 C    1.306   185 C    1.016
   158   6 C    3.916 --   157 C    1.344   161 N    1.283   159 C    1.124
   159   6 C    3.967 --   160 C    1.712   158 C    1.124   198 H    0.975
   160   6 C    3.965 --   159 C    1.712   162 C    1.127   199 H    0.971
   161   7 N    3.010 --   162 C    1.344   158 C    1.283
   162   6 C    3.916 --   161 N    1.344   163 C    1.260   160 C    1.127
   163   6 C    3.925 --   162 C    1.260   164 C    1.253   149 C    1.178
   164   6 C    3.892 --   163 C    1.253   165 C    1.252   184 N    1.188
   165   6 C    3.956 --   166 C    1.578   164 C    1.252   200 H    0.972
   166   6 C    3.956 --   165 C    1.578   167 C    1.245   201 H    0.976
   167   6 C    3.894 --   168 C    1.303   166 C    1.245   184 N    1.164
   168   6 C    3.926 --   179 C    1.340   167 C    1.303   169 C    1.006
   169   6 C    3.973 --   176 C    1.369   170 C    1.318   168 C    1.006
   170   6 C    3.902 --   173 C    1.386   169 C    1.318   171 O    1.028
   171   8 O    2.141 --   170 C    1.028   172 C    0.936
   172   6 C    3.908 --   202 H    0.983   203 H    0.980   204 H    0.980
                           171 O    0.936
   173   6 C    3.981 --   174 C    1.415   170 C    1.386   205 H    0.969
   174   6 C    3.994 --   175 C    1.477   173 C    1.415   206 H    0.974
   175   6 C    3.985 --   174 C    1.477   176 C    1.334   207 H    0.971
   176   6 C    3.903 --   169 C    1.369   175 C    1.334   177 O    1.035
   177   8 O    2.146 --   176 C    1.035   178 C    0.926
   178   6 C    3.901 --   208 H    0.983   210 H    0.979   209 H    0.976
                           177 O    0.926
   179   6 C    3.919 --   168 C    1.340   183 N    1.280   180 C    1.125
   180   6 C    3.966 --   181 C    1.707   179 C    1.125   211 H    0.975
   181   6 C    3.964 --   180 C    1.707   182 C    1.130   212 H    0.972
   182   6 C    3.916 --   183 N    1.345   151 C    1.258   181 C    1.130
   183   7 N    3.007 --   182 C    1.345   179 C    1.280
   184   7 N    3.468 --   164 C    1.188   167 C    1.164   213 H    0.874
   185   6 C    3.977 --   186 C    1.343   192 C    1.341   157 C    1.016
                           190 C    0.100
   186   6 C    3.902 --   189 C    1.362   185 C    1.343   187 O    1.030
   187   8 O    2.143 --   186 C    1.030   188 C    0.935
   188   6 C    3.907 --   216 H    0.983   215 H    0.980   214 H    0.980
                           187 O    0.935
   189   6 C    3.983 --   190 C    1.442   186 C    1.362   217 H    0.969
   190   6 C    3.992 --   191 C    1.442   189 C    1.442   218 H    0.973
                           185 C    0.100
   191   6 C    3.983 --   190 C    1.442   192 C    1.362   219 H    0.969
   192   6 C    3.903 --   191 C    1.362   185 C    1.341   193 O    1.033
   193   8 O    2.146 --   192 C    1.033   194 C    0.935
   194   6 C    3.907 --   221 H    0.983   220 H    0.980   222 H    0.980
                           193 O    0.935
   195   1 H    1.005 --   153 C    0.973
   196   1 H    1.002 --   154 C    0.976
   197   1 H    0.988 --   156 N    0.874
   198   1 H    1.003 --   159 C    0.975
   199   1 H    1.006 --   160 C    0.971
   200   1 H    1.005 --   165 C    0.972
   201   1 H    1.002 --   166 C    0.976
   202   1 H    1.016 --   172 C    0.983
   203   1 H    1.009 --   172 C    0.980
   204   1 H    1.009 --   172 C    0.980
   205   1 H    0.999 --   173 C    0.969
   206   1 H    1.003 --   174 C    0.974
   207   1 H    1.001 --   175 C    0.971
   208   1 H    1.015 --   178 C    0.983
   209   1 H    1.019 --   178 C    0.976
   210   1 H    1.014 --   178 C    0.979
   211   1 H    1.002 --   180 C    0.975
   212   1 H    1.005 --   181 C    0.972
   213   1 H    0.988 --   184 N    0.874
   214   1 H    1.009 --   188 C    0.980
   215   1 H    1.009 --   188 C    0.980
   216   1 H    1.016 --   188 C    0.983
   217   1 H    1.000 --   189 C    0.969
   218   1 H    1.003 --   190 C    0.973
   219   1 H    1.000 --   191 C    0.969
   220   1 H    1.009 --   194 C    0.980
   221   1 H    1.015 --   194 C    0.983
   222   1 H    1.009 --   194 C    0.980
 ---------------------------------------------------------------------------

           -------------------------------------------------
          | TOTAL ENERGY             -377.710141413677 Eh   |
          | GRADIENT NORM               0.000385877545 Eh/α |
          | HOMO-LUMO GAP               0.842018878467 eV   |
           -------------------------------------------------

 * finished run on 2022/07/29 at 17:21:33.289
