   * xtb version 6.5.1 (b24c23e) compiled by 'conda@728c89f4b128' on 2022-07-12
          program call               : xtb Co_Ph3OH_C2_3.xyz --gfn 1 --opt -T 48

   ID    Z sym.   atoms
    1   27 Co     1, 63, 129
    2    6 C      2-6, 8-11, 13, 15, 17-20, 22-27, 29-32, 34, 36, 38-42,
                  64-68, 70-73, 75, 77, 79-82, 84-89, 91-94, 96, 98, 100-104,
                  125-128, 130-134, 136-139, 141, 143, 145-148, 150-155,
                  157-160, 162, 164, 166-170
    3    7 N      7, 21, 28, 43, 69, 83, 90, 105, 135, 149, 156, 171
    4    8 O      12, 14, 16, 33, 35, 37, 74, 76, 78, 95, 97, 99, 140, 142,
                  144, 161, 163, 165
    5    1 H      44-62, 106-124, 172-189
########################################################################
[WARNING] Please study the warnings concerning your input carefully
-1- prog_main_parseArguments: Unknown option '-T' provided
########################################################################

          :  Hamiltonian                  GFN1-xTB          :
 * total energy  :  -374.4887124 Eh     change        0.2498723E-08 Eh
 * total energy  :  -374.7000125 Eh     change       -0.2113002E+00 Eh
 * total energy  :  -374.8398782 Eh     change       -0.1398657E+00 Eh
 * total energy  :  -374.9036752 Eh     change       -0.6379697E-01 Eh
 * total energy  :  -374.9361013 Eh     change       -0.3242605E-01 Eh
 * total energy  :  -374.9585254 Eh     change       -0.2242414E-01 Eh
 * total energy  :  -374.9740124 Eh     change       -0.1548704E-01 Eh
 * total energy  :  -374.9859877 Eh     change       -0.1197529E-01 Eh
 * total energy  :  -374.9951465 Eh     change       -0.9158787E-02 Eh
 * total energy  :  -375.0018775 Eh     change       -0.6731021E-02 Eh
 * total energy  :  -375.0364675 Eh     change       -0.9403406E-05 Eh
 * total energy  :  -375.0364751 Eh     change       -0.7635078E-05 Eh
 * total energy  :  -375.0364827 Eh     change       -0.7621938E-05 Eh
 * total energy  :  -375.0364937 Eh     change       -0.1095223E-04 Eh
 * total energy  :  -375.0365052 Eh     change       -0.1153434E-04 Eh
 * total energy  :  -375.0365143 Eh     change       -0.9144043E-05 Eh
 * total energy  :  -375.0365212 Eh     change       -0.6852577E-05 Eh
 * total energy  :  -375.0365264 Eh     change       -0.5252507E-05 Eh
 * total energy  :  -375.0365302 Eh     change       -0.3761751E-05 Eh
   *** GEOMETRY OPTIMIZATION CONVERGED AFTER 214 ITERATIONS ***

 final structure:
================
189
 xtb: 6.5.1 (b24c23e)
Co          36.00376599208278       -0.03220918953286        0.37770815750385
C           32.99081602048265        0.00933498729823        1.80496187799756
C           33.51266974096691        1.20903638585838        1.36345870401925
C           32.81938488849622        2.45947450863101        1.42605803153698
C           33.58013565673009        3.36001169524992        0.75823207148619
C           34.76791448252449        2.67330806066559        0.34146911923742
N           34.70334650865042        1.35363492210168        0.69907094160553
C           35.89601033931059        3.31483556342090       -0.16011581975638
C           35.79329177024294        4.75239183498212       -0.50808088966934
C           34.97129934557350        5.14004366854933       -1.56630259666977
C           34.86720984331772        6.48203361492794       -1.91252376797040
O           34.08089625763545        6.86940181666774       -2.94604684594597
C           35.57669851164588        7.44287780786822       -1.18975996199887
O           35.45226305706964        8.75860174297893       -1.55112211984846
C           36.38443346563643        7.05638823154801       -0.12341778971528
O           37.03954092741083        8.05699066680227        0.54526792594546
C           36.49830665242653        5.71451017963554        0.21929756533863
C           37.12388667395770        2.67088744954109       -0.22541168735061
C           38.37852092195349        3.32245361713364       -0.45249846374465
C           39.34399519843532        2.38633693074762       -0.27925442773253
N           37.32442551355114        1.32979950709643        0.00856569818797
C           38.67555625623574        1.14827311603547       -0.02873643170089
C           39.32811840838987       -0.09114977439319       -0.04962588752767
C           38.61527412289893       -1.28607780351853       -0.21021969430854
C           39.21217563288824       -2.51219540957068       -0.63544922445631
C           38.20180445235270       -3.39826667526590       -0.81195744452099
C           36.99660894844187       -2.73498126083004       -0.41211230884188
N           37.26404316960698       -1.42092305018824       -0.09660810495599
C           35.77667271336970       -3.36493719008828       -0.21784167870609
C           35.61353670604235       -4.79425516421611       -0.57388821140622
C           36.40300455580928       -5.77633556447567        0.02419306650506
C           36.22947444494829       -7.11247561224951       -0.31789303270476
O           36.98597105003564       -8.07650006926202        0.26154340267935
C           35.26825922700770       -7.46910680349604       -1.26493375182843
O           35.12361405990983       -8.79338403348932       -1.58554750858266
C           34.47660300388217       -6.48833969343334       -1.85762305391114
O           33.55389107917213       -6.91572402256275       -2.77570667676300
C           34.64020268783921       -5.15340234453783       -1.51032352228587
C           34.72058497086350       -2.71841747322114        0.41956270695500
C           33.57599182164795       -3.39187324412155        0.95891422775725
C           32.85523512713843       -2.46384685696327        1.63407835824982
C           33.52905629524638       -1.21337667164490        1.45808314718608
N           34.68273159927814       -1.38890275819943        0.73575020843913
H           32.05076272901474        0.02373526431177        2.34407921079573
H           31.86202144408993        2.60526531693592        1.90050184196909
H           33.38539726134270        4.40681983756121        0.58941208597287
H           34.42312051708317        4.40079950621891       -2.13607334908594
H           34.14094477295138        7.83531619184458       -3.03040324724146
H           35.99935602909164        9.28723799059691       -0.94853154916087
H           37.56480465819745        7.69870041235399        1.27281414862886
H           37.11207016805579        5.42492036076072        1.06409761897538
H           38.50107993884660        4.36449813543544       -0.69892178478028
H           40.41261007759412        2.50128755292904       -0.36464172513666
H           40.26611213048891       -2.65204392628137       -0.81307019254970
H           38.26317229175348       -4.41639285189233       -1.15959791080764
H           37.13633110955159       -5.51482581518297        0.77591961674662
H           36.71557730305511       -8.93569605245806       -0.10221960975719
H           34.41854717872195       -8.86476690776158       -2.24855549923779
H           33.05642733945107       -6.16997446181248       -3.13620236837310
H           34.02634199261492       -4.39314948288138       -1.97889186736406
H           33.37925708882612       -4.44691967846745        0.85578619490127
H           31.93417567274868       -2.59149391977239        2.18039630276278
Co          57.44924699368869       -0.04885376553797        0.42955122495640
C           60.43559672067907       -0.27500441248720        1.88423581025280
C           59.86491084123658       -1.43272666214617        1.39475013559413
C           60.49762001248565       -2.71597429999857        1.42959495205883
C           59.73945447606668       -3.54377777431799        0.67056286477681
C           58.61132962411497       -2.78119036321094        0.22243340288803
N           58.70344098844634       -1.49117645080491        0.66689357415817
C           57.50857957489377       -3.33245008748214       -0.42530359067165
C           57.59950605934508       -4.73389540840512       -0.89795372749043
C           58.52183993842909       -5.05909690871258       -1.89301999249877
C           58.62049902513533       -6.36727858905779       -2.35159408294568
O           59.50463473276803       -6.69265584853798       -3.32558099660593
C           57.80407903202266       -7.35870087952638       -1.80421275985195
O           57.92643456303206       -8.64045186729951       -2.27194615267849
C           56.89478529927786       -7.03637550629145       -0.79999823590777
O           56.13850213970743       -8.06492032160156       -0.30303217436623
C           56.78707472764446       -5.72762491779875       -0.34579556548591
C           56.30911788036245       -2.64150561669762       -0.51908806393757
C           55.05907947250854       -3.22176683136646       -0.90857510007249
C           54.10064275928581       -2.29833784196326       -0.64928020208922
N           56.11831717276724       -1.33757931431314       -0.11886882155727
C           54.77380798675727       -1.12699062995367       -0.18393125474223
C           54.13381207048381        0.10778545581873       -0.00751806672421
C           54.85959708988162        1.30528680349883        0.01736012309511
C           54.27242219575728        2.58678585557468       -0.21450257410936
C           55.29408741274065        3.47161869338600       -0.31790905525432
C           56.49994283619607        2.74203499842991       -0.06310482297858
N           56.21650426401317        1.40495490840273        0.10230945354565
C           57.74982530413245        3.31707196274394        0.11436467647818
C           57.93818381828122        4.76817263725106       -0.12288549742166
C           57.23384814177989        5.71226690456811        0.62373116318888
C           57.42696225192582        7.06905260320457        0.39022158962107
O           56.75307808348640        7.99489537525732        1.11453277696122
C           58.32184777165971        7.48446554670807       -0.59707492858468
O           58.48681949279259        8.82779410611825       -0.80859044336101
C           59.02917060843943        6.54064858146087       -1.33794953526084
O           59.89062505438258        7.02470647212960       -2.28662444617341
C           58.84689411947139        5.18428814677309       -1.09943467519484
C           58.81512052564676        2.58785285033798        0.63544673825357
C           60.00495415864357        3.18288934391444        1.16961336291049
C           60.69900020555521        2.19302014978789        1.78197882087905
C           59.96393204748240        0.98376984131605        1.56891438727611
N           58.80848480655784        1.24137047673428        0.87595859583720
H           61.36544473594626       -0.35292182089526        2.43563512617257
H           61.41879670259228       -2.93052938684795        1.94767518672171
H           59.89948020897589       -4.58779431875835        0.45462548034834
H           59.15330842195936       -4.29523307888701       -2.32802899225170
H           59.42216804706353       -7.64335884198960       -3.50756178048089
H           57.29341338653307       -9.19619939199105       -1.78997181019482
H           55.53226040005865       -7.74820343029918        0.37940574954434
H           56.09398977200688       -5.49080623545678        0.45270998148448
H           54.93368380251562       -4.21292102221148       -1.31272305254948
H           53.03669240350603       -2.37434634294143       -0.80571133822398
H           53.21556487720194        2.76556004815694       -0.32882093610851
H           55.24040658370772        4.52740861349602       -0.52672277064918
H           56.55285553634219        5.40309129116954        1.40590157090739
H           57.02031989186276        8.87716850835395        0.80798645932533
H           59.13524729397894        8.94117948223380       -1.52158371433389
H           60.33027747204638        6.30195703521003       -2.75335258938963
H           59.39483712736660        4.45358263217919       -1.68263068018343
H           60.24642932282185        4.23196256442387        1.11013778004942
H           61.63765844303103        2.25409568749732        2.30951455047731
C           40.73003251089274       -0.11812790662014       -0.04240896647267
C           41.94735659002203       -0.12375285418811        0.01082389756203
C           51.51546453338840        0.14685435105765        0.06215697985850
C           52.73286108797767        0.14477422273399        0.00515541385428
Co          46.73134344542111       -0.00297601615312        0.22851906825218
C           43.34742209512473       -0.10128916582938        0.08675511354214
C           43.97637843585096        1.05452062752038        0.56617294019816
C           43.27859576071118        2.18627897548253        1.08583244812161
C           44.20618405845878        3.15466587366827        1.29096437288101
C           45.46338630359066        2.61593636286297        0.86943005607596
N           45.31736627366574        1.29805141713090        0.50071455612666
C           46.62068796124083        3.36226949631855        0.68884663258448
C           46.58100662320023        4.82394240126994        0.91044190413728
C           47.45785332362911        5.42069800760627        1.81803937104768
C           47.42865722205897        6.79340827365260        2.04599601219209
O           48.26580092368533        7.38393676260034        2.93708491846233
C           46.51888310710928        7.59354068153019        1.34605936546842
O           46.46974768304026        8.93615451893135        1.54130820287207
C           45.65168867138879        6.99025268374918        0.43100238578713
O           44.79183938685561        7.83149260458472       -0.22740350951861
C           45.66974661242421        5.62027908073293        0.21301488663562
C           47.81186461175670        2.77646643077686        0.27680155422387
C           49.00067209873934        3.49976594861042       -0.05624453391028
C           49.97977320241058        2.57877423276990       -0.23745189652429
N           48.04827264161169        1.42335322174142        0.23559092961728
C           49.38663910096918        1.30028811325800       -0.01018952753312
C           50.11580414160005        0.11527527414759        0.13171208930168
C           49.48337231011737       -1.10857952780529        0.38414189405917
C           50.17798578445635       -2.31859327818235        0.68830727665741
C           49.24940234191724       -3.30681457680340        0.70428990151098
C           47.99482379975468       -2.69748049202508        0.38144044409599
N           48.14301621562565       -1.33355643433160        0.26709209206890
C           46.84075272958949       -3.39420523233549        0.05091090600068
C           46.87395082651376       -4.87322794263986       -0.00213268110804
C           47.79251564809204       -5.52610226178602       -0.82591010689951
C           47.80627446722784       -6.91447218444931       -0.88509252203555
O           48.68168052757726       -7.56053132482066       -1.69122861585966
C           46.90465696917459       -7.65206707673889       -0.11498229064572
O           46.95462477220904       -9.03583851931496       -0.20102124727925
C           46.01151056778265       -7.00253717099766        0.73543847583689
O           45.15263233156276       -7.71864782971307        1.51513936728824
C           45.98322307484432       -5.61332617490228        0.77692845627135
C           45.65425897236160       -2.73984994286885       -0.25928953212435
C           44.46930264817414       -3.38707943964448       -0.73345920455813
C           43.49034935945802       -2.44874702643510       -0.74480754338325
C           44.07957151036022       -1.23639891493467       -0.27420671792523
N           45.41677225673509       -1.40342152131618       -0.04698250291147
H           42.21733979361003        2.22167327661217        1.27197969436629
H           44.05939432878909        4.14610385125590        1.68755102009294
H           48.15770017355449        4.80807406997543        2.37507841659823
H           48.84970315497835        6.73527337491060        3.35181556519860
H           45.78352402295018        9.30271546903267        0.96061460027227
H           44.24222262999383        7.34076097642578       -0.85210231127781
H           44.99788836180387        5.17937448041873       -0.51390782000287
H           49.06763254559249        4.57201212641465       -0.14335582626165
H           51.01560144255385        2.73881631533183       -0.48907879700713
H           51.23820563217978       -2.38913976000678        0.87021986729415
H           49.39365758859619       -4.35525693953265        0.90798690318520
H           48.47714673693119       -4.96325624997101       -1.44706069152799
H           48.53461512270150       -8.51666066319602       -1.59645359912318
H           46.06441808004898       -9.40907322225655       -0.24301900499618
H           45.44766534736451       -8.63752747174169        1.58537159266879
H           45.28570360583952       -5.11909131791668        1.44066231856073
H           44.40437414979810       -4.42380051105555       -1.02094238849795
H           42.45677923295681       -2.55820112746482       -1.03040140421056

          :  Hamiltonian                  GFN1-xTB          :
         :: total energy            -375.036530205650 Eh    ::
         :: gradient norm              0.000511694045 Eh/a0 ::
         :: HOMO-LUMO gap              0.023653352784 eV    ::
         :: SCC energy              -379.899779489634 Eh    ::
         :: repulsion energy           5.037017150996 Eh    ::

    * Orbital Energies and Occupations

         #    Occupation            Energy/Eh            Energy/eV
      -------------------------------------------------------------
         1        2.0000           -0.8139283             -22.1481
       ...           ...                  ...                  ...
       314        2.0000           -0.3957275             -10.7683
       315        2.0000           -0.3914453             -10.6518
       316        2.0000           -0.3902153             -10.6183
       317        2.0000           -0.3891052             -10.5881
       318        2.0000           -0.3890244             -10.5859
       319        1.9999           -0.3888806             -10.5820
       320        1.9999           -0.3888100             -10.5801
       321        1.9999           -0.3883352             -10.5671
       322        1.9999           -0.3881837             -10.5630
       323        1.9987           -0.3858734             -10.5002
       324        1.7542           -0.3807146             -10.3598
       325        1.2317           -0.3792008             -10.3186
       326        1.2125           -0.3791586             -10.3174 (HOMO)
       327        0.8032           -0.3782894             -10.2938 (LUMO)
       328                         -0.3435561              -9.3486
       329                         -0.3319294              -9.0323
       330                         -0.3286122              -8.9420
       331                         -0.3282022              -8.9308
       332                         -0.3281611              -8.9297
       333                         -0.3199574              -8.7065
       334                         -0.3015877              -8.2066
       335                         -0.2927983              -7.9674
       336                         -0.2892950              -7.8721
       337                         -0.2880879              -7.8393
       ...                                ...                  ...
       659                          1.3372937              36.3896
      -------------------------------------------------------------
                  HL-Gap            0.0008692 Eh            0.0237 eV

Wiberg/Mayer (AO) data.
largest (>0.10) Wiberg bond orders for each atom

     #   Z sym  total        # sym  WBO       # sym  WBO       # sym  WBO
 ---------------------------------------------------------------------------
     1  27 Co   3.040 --     7 N    0.635    43 N    0.633    28 N    0.626
                            21 N    0.625
     2   6 C    3.923 --    42 C    1.364     3 C    1.359    44 H    0.971
     3   6 C    3.925 --     2 C    1.359     7 N    1.204     4 C    1.176
     4   6 C    3.961 --     5 C    1.647     3 C    1.176    45 H    0.975
     5   6 C    3.962 --     4 C    1.647     6 C    1.176    46 H    0.974
     6   6 C    3.921 --     8 C    1.313     7 N    1.219     5 C    1.176
     7   7 N    3.345 --     6 C    1.219     3 C    1.204     1 Co   0.635
     8   6 C    3.926 --    18 C    1.332     6 C    1.313     9 C    1.026
     9   6 C    3.988 --    10 C    1.399    17 C    1.387     8 C    1.026
    10   6 C    3.975 --     9 C    1.399    11 C    1.381    47 H    0.970
    11   6 C    3.917 --    10 C    1.381    13 C    1.323    12 O    1.053
    12   8 O    2.049 --    11 C    1.053    48 H    0.847
    13   6 C    3.904 --    15 C    1.341    11 C    1.323    14 O    1.021
    14   8 O    2.021 --    13 C    1.021    49 H    0.846
    15   6 C    3.905 --    17 C    1.383    13 C    1.341    16 O    1.014
    16   8 O    2.025 --    15 C    1.014    50 H    0.861
    17   6 C    3.973 --     9 C    1.387    15 C    1.383    51 H    0.969
    18   6 C    3.918 --     8 C    1.332    21 N    1.194    19 C    1.183
    19   6 C    3.959 --    20 C    1.633    18 C    1.183    52 H    0.972
    20   6 C    3.960 --    19 C    1.633    22 C    1.189    53 H    0.972
    21   7 N    3.344 --    22 C    1.241    18 C    1.194     1 Co   0.625
    22   6 C    3.910 --    23 C    1.251    21 N    1.241    20 C    1.189
    23   6 C    3.925 --    22 C    1.251    24 C    1.249   125 C    1.197
    24   6 C    3.909 --    23 C    1.249    28 N    1.246    25 C    1.189
    25   6 C    3.961 --    26 C    1.637    24 C    1.189    54 H    0.969
    26   6 C    3.959 --    25 C    1.637    27 C    1.179    55 H    0.972
    27   6 C    3.918 --    29 C    1.341    28 N    1.188    26 C    1.179
    28   7 N    3.342 --    24 C    1.246    27 C    1.188     1 Co   0.626
    29   6 C    3.927 --    27 C    1.341    39 C    1.304    30 C    1.028
    30   6 C    3.988 --    31 C    1.398    38 C    1.386    29 C    1.028
    31   6 C    3.977 --    30 C    1.398    32 C    1.379    56 H    0.969
    32   6 C    3.917 --    31 C    1.379    34 C    1.325    33 O    1.052
    33   8 O    2.048 --    32 C    1.052    57 H    0.848
    34   6 C    3.904 --    36 C    1.339    32 C    1.325    35 O    1.021
    35   8 O    2.021 --    34 C    1.021    58 H    0.846
    36   6 C    3.905 --    38 C    1.386    34 C    1.339    37 O    1.014
    37   8 O    2.025 --    36 C    1.014    59 H    0.860
    38   6 C    3.971 --    30 C    1.386    36 C    1.386    60 H    0.970
    39   6 C    3.920 --    29 C    1.304    43 N    1.226    40 C    1.179
    40   6 C    3.963 --    41 C    1.645    39 C    1.179    61 H    0.974
    41   6 C    3.960 --    40 C    1.645    42 C    1.176    62 H    0.975
    42   6 C    3.925 --     2 C    1.364    43 N    1.198    41 C    1.176
    43   7 N    3.345 --    39 C    1.226    42 C    1.198     1 Co   0.633
    44   1 H    1.000 --     2 C    0.971
    45   1 H    0.997 --     4 C    0.975
    46   1 H    1.004 --     5 C    0.974
    47   1 H    0.999 --    10 C    0.970
    48   1 H    0.877 --    12 O    0.847
    49   1 H    0.876 --    14 O    0.846
    50   1 H    0.881 --    16 O    0.861
    51   1 H    1.001 --    17 C    0.969
    52   1 H    1.006 --    19 C    0.972
    53   1 H    1.004 --    20 C    0.972
    54   1 H    1.004 --    25 C    0.969
    55   1 H    1.005 --    26 C    0.972
    56   1 H    1.000 --    31 C    0.969
    57   1 H    0.878 --    33 O    0.848
    58   1 H    0.876 --    35 O    0.846
    59   1 H    0.881 --    37 O    0.860
    60   1 H    1.000 --    38 C    0.970
    61   1 H    1.004 --    40 C    0.974
    62   1 H    0.997 --    41 C    0.975
    63  27 Co   3.052 --    69 N    0.635   105 N    0.634    83 N    0.626
                            90 N    0.626
    64   6 C    3.922 --    65 C    1.362   104 C    1.360   106 H    0.971
    65   6 C    3.924 --    64 C    1.362    69 N    1.200    66 C    1.176
    66   6 C    3.960 --    67 C    1.646    65 C    1.176   107 H    0.975
    67   6 C    3.963 --    66 C    1.646    68 C    1.178   108 H    0.974
    68   6 C    3.920 --    70 C    1.306    69 N    1.224    67 C    1.178
    69   7 N    3.346 --    68 C    1.224    65 C    1.200    63 Co   0.635
    70   6 C    3.926 --    80 C    1.337    68 C    1.306    71 C    1.029
    71   6 C    3.988 --    72 C    1.397    79 C    1.386    70 C    1.029
    72   6 C    3.975 --    71 C    1.397    73 C    1.381   109 H    0.970
    73   6 C    3.917 --    72 C    1.381    75 C    1.323    74 O    1.053
    74   8 O    2.049 --    73 C    1.053   110 H    0.847
    75   6 C    3.903 --    77 C    1.340    73 C    1.323    76 O    1.022
    76   8 O    2.021 --    75 C    1.022   111 H    0.846
    77   6 C    3.905 --    79 C    1.383    75 C    1.340    78 O    1.014
    78   8 O    2.025 --    77 C    1.014   112 H    0.860
    79   6 C    3.973 --    71 C    1.386    77 C    1.383   113 H    0.969
    80   6 C    3.918 --    70 C    1.337    83 N    1.190    81 C    1.182
    81   6 C    3.959 --    82 C    1.634    80 C    1.182   114 H    0.972
    82   6 C    3.960 --    81 C    1.634    84 C    1.190   115 H    0.972
    83   7 N    3.343 --    84 C    1.246    80 C    1.190    63 Co   0.626
    84   6 C    3.909 --    83 N    1.246    85 C    1.245    82 C    1.190
    85   6 C    3.923 --    86 C    1.250    84 C    1.245   128 C    1.200
    86   6 C    3.909 --    85 C    1.250    90 N    1.244    87 C    1.189
    87   6 C    3.961 --    88 C    1.636    86 C    1.189   116 H    0.969
    88   6 C    3.959 --    87 C    1.636    89 C    1.181   117 H    0.972
    89   6 C    3.918 --    91 C    1.337    90 N    1.191    88 C    1.181
    90   7 N    3.342 --    86 C    1.244    89 C    1.191    63 Co   0.626
    91   6 C    3.926 --    89 C    1.337   101 C    1.307    92 C    1.026
    92   6 C    3.988 --    93 C    1.399   100 C    1.387    91 C    1.026
    93   6 C    3.977 --    92 C    1.399    94 C    1.379   118 H    0.969
    94   6 C    3.918 --    93 C    1.379    96 C    1.324    95 O    1.054
    95   8 O    2.049 --    94 C    1.054   119 H    0.847
    96   6 C    3.904 --    98 C    1.339    94 C    1.324    97 O    1.022
    97   8 O    2.022 --    96 C    1.022   120 H    0.846
    98   6 C    3.905 --   100 C    1.385    96 C    1.339    99 O    1.014
    99   8 O    2.025 --    98 C    1.014   121 H    0.860
   100   6 C    3.971 --    92 C    1.387    98 C    1.385   122 H    0.970
   101   6 C    3.920 --    91 C    1.307   105 N    1.223   102 C    1.178
   102   6 C    3.962 --   103 C    1.645   101 C    1.178   123 H    0.974
   103   6 C    3.960 --   102 C    1.645   104 C    1.177   124 H    0.975
   104   6 C    3.924 --    64 C    1.360   105 N    1.201   103 C    1.177
   105   7 N    3.345 --   101 C    1.223   104 C    1.201    63 Co   0.634
   106   1 H    1.000 --    64 C    0.971
   107   1 H    0.997 --    66 C    0.975
   108   1 H    1.004 --    67 C    0.974
   109   1 H    0.999 --    72 C    0.970
   110   1 H    0.877 --    74 O    0.847
   111   1 H    0.876 --    76 O    0.846
   112   1 H    0.881 --    78 O    0.860
   113   1 H    1.002 --    79 C    0.969
   114   1 H    1.005 --    81 C    0.972
   115   1 H    1.004 --    82 C    0.972
   116   1 H    1.004 --    87 C    0.969
   117   1 H    1.005 --    88 C    0.972
   118   1 H    1.000 --    93 C    0.969
   119   1 H    0.877 --    95 O    0.847
   120   1 H    0.876 --    97 O    0.846
   121   1 H    0.881 --    99 O    0.860
   122   1 H    1.000 --   100 C    0.970
   123   1 H    1.004 --   102 C    0.974
   124   1 H    0.997 --   103 C    0.975
   125   6 C    3.926 --   126 C    2.550    23 C    1.197
   126   6 C    3.925 --   125 C    2.550   130 C    1.196
   127   6 C    3.924 --   128 C    2.546   151 C    1.199
   128   6 C    3.927 --   127 C    2.546    85 C    1.200
   129  27 Co   2.997 --   156 N    0.622   171 N    0.622   135 N    0.621
                           149 N    0.621
   130   6 C    3.913 --   170 C    1.258   131 C    1.247   126 C    1.196
   131   6 C    3.909 --   130 C    1.247   135 N    1.240   132 C    1.196
   132   6 C    3.959 --   133 C    1.627   131 C    1.196   172 H    0.972
   133   6 C    3.959 --   132 C    1.627   134 C    1.187   173 H    0.973
   134   6 C    3.916 --   136 C    1.323   135 N    1.194   133 C    1.187
   135   7 N    3.332 --   131 C    1.240   134 C    1.194   129 Co   0.621
   136   6 C    3.920 --   134 C    1.323   146 C    1.316   137 C    1.037
   137   6 C    3.987 --   138 C    1.388   145 C    1.380   136 C    1.037
   138   6 C    3.972 --   137 C    1.388   139 C    1.383   174 H    0.969
   139   6 C    3.915 --   138 C    1.383   141 C    1.318   140 O    1.045
   140   8 O    2.054 --   139 C    1.045   175 H    0.866
   141   6 C    3.913 --   143 C    1.327   139 C    1.318   142 O    1.053
   142   8 O    2.048 --   141 C    1.053   176 H    0.850
   143   6 C    3.903 --   145 C    1.393   141 C    1.327   144 O    1.013
   144   8 O    2.026 --   143 C    1.013   177 H    0.861
   145   6 C    3.972 --   143 C    1.393   137 C    1.380   178 H    0.969
   146   6 C    3.915 --   136 C    1.316   149 N    1.201   147 C    1.188
   147   6 C    3.959 --   148 C    1.629   146 C    1.188   179 H    0.973
   148   6 C    3.958 --   147 C    1.629   150 C    1.194   180 H    0.970
   149   7 N    3.332 --   150 C    1.233   146 C    1.201   129 Co   0.621
   150   6 C    3.909 --   151 C    1.255   149 N    1.233   148 C    1.194
   151   6 C    3.913 --   150 C    1.255   152 C    1.247   127 C    1.199
   152   6 C    3.908 --   151 C    1.247   156 N    1.241   153 C    1.194
   153   6 C    3.960 --   154 C    1.630   152 C    1.194   181 H    0.972
   154   6 C    3.959 --   153 C    1.630   155 C    1.184   182 H    0.973
   155   6 C    3.916 --   157 C    1.327   156 N    1.192   154 C    1.184
   156   7 N    3.332 --   152 C    1.241   155 C    1.192   129 Co   0.622
   157   6 C    3.919 --   155 C    1.327   167 C    1.315   158 C    1.034
   158   6 C    3.988 --   166 C    1.394   159 C    1.394   157 C    1.034
   159   6 C    3.975 --   158 C    1.394   160 C    1.378   183 H    0.969
   160   6 C    3.917 --   159 C    1.378   162 C    1.332   161 O    1.055
   161   8 O    2.051 --   160 C    1.055   184 H    0.847
   162   6 C    3.887 --   164 C    1.345   160 C    1.332   163 O    0.980
   163   8 O    1.983 --   162 C    0.980   185 H    0.863
   164   6 C    3.911 --   166 C    1.380   162 C    1.345   165 O    1.030
   165   8 O    2.032 --   164 C    1.030   186 H    0.862
   166   6 C    3.974 --   158 C    1.394   164 C    1.380   187 H    0.969
   167   6 C    3.915 --   157 C    1.315   171 N    1.202   168 C    1.187
   168   6 C    3.959 --   169 C    1.630   167 C    1.187   188 H    0.974
   169   6 C    3.960 --   168 C    1.630   170 C    1.193   189 H    0.969
   170   6 C    3.909 --   130 C    1.258   171 N    1.231   169 C    1.193
   171   7 N    3.332 --   170 C    1.231   167 C    1.202   129 Co   0.622
   172   1 H    1.004 --   132 C    0.972
   173   1 H    1.005 --   133 C    0.973
   174   1 H    1.001 --   138 C    0.969
   175   1 H    0.886 --   140 O    0.866
   176   1 H    0.881 --   142 O    0.850
   177   1 H    0.882 --   144 O    0.861
   178   1 H    1.002 --   145 C    0.969
   179   1 H    1.004 --   147 C    0.973
   180   1 H    1.004 --   148 C    0.970
   181   1 H    1.004 --   153 C    0.972
   182   1 H    1.005 --   154 C    0.973
   183   1 H    1.000 --   159 C    0.969
   184   1 H    0.881 --   161 O    0.847
   185   1 H    0.883 --   163 O    0.863
   186   1 H    0.885 --   165 O    0.862
   187   1 H    1.000 --   166 C    0.969
   188   1 H    1.004 --   168 C    0.974
   189   1 H    1.004 --   169 C    0.969
 ---------------------------------------------------------------------------

           -------------------------------------------------
          | TOTAL ENERGY             -375.036530205650 Eh   |
          | GRADIENT NORM               0.000511694045 Eh/α |
          | HOMO-LUMO GAP               0.023653352784 eV   |
           -------------------------------------------------

 * finished run on 2022/07/30 at 03:17:48.228
