   * xtb version 6.5.1 (b24c23e) compiled by 'conda@728c89f4b128' on 2022-07-12
          program call               : xtb Cu_Ph2OMe_C2_3.xyz --gfn 1 --opt -T 48

   ID    Z sym.   atoms
    1   29 Cu     1, 73, 149
    2    6 C      2-6, 8-11, 13-21, 23-27, 29-33, 36, 37, 39-43, 45, 74-78,
                  80-83, 85-93, 95-99, 101-105, 108, 109, 111-115, 117,
                  145-148, 150-154, 156-159, 161-169, 171-175, 177-181, 184,
                  185, 187-191, 193
    3    7 N      7, 12, 34, 35, 79, 84, 106, 107, 155, 160, 182, 183
    4    8 O      22, 28, 38, 44, 94, 100, 110, 116, 170, 176, 186, 192
    5    1 H      46-72, 118-144, 194-219
########################################################################
[WARNING] Please study the warnings concerning your input carefully
-1- prog_main_parseArguments: Unknown option '-T' provided
########################################################################

          :  Hamiltonian                  GFN1-xTB          :
 * total energy  :  -387.2951148 Eh     change       -0.7738265E-08 Eh
 * total energy  :  -387.8373155 Eh     change       -0.5422007E+00 Eh
 * total energy  :  -387.9906135 Eh     change       -0.1532980E+00 Eh
 * total energy  :  -388.0657270 Eh     change       -0.7511345E-01 Eh
 * total energy  :  -388.0925566 Eh     change       -0.2682956E-01 Eh
 * total energy  :  -388.1054067 Eh     change       -0.1285018E-01 Eh
 * total energy  :  -388.1108405 Eh     change       -0.5433727E-02 Eh
 * total energy  :  -388.1136035 Eh     change       -0.2762998E-02 Eh
 * total energy  :  -388.1153473 Eh     change       -0.1743859E-02 Eh
 * total energy  :  -388.1166755 Eh     change       -0.1328202E-02 Eh
 * total energy  :  -388.1245122 Eh     change       -0.2037988E-04 Eh
 * total energy  :  -388.1245285 Eh     change       -0.1627285E-04 Eh
 * total energy  :  -388.1245351 Eh     change       -0.6615009E-05 Eh
 * total energy  :  -388.1245466 Eh     change       -0.1148513E-04 Eh
 * total energy  :  -388.1245521 Eh     change       -0.5553458E-05 Eh
 * total energy  :  -388.1245523 Eh     change       -0.1813540E-06 Eh
 * total energy  :  -388.1245595 Eh     change       -0.7223268E-05 Eh
 * total energy  :  -388.1245668 Eh     change       -0.7232333E-05 Eh
 * total energy  :  -388.1245713 Eh     change       -0.4487267E-05 Eh
   *** GEOMETRY OPTIMIZATION CONVERGED AFTER 74 ITERATIONS ***

 final structure:
================
219
 xtb: 6.5.1 (b24c23e)
Cu          33.71898262862582        0.11009808806503       -0.03223165213031
C           30.31331852078799        0.22539636679143       -0.11467254323063
C           30.94381763057720        1.03854767949296        0.81560734601838
C           30.26482013064749        1.89515278682762        1.74631737105187
C           31.22044242360871        2.51033059247619        2.48608193006257
C           32.49248093153812        2.03955350642627        2.01039823436880
N           32.29274582745556        1.14728376682687        0.99638827091876
C           33.73201206375244        2.41904395538537        2.52624792557142
C           34.96549111234377        1.93356427255484        2.09183666847618
C           36.23913935099958        2.35480233971870        2.60244128524065
C           37.18983044529616        1.67678244546167        1.91129229297236
N           35.16081457689999        1.00998248220411        1.09983019735307
C           36.50532352620172        0.84013897017631        0.97057652907257
C           37.14510622349688        0.00236292971174        0.04286388731556
C           36.49475856405882       -0.79948524396914       -0.90921769468490
C           37.16575437411243       -1.68086587333027       -1.81851114391929
C           36.20549282443068       -2.30032440226375       -2.55015296033112
C           34.93995221492926       -1.79745807293478       -2.09654313282570
C           33.69891317440367       -2.20302737559781       -2.58666950043292
C           33.69032274850167       -3.21277761040337       -3.68374845530562
C           34.12766852083893       -2.86904206443059       -4.96956736322550
O           34.53538408743288       -1.58239361492730       -5.13356615606072
C           35.01562454482745       -1.13738490687460       -6.38551910311192
C           34.11865585322288       -3.81468984587149       -5.99452269344684
C           33.67646039007600       -5.10178148514396       -5.72825850337654
C           33.24114350229119       -5.46595388256070       -4.46305063078457
C           33.24614714311887       -4.51887105656725       -3.43937581299179
O           32.84669541840338       -4.78169973322500       -2.16651236098326
C           32.38344497990678       -6.06877405924192       -1.81276390553375
C           32.46458178383298       -1.73994855879676       -2.13038566335344
C           31.18826143166094       -2.12692103550132       -2.66614725067218
C           30.24177278174420       -1.44438265189851       -1.97522638531978
C           30.93132779216458       -0.63128825945075       -1.01369567043619
N           32.27697729028674       -0.83160062434704       -1.12860749860453
N           35.14936703721693       -0.88523012472407       -1.09691923443394
C           33.73960692308916        3.42412555760277        3.62739060411883
C           34.11477773369869        3.05205696717255        4.92514449751219
O           34.44528852752183        1.74428988586002        5.09551894182869
C           34.87633285194677        1.27255713515159        6.35561893687098
C           34.12349009880567        3.99245238674474        5.95487265938779
C           33.76131115471741        5.30290531402626        5.68199691579256
C           33.38810702117318        5.69526452111502        4.40542563346155
C           33.37497050452674        4.75362807816367        3.37684221752317
O           33.03250777985352        5.04430448967662        2.09337513617225
C           32.64086088802240        6.35385009877225        1.73585299192070
H           29.22890443955785        0.26249151111684       -0.14115186576099
H           29.19307319416058        1.99795372320842        1.81701925409902
H           31.08537896415095        3.21925262671714        3.28729534772894
H           36.38147407193776        3.08128973772501        3.38620362841942
H           38.26148301247348        1.73696461004831        2.01663067340996
H           38.23491513079352       -1.81027121521437       -1.87512841364281
H           36.33514055406792       -3.03699151387573       -3.32660778108043
H           34.24432864034841       -1.21129851289082       -7.16195324387643
H           35.28886022506443       -0.08909556324486       -6.25096028741047
H           35.90150621882766       -1.70252767699557       -6.70016366407768
H           34.45054615868519       -3.55777951173436       -6.99162367242209
H           33.67095046461979       -5.83776725616373       -6.52482948443624
H           32.90357985289631       -6.47792470130358       -4.28323674062941
H           32.12746925925948       -6.01880081042437       -0.75273219213131
H           31.49025219632348       -6.34622868847407       -2.38578670766674
H           33.15921335079941       -6.83007753830092       -1.96000617503885
H           31.04459160433859       -2.82951488827224       -3.47148953851165
H           29.17021693963306       -1.47460091933043       -2.09792559413349
H           35.10439265410860        0.21345556911131        6.22164190885667
H           34.09198161593243        1.37842891391968        7.11505888706436
H           35.77978238698610        1.79535663206355        6.69258465691359
H           34.40744589126527        3.71346818016435        6.96080621893137
H           33.76999027277557        6.03490782487827        6.48218835085442
H           33.11265734359633        6.72500382943558        4.22065150974421
H           33.44809656901451        7.07640456323488        1.90753435755588
H           32.41017798669575        6.32161063027890        0.66932209308105
H           31.74744874226837        6.67117889689405        2.28752466823839
Cu          55.52435253035722        0.00983920922191       -0.09524033221737
C           58.93066858472744        0.11301391549875       -0.20015230251404
C           58.29782037907349       -0.63717069142566       -1.18035754953942
C           58.97384777602088       -1.38015893479502       -2.20598369786128
C           58.01571573046115       -1.97590005752894       -2.95841557318015
C           56.74537709782832       -1.59567140052890       -2.40416935008826
N           56.94830197210434       -0.78670621242949       -1.32314064276368
C           55.50339641219830       -2.00534338531075       -2.88922187781038
C           54.27058682967847       -1.65570335960609       -2.33885084382969
C           52.99638170799206       -2.05465098373721       -2.86470212206335
C           52.04678810092295       -1.51094148206194       -2.06240701024580
N           54.07642721879019       -0.87227024232652       -1.23232894533532
C           52.73187487391526       -0.77106759753688       -1.04456831376566
C           52.09425254507708       -0.07034002969191       -0.00698988693437
C           52.75124936127605        0.65075999058791        1.00409097278545
C           52.08555250962411        1.34657291133215        2.06512556412738
C           53.04881055189443        1.92480611441030        2.82582124490813
C           54.31156538800307        1.59488696322275        2.22890905056730
C           55.55352242721896        2.00494914788771        2.71339483776243
C           55.56565066123017        2.87226447398957        3.92610870494853
C           55.09604983135833        4.19081306655117        3.85964973476198
O           54.65519050477501        4.60326959459236        2.64145304882580
C           54.13214455390360        5.90470826518866        2.47164752633662
C           55.10887108227224        5.00304666732065        4.99313712469299
C           55.58785292690512        4.49248133344340        6.19012441656666
C           56.05658544634492        3.19058831576910        6.28072477624840
C           56.04750382649523        2.37983408379595        5.14605042936029
O           56.47846800899450        1.09004655351930        5.13764676009448
C           56.99504262091023        0.50041933200569        6.31308659852665
C           56.78559512267306        1.67280252240384        2.14927785123290
C           58.06237338321685        2.12867453838196        2.62655848072933
C           59.00626693855617        1.60014386129856        1.80880807430885
C           58.31461357464655        0.82096837645845        0.82120258338215
N           56.96994952578716        0.88490899754892        1.04966495516822
N           54.09746741813136        0.81338860949419        1.12462208145352
C           55.49130494262151       -2.89026946826598       -4.08932515720000
C           55.11136160220546       -4.23391369717262       -3.97255014678941
O           54.78058682726230       -4.65017569250097       -2.72127375134458
C           54.34929064458193       -5.97701017553175       -2.49826156828968
C           55.09834791084349       -5.06392537524959       -5.09303349128823
C           55.46114226354992       -4.54561532497910       -6.32702922211860
C           55.83919703311467       -3.21887654752838       -6.46744269403767
C           55.85656533982625       -2.39021081674115       -5.34581067402786
O           56.20480688686400       -1.07618719371617       -5.38411905481983
C           56.59008130984972       -0.47353820563656       -6.60253974417527
H           60.01492626173229        0.14770072092763       -0.23443503937401
H           60.04543490773670       -1.43444745716131       -2.31976544230259
H           58.14788314255028       -2.61801514403266       -3.81456500087790
H           52.85312367212161       -2.67122067147882       -3.73741714963063
H           50.97555726823725       -1.60213440931296       -2.14353607299600
H           51.01675946673327        1.38333763221041        2.20259071910768
H           52.92207191437863        2.52368491251596        3.71325067161557
H           54.88620220179222        6.67255570485807        2.68381291564269
H           53.83219346538531        5.97724457008252        1.42452375176927
H           53.25556158058410        6.07187222863101        3.10938879759612
H           54.75204621564796        6.02342942370604        4.95038121946919
H           55.59640053325511        5.12343494069452        7.07218357069051
H           56.42289480107078        2.81787312367018        7.22796190560080
H           57.27560849385201       -0.51953992723452        6.04346297415856
H           57.88284042551872        1.03418398886987        6.67384057062406
H           56.24309555182968        0.46763293848795        7.11097696764473
H           58.20858031462338        2.77274759853942        3.47893261671741
H           60.07735722485592        1.72186942705836        1.85502833622741
H           54.12353902141052       -6.04791599456182       -1.43256754363261
H           55.13281793191095       -6.70256524826375       -2.74898279721883
H           53.44453255530215       -6.20745080448244       -3.07385954888077
H           54.81052760469235       -6.10361106056957       -5.01209526114058
H           55.44915833400474       -5.19030164061420       -7.19906238050239
H           56.11533416923140       -2.84106264561088       -7.44282179743933
H           55.77866969427279       -0.50278212977009       -7.34003227982610
H           56.82248997662079        0.56675492304174       -6.36700070836287
H           57.48091977192806       -0.95425281552215       -7.02501439338761
C           38.55620655402858       -0.03114376359048        0.06274418802060
C           39.77169997318835       -0.05411753862130        0.07243015664138
C           49.46705498706054       -0.10125602079863        0.03142773470220
C           50.68324740188747       -0.09083323753210        0.01881339333583
Cu          44.61806922070954       -0.10102058751763        0.05630498192586
C           41.18278907415077       -0.07603917108393        0.07074273005320
C           41.83485080153336        0.02151249741696        1.31072082504635
C           41.16336467958052        0.09010386628098        2.57450389474069
C           42.12516443996287        0.14323576769447        3.53063120261452
C           43.39121587400505        0.11528749958783        2.85603410392090
N           43.18176167200263        0.04007213704691        1.50502552373541
C           44.63380815771724        0.13663078064388        3.48877732542178
C           45.86997652282125        0.08459417179850        2.84524526050911
C           47.14154073216589        0.14728125203889        3.50665282172219
C           48.09487554388707        0.08336968618961        2.54293143252101
N           46.06839098400311       -0.01179641368286        1.49361046135253
C           47.41348865569731       -0.01287611966724        1.28643560019405
C           48.05609426307770       -0.10740280243643        0.04040781840438
C           47.40161159972512       -0.20472201189919       -1.19930537064354
C           48.07106133641215       -0.30663975282665       -2.46197556231706
C           47.10885294171179       -0.36937672997671       -3.41669560731011
C           45.84368061492685       -0.29904379277373       -2.74384177073048
C           44.60166755284921       -0.34059628465071       -3.37654766223562
C           44.59546263027568       -0.41437994407878       -4.86589197401975
C           44.17330532970207       -1.57882462088973       -5.52032030333844
O           43.79529002037601       -2.60810312421944       -4.71629921545228
C           43.32215162246813       -3.81654510701589       -5.27483644269596
C           44.16760305821686       -1.64293342146144       -6.91349065303073
C           44.57977322026084       -0.54051357259727       -7.64680886424564
C           44.99926091194469        0.62384878652496       -7.02137500688652
C           45.00890788875125        0.68628434424493       -5.62828250457055
O           45.39275977165198        1.78470078086114       -4.92527664012023
C           45.85231556381952        2.94056832480914       -5.59542004408930
C           43.36506328412948       -0.30614239405231       -2.73259053353743
C           42.09311280728959       -0.31586030019566       -3.39643206981367
C           41.14050192955469       -0.24568857146890       -2.43242766471501
C           41.82355560382489       -0.18738761314410       -1.17414281433389
N           43.16828421344692       -0.22749326496911       -1.37994959021782
N           46.05472831275604       -0.20193570886937       -1.39422318299467
C           44.64352276411888        0.21287678276191        4.97811443241842
C           45.04972564636532       -0.89273672320061        5.73723416013876
O           45.40718383598616       -1.99788766559543        5.03089998877567
C           45.86245461752461       -3.15801584664875        5.69646222879920
C           45.06042114756703       -0.82749118690466        7.13013756049763
C           44.66884149080178        0.34501758061436        7.75854618608028
C           44.26437314760133        1.45235672270387        7.02844870994598
C           44.24940835104216        1.38536260390212        5.63539920083871
O           43.87670967146290        2.41913641685114        4.83464401760085
C           43.44928669138375        3.64239937718904        5.39766504796418
H           40.09269612552463        0.08657909457604        2.70427908829435
H           41.99499287341824        0.19394375645565        4.59966670074480
H           47.28130708537644        0.23200290370252        4.57232186940389
H           49.16617292567361        0.09700912243628        2.66424567579840
H           49.14109148834779       -0.32491879897872       -2.59269103662008
H           47.23816416112370       -0.45725606929753       -4.48340118652744
H           42.42465934573835       -3.65316664752395       -5.88393329780894
H           43.07008779126902       -4.46266397231821       -4.43183038167387
H           44.09043176923167       -4.30585611754202       -5.88594491520406
H           43.84730121541190       -2.53917642956080       -7.42782047431525
H           44.57357930901627       -0.58977645472432       -8.73021814247611
H           45.31255850652636        1.47003699596794       -7.61817609504248
H           46.11259157095606        3.65975715888616       -4.81650718520445
H           45.07316791496016        3.37085325184698       -6.23646233474747
H           46.74217528563511        2.72733588238573       -6.20015497731306
H           41.95235039774386       -0.36602113245458       -4.46412656535885
H           40.06910246427929       -0.22507386059228       -2.55357046400486
H           45.08748995950535       -3.57801838143343        6.34930858904186
H           46.10308189607110       -3.88151049389608        4.91521143984913
H           46.76330110661714       -2.95435670516179        6.28811526878932
H           45.36857720525590       -1.67723875133534        7.72454932196264
H           44.67899147894554        0.39691805477515        8.84180265169867
H           43.96612764523479        2.35479973011941        7.54519220578752
H           44.24392893181650        4.11208826997196        5.99025403763434
H           42.56072478449315        3.50698075171540        6.02640722349928
H           43.19754988591858        4.29224401496229        4.55743565742068

          :  Hamiltonian                  GFN1-xTB          :
         :: total energy            -388.124571255769 Eh    ::
         :: gradient norm              0.000740222593 Eh/a0 ::
         :: HOMO-LUMO gap              0.000902947528 eV    ::
         :: SCC energy              -393.307440000895 Eh    ::
         :: repulsion energy           5.381681319513 Eh    ::

    * Orbital Energies and Occupations

         #    Occupation            Energy/Eh            Energy/eV
      -------------------------------------------------------------
         1        2.0000           -0.8033317             -21.8598
       ...           ...                  ...                  ...
       335        2.0000           -0.3901485             -10.6165
       336        2.0000           -0.3901372             -10.6162
       337        2.0000           -0.3899971             -10.6124
       338        2.0000           -0.3896881             -10.6040
       339        2.0000           -0.3894675             -10.5980
       340        2.0000           -0.3769129             -10.2563
       341        2.0000           -0.3768820             -10.2555
       342        2.0000           -0.3763238             -10.2403
       343        2.0000           -0.3761627             -10.2359
       344        2.0000           -0.3687041             -10.0329
       345        2.0000           -0.3593466              -9.7783
       346        1.0188           -0.3373851              -9.1807
       347        0.9984           -0.3373415              -9.1795 (HOMO)
       348        0.9829           -0.3373083              -9.1786 (LUMO)
       349        0.0000           -0.3216022              -8.7512
       350                         -0.3116875              -8.4814
       351                         -0.3088288              -8.4037
       352                         -0.3087474              -8.4014
       353                         -0.3080616              -8.3828
       354                         -0.3019862              -8.2175
       355                         -0.2795436              -7.6068
       356                         -0.2730359              -7.4297
       357                         -0.2688735              -7.3164
       358                         -0.2512435              -6.8367
       ...                                ...                  ...
       731                          1.3619692              37.0611
      -------------------------------------------------------------
                  HL-Gap            0.0000332 Eh            0.0009 eV

Wiberg/Mayer (AO) data.
largest (>0.10) Wiberg bond orders for each atom

     #   Z sym  total        # sym  WBO       # sym  WBO       # sym  WBO
 ---------------------------------------------------------------------------
     1  29 Cu   2.191 --     7 N    0.506    34 N    0.506    12 N    0.504
                            35 N    0.504
     2   6 C    3.931 --     3 C    1.361    33 C    1.361    46 H    0.972
     3   6 C    3.919 --     2 C    1.361     7 N    1.232     4 C    1.170
     4   6 C    3.955 --     5 C    1.657     3 C    1.170    47 H    0.976
     5   6 C    3.958 --     4 C    1.657     6 C    1.172    48 H    0.975
     6   6 C    3.913 --     8 C    1.326     7 N    1.236     5 C    1.172
     7   7 N    3.245 --     6 C    1.236     3 C    1.232     1 Cu   0.506
     8   6 C    3.935 --     9 C    1.331     6 C    1.326    36 C    1.014
     9   6 C    3.909 --     8 C    1.331    12 N    1.222    10 C    1.178
    10   6 C    3.956 --    11 C    1.645     9 C    1.178    49 H    0.975
    11   6 C    3.957 --    10 C    1.645    13 C    1.184    50 H    0.973
    12   7 N    3.250 --    13 C    1.255     9 C    1.222     1 Cu   0.504
    13   6 C    3.906 --    14 C    1.269    12 N    1.255    11 C    1.184
    14   6 C    3.940 --    13 C    1.269    15 C    1.268   145 C    1.165
    15   6 C    3.906 --    14 C    1.268    35 N    1.255    16 C    1.184
    16   6 C    3.957 --    17 C    1.645    15 C    1.184    51 H    0.973
    17   6 C    3.956 --    16 C    1.645    18 C    1.178    52 H    0.975
    18   6 C    3.909 --    19 C    1.332    35 N    1.222    17 C    1.178
    19   6 C    3.935 --    18 C    1.332    30 C    1.326    20 C    1.013
    20   6 C    3.978 --    27 C    1.344    21 C    1.344    19 C    1.013
                            25 C    0.101
    21   6 C    3.903 --    24 C    1.362    20 C    1.344    22 O    1.030
    22   8 O    2.144 --    21 C    1.030    23 C    0.936
    23   6 C    3.908 --    54 H    0.983    55 H    0.980    53 H    0.980
                            22 O    0.936
    24   6 C    3.983 --    25 C    1.442    21 C    1.362    56 H    0.969
    25   6 C    3.993 --    26 C    1.442    24 C    1.442    57 H    0.974
                            20 C    0.101
    26   6 C    3.983 --    25 C    1.442    27 C    1.362    58 H    0.969
    27   6 C    3.903 --    26 C    1.362    20 C    1.344    28 O    1.030
    28   8 O    2.144 --    27 C    1.030    29 C    0.936
    29   6 C    3.908 --    59 H    0.983    60 H    0.980    61 H    0.980
                            28 O    0.936
    30   6 C    3.913 --    19 C    1.326    34 N    1.236    31 C    1.172
    31   6 C    3.958 --    32 C    1.657    30 C    1.172    62 H    0.975
    32   6 C    3.955 --    31 C    1.657    33 C    1.170    63 H    0.976
    33   6 C    3.919 --     2 C    1.361    34 N    1.232    32 C    1.170
    34   7 N    3.245 --    30 C    1.236    33 C    1.232     1 Cu   0.506
    35   7 N    3.250 --    15 C    1.255    18 C    1.222     1 Cu   0.504
    36   6 C    3.978 --    43 C    1.344    37 C    1.343     8 C    1.014
                            41 C    0.101
    37   6 C    3.903 --    40 C    1.362    36 C    1.343    38 O    1.030
    38   8 O    2.144 --    37 C    1.030    39 C    0.936
    39   6 C    3.908 --    64 H    0.983    66 H    0.980    65 H    0.980
                            38 O    0.936
    40   6 C    3.983 --    41 C    1.442    37 C    1.362    67 H    0.969
    41   6 C    3.992 --    42 C    1.442    40 C    1.442    68 H    0.974
                            36 C    0.101
    42   6 C    3.983 --    41 C    1.442    43 C    1.362    69 H    0.969
    43   6 C    3.903 --    42 C    1.362    36 C    1.344    44 O    1.030
    44   8 O    2.144 --    43 C    1.030    45 C    0.936
    45   6 C    3.908 --    71 H    0.983    72 H    0.980    70 H    0.980
                            44 O    0.936
    46   1 H    1.002 --     2 C    0.972
    47   1 H    0.999 --     4 C    0.976
    48   1 H    1.002 --     5 C    0.975
    49   1 H    1.002 --    10 C    0.975
    50   1 H    1.004 --    11 C    0.973
    51   1 H    1.004 --    16 C    0.973
    52   1 H    1.002 --    17 C    0.975
    53   1 H    1.009 --    23 C    0.980
    54   1 H    1.016 --    23 C    0.983
    55   1 H    1.009 --    23 C    0.980
    56   1 H    1.000 --    24 C    0.969
    57   1 H    1.003 --    25 C    0.974
    58   1 H    1.000 --    26 C    0.969
    59   1 H    1.016 --    29 C    0.983
    60   1 H    1.009 --    29 C    0.980
    61   1 H    1.009 --    29 C    0.980
    62   1 H    1.002 --    31 C    0.975
    63   1 H    0.999 --    32 C    0.976
    64   1 H    1.016 --    39 C    0.983
    65   1 H    1.009 --    39 C    0.980
    66   1 H    1.009 --    39 C    0.980
    67   1 H    1.000 --    40 C    0.969
    68   1 H    1.003 --    41 C    0.974
    69   1 H    1.000 --    42 C    0.969
    70   1 H    1.009 --    45 C    0.980
    71   1 H    1.016 --    45 C    0.983
    72   1 H    1.009 --    45 C    0.980
    73  29 Cu   2.192 --   106 N    0.507    79 N    0.506    84 N    0.504
                           107 N    0.504
    74   6 C    3.931 --   105 C    1.361    75 C    1.361   118 H    0.972
    75   6 C    3.919 --    74 C    1.361    79 N    1.232    76 C    1.170
    76   6 C    3.955 --    77 C    1.657    75 C    1.170   119 H    0.976
    77   6 C    3.958 --    76 C    1.657    78 C    1.172   120 H    0.975
    78   6 C    3.913 --    80 C    1.326    79 N    1.236    77 C    1.172
    79   7 N    3.245 --    78 C    1.236    75 C    1.232    73 Cu   0.506
    80   6 C    3.935 --    81 C    1.331    78 C    1.326   108 C    1.013
    81   6 C    3.908 --    80 C    1.331    84 N    1.221    82 C    1.179
    82   6 C    3.955 --    83 C    1.644    81 C    1.179   121 H    0.975
    83   6 C    3.957 --    82 C    1.644    85 C    1.185   122 H    0.971
    84   7 N    3.250 --    85 C    1.255    81 C    1.221    73 Cu   0.504
    85   6 C    3.905 --    86 C    1.267    84 N    1.255    83 C    1.185
    86   6 C    3.940 --    87 C    1.267    85 C    1.267   148 C    1.169
    87   6 C    3.905 --    86 C    1.267   107 N    1.255    88 C    1.185
    88   6 C    3.957 --    89 C    1.645    87 C    1.185   123 H    0.971
    89   6 C    3.955 --    88 C    1.645    90 C    1.179   124 H    0.975
    90   6 C    3.908 --    91 C    1.332   107 N    1.221    89 C    1.179
    91   6 C    3.935 --    90 C    1.332   102 C    1.326    92 C    1.014
    92   6 C    3.978 --    99 C    1.344    93 C    1.343    91 C    1.014
                            97 C    0.101
    93   6 C    3.903 --    96 C    1.362    92 C    1.343    94 O    1.030
    94   8 O    2.144 --    93 C    1.030    95 C    0.936
    95   6 C    3.908 --   126 H    0.983   127 H    0.980   125 H    0.980
                            94 O    0.936
    96   6 C    3.983 --    97 C    1.442    93 C    1.362   128 H    0.969
    97   6 C    3.993 --    98 C    1.442    96 C    1.442   129 H    0.974
                            92 C    0.101
    98   6 C    3.983 --    97 C    1.442    99 C    1.362   130 H    0.969
    99   6 C    3.903 --    98 C    1.362    92 C    1.344   100 O    1.030
   100   8 O    2.144 --    99 C    1.030   101 C    0.936
   101   6 C    3.908 --   131 H    0.983   132 H    0.980   133 H    0.980
                           100 O    0.936
   102   6 C    3.913 --    91 C    1.326   106 N    1.236   103 C    1.172
   103   6 C    3.958 --   104 C    1.657   102 C    1.172   134 H    0.975
   104   6 C    3.955 --   103 C    1.657   105 C    1.170   135 H    0.976
   105   6 C    3.919 --    74 C    1.361   106 N    1.231   104 C    1.170
   106   7 N    3.245 --   102 C    1.236   105 C    1.231    73 Cu   0.507
   107   7 N    3.249 --    87 C    1.255    90 C    1.221    73 Cu   0.504
   108   6 C    3.978 --   115 C    1.345   109 C    1.343    80 C    1.013
                           113 C    0.101
   109   6 C    3.903 --   112 C    1.362   108 C    1.343   110 O    1.031
   110   8 O    2.144 --   109 C    1.031   111 C    0.936
   111   6 C    3.908 --   136 H    0.983   138 H    0.980   137 H    0.980
                           110 O    0.936
   112   6 C    3.983 --   113 C    1.442   109 C    1.362   139 H    0.969
   113   6 C    3.993 --   114 C    1.442   112 C    1.442   140 H    0.974
                           108 C    0.101
   114   6 C    3.983 --   113 C    1.442   115 C    1.362   141 H    0.969
   115   6 C    3.903 --   114 C    1.362   108 C    1.345   116 O    1.030
   116   8 O    2.144 --   115 C    1.030   117 C    0.936
   117   6 C    3.908 --   143 H    0.983   144 H    0.980   142 H    0.980
                           116 O    0.936
   118   1 H    1.002 --    74 C    0.972
   119   1 H    0.999 --    76 C    0.976
   120   1 H    1.002 --    77 C    0.975
   121   1 H    1.002 --    82 C    0.975
   122   1 H    1.005 --    83 C    0.971
   123   1 H    1.005 --    88 C    0.971
   124   1 H    1.002 --    89 C    0.975
   125   1 H    1.009 --    95 C    0.980
   126   1 H    1.016 --    95 C    0.983
   127   1 H    1.009 --    95 C    0.980
   128   1 H    1.000 --    96 C    0.969
   129   1 H    1.003 --    97 C    0.974
   130   1 H    1.000 --    98 C    0.969
   131   1 H    1.016 --   101 C    0.983
   132   1 H    1.009 --   101 C    0.980
   133   1 H    1.009 --   101 C    0.980
   134   1 H    1.002 --   103 C    0.975
   135   1 H    0.999 --   104 C    0.976
   136   1 H    1.016 --   111 C    0.983
   137   1 H    1.009 --   111 C    0.980
   138   1 H    1.009 --   111 C    0.980
   139   1 H    1.000 --   112 C    0.969
   140   1 H    1.003 --   113 C    0.974
   141   1 H    1.000 --   114 C    0.969
   142   1 H    1.009 --   117 C    0.980
   143   1 H    1.016 --   117 C    0.983
   144   1 H    1.009 --   117 C    0.980
   145   6 C    3.932 --   146 C    2.587    14 C    1.165
   146   6 C    3.934 --   145 C    2.587   150 C    1.167
   147   6 C    3.934 --   148 C    2.585   162 C    1.170
   148   6 C    3.932 --   147 C    2.585    86 C    1.169
   149  29 Cu   2.176 --   160 N    0.502   183 N    0.502   182 N    0.502
                           155 N    0.502
   150   6 C    3.930 --   151 C    1.267   181 C    1.267   146 C    1.167
   151   6 C    3.906 --   150 C    1.267   155 N    1.256   152 C    1.185
   152   6 C    3.956 --   153 C    1.643   151 C    1.185   194 H    0.973
   153   6 C    3.956 --   152 C    1.643   154 C    1.180   195 H    0.975
   154   6 C    3.907 --   156 C    1.329   155 N    1.222   153 C    1.180
   155   7 N    3.243 --   151 C    1.256   154 C    1.222   149 Cu   0.502
   156   6 C    3.930 --   157 C    1.329   154 C    1.329   184 C    1.013
   157   6 C    3.907 --   156 C    1.329   160 N    1.221   158 C    1.180
   158   6 C    3.956 --   159 C    1.643   157 C    1.180   196 H    0.975
   159   6 C    3.956 --   158 C    1.643   161 C    1.186   197 H    0.971
   160   7 N    3.243 --   161 C    1.257   157 C    1.221   149 Cu   0.502
   161   6 C    3.906 --   162 C    1.265   160 N    1.257   159 C    1.186
   162   6 C    3.930 --   161 C    1.265   163 C    1.265   147 C    1.170
   163   6 C    3.905 --   162 C    1.265   183 N    1.257   164 C    1.185
   164   6 C    3.956 --   165 C    1.643   163 C    1.185   198 H    0.971
   165   6 C    3.956 --   164 C    1.643   166 C    1.180   199 H    0.975
   166   6 C    3.907 --   167 C    1.329   183 N    1.221   165 C    1.180
   167   6 C    3.930 --   166 C    1.329   178 C    1.329   168 C    1.014
   168   6 C    3.978 --   169 C    1.344   175 C    1.343   167 C    1.014
                           173 C    0.101
   169   6 C    3.903 --   172 C    1.362   168 C    1.344   170 O    1.030
   170   8 O    2.144 --   169 C    1.030   171 C    0.936
   171   6 C    3.908 --   201 H    0.983   200 H    0.980   202 H    0.980
                           170 O    0.936
   172   6 C    3.983 --   173 C    1.442   169 C    1.362   203 H    0.969
   173   6 C    3.993 --   172 C    1.442   174 C    1.442   204 H    0.974
                           168 C    0.101
   174   6 C    3.983 --   173 C    1.442   175 C    1.362   205 H    0.969
   175   6 C    3.903 --   174 C    1.362   168 C    1.343   176 O    1.031
   176   8 O    2.145 --   175 C    1.031   177 C    0.936
   177   6 C    3.908 --   206 H    0.983   208 H    0.980   207 H    0.980
                           176 O    0.936
   178   6 C    3.907 --   167 C    1.329   182 N    1.222   179 C    1.180
   179   6 C    3.956 --   180 C    1.643   178 C    1.180   209 H    0.975
   180   6 C    3.956 --   179 C    1.643   181 C    1.185   210 H    0.973
   181   6 C    3.906 --   150 C    1.267   182 N    1.256   180 C    1.185
   182   7 N    3.243 --   181 C    1.256   178 C    1.222   149 Cu   0.502
   183   7 N    3.243 --   163 C    1.257   166 C    1.221   149 Cu   0.502
   184   6 C    3.978 --   191 C    1.345   185 C    1.343   156 C    1.013
                           189 C    0.101
   185   6 C    3.903 --   188 C    1.362   184 C    1.343   186 O    1.031
   186   8 O    2.145 --   185 C    1.031   187 C    0.936
   187   6 C    3.908 --   212 H    0.983   213 H    0.980   211 H    0.980
                           186 O    0.936
   188   6 C    3.983 --   189 C    1.442   185 C    1.362   214 H    0.969
   189   6 C    3.993 --   190 C    1.442   188 C    1.442   215 H    0.974
                           184 C    0.101
   190   6 C    3.983 --   189 C    1.442   191 C    1.361   216 H    0.969
   191   6 C    3.903 --   190 C    1.361   184 C    1.345   192 O    1.030
   192   8 O    2.144 --   191 C    1.030   193 C    0.936
   193   6 C    3.908 --   219 H    0.983   218 H    0.980   217 H    0.980
                           192 O    0.936
   194   1 H    1.004 --   152 C    0.973
   195   1 H    1.002 --   153 C    0.975
   196   1 H    1.002 --   158 C    0.975
   197   1 H    1.005 --   159 C    0.971
   198   1 H    1.005 --   164 C    0.971
   199   1 H    1.002 --   165 C    0.975
   200   1 H    1.009 --   171 C    0.980
   201   1 H    1.016 --   171 C    0.983
   202   1 H    1.009 --   171 C    0.980
   203   1 H    1.000 --   172 C    0.969
   204   1 H    1.003 --   173 C    0.974
   205   1 H    1.000 --   174 C    0.969
   206   1 H    1.016 --   177 C    0.983
   207   1 H    1.009 --   177 C    0.980
   208   1 H    1.009 --   177 C    0.980
   209   1 H    1.002 --   179 C    0.975
   210   1 H    1.004 --   180 C    0.973
   211   1 H    1.009 --   187 C    0.980
   212   1 H    1.016 --   187 C    0.983
   213   1 H    1.009 --   187 C    0.980
   214   1 H    1.000 --   188 C    0.969
   215   1 H    1.003 --   189 C    0.974
   216   1 H    1.000 --   190 C    0.969
   217   1 H    1.009 --   193 C    0.980
   218   1 H    1.009 --   193 C    0.980
   219   1 H    1.016 --   193 C    0.983
 ---------------------------------------------------------------------------

           -------------------------------------------------
          | TOTAL ENERGY             -388.124571255769 Eh   |
          | GRADIENT NORM               0.000740222593 Eh/α |
          | HOMO-LUMO GAP               0.000902947528 eV   |
           -------------------------------------------------

 * finished run on 2022/07/30 at 11:56:56.028
