   * xtb version 6.5.1 (b24c23e) compiled by 'conda@728c89f4b128' on 2022-07-12
          program call               : xtb Cu_PhOH_C6_3.xyz --gfn 1 --opt -T 48

   ID    Z sym.   atoms
    1   29 Cu     1, 59, 129
    2    6 C      2-6, 8-12, 14-18, 20-25, 27-31, 33-38, 60-64, 66-70, 72-76,
                  78-83, 85-89, 91-96, 117-128, 130-134, 136-140, 142-146,
                  148-153, 155-159, 161-166
    3    7 N      7, 19, 26, 39, 65, 77, 84, 97, 135, 147, 154, 167
    4    8 O      13, 32, 71, 90, 141, 160
    5    1 H      40-58, 98-116, 168-185

          :  Hamiltonian                  GFN1-xTB          :
 * total energy  :  -337.3903867 Eh     change       -0.1801368E-09 Eh
 * total energy  :  -337.7823796 Eh     change       -0.3919930E+00 Eh
 * total energy  :  -337.9197255 Eh     change       -0.1373459E+00 Eh
 * total energy  :  -338.0199152 Eh     change       -0.1001896E+00 Eh
 * total energy  :  -338.0942735 Eh     change       -0.7435835E-01 Eh
 * total energy  :  -338.1378377 Eh     change       -0.4356417E-01 Eh
 * total energy  :  -338.1636915 Eh     change       -0.2585376E-01 Eh
 * total energy  :  -338.1815020 Eh     change       -0.1781052E-01 Eh
 * total energy  :  -338.1905618 Eh     change       -0.9059830E-02 Eh
 * total energy  :  -338.1997187 Eh     change       -0.9156913E-02 Eh
 * total energy  :  -338.2461510 Eh     change       -0.2690126E-06 Eh
 * total energy  :  -338.2461391 Eh     change        0.1186259E-04 Eh
 * total energy  :  -338.2461672 Eh     change       -0.2805516E-04 Eh
 * total energy  :  -338.2461721 Eh     change       -0.4914642E-05 Eh
 * total energy  :  -338.2461826 Eh     change       -0.1044407E-04 Eh
 * total energy  :  -338.2461912 Eh     change       -0.8598705E-05 Eh
 * total energy  :  -338.2462017 Eh     change       -0.1051118E-04 Eh
 * total energy  :  -338.2462126 Eh     change       -0.1093314E-04 Eh
 * total energy  :  -338.2462168 Eh     change       -0.4186391E-05 Eh
   *** GEOMETRY OPTIMIZATION CONVERGED AFTER 55 ITERATIONS ***

 final structure:
================
185
 xtb: 6.5.1 (b24c23e)
Cu          28.54498468603500       -0.01600048023401       -0.03530161273132
C           25.14007799841562       -0.06923446684429       -0.10883943644275
C           25.78144514243791       -1.29686899861182       -0.03870891611079
C           25.11247677934895       -2.56337955350145        0.04560854210838
C           26.07606236345014       -3.51441226722913        0.12594389961746
C           27.34361793074330       -2.83765797175227        0.07975623757643
N           27.13306199288872       -1.49188529121631       -0.01366664619005
C           28.59131387023184       -3.46240598556891        0.14824319599541
C           28.61402368118312       -4.94392483958113        0.24491303235046
C           28.10149159189389       -5.73239179026393       -0.78522708050748
C           28.12560497599867       -7.11599005624352       -0.69725917440757
C           28.65981352798719       -7.72730328919451        0.43454545184043
O           28.70006420108712       -9.07888155992780        0.56374162090130
C           29.17169153876663       -6.95097355910513        1.47263479677790
C           29.15039037880454       -5.57120111151477        1.37202629824372
C           29.82005706659282       -2.79968914593639        0.13453792580894
C           31.10126122765231       -3.44709239772312        0.14465106904137
C           32.04205840130665       -2.46988870939490        0.10123737479005
N           30.00143723553729       -1.44291442840374        0.07531100100038
C           31.34381111659540       -1.22031439272363        0.05930123157574
C           31.97325394375113        0.03575312941669        0.00276984999493
C           31.30850069775780        1.27330078029777       -0.05216482875565
C           31.97010182528606        2.54073925302318       -0.13181280129858
C           31.00120878431888        3.48982415572130       -0.18153949922489
C           29.73918864069594        2.80774909591402       -0.12598058310392
N           29.96005580961020        1.45745317628961       -0.05479043677116
C           28.49130955523400        3.43272035219311       -0.17126382235044
C           28.46919940954222        4.91643611444559       -0.21563653918267
C           29.00091365360485        5.66459886920794        0.83754576213547
C           28.97862865773098        7.04766980926178        0.80696093012460
C           28.42586888465557        7.70572797709746       -0.29014938589981
O           28.42262979637708        9.06399687702831       -0.28929296329412
C           27.89582404060855        6.97332338574850       -1.34966543441463
C           27.91647145886981        5.58761123865355       -1.30651238605370
C           27.26233790022905        2.76784558446243       -0.17583935568534
C           25.97534838258664        3.40868692274599       -0.18307605089245
C           25.04001275341053        2.42664650790723       -0.17397134390696
C           25.74573042152890        1.17773837807434       -0.14905291010068
N           27.09116093904028        1.41357431030931       -0.14771320163641
H           24.05501004068641       -0.08525354560538       -0.11701570726429
H           24.04163238006675       -2.69348132263439        0.05088801407570
H           25.94650236300174       -4.58062355296739        0.22047468793715
H           27.69628456986991       -5.25795571238949       -1.67218565813992
H           27.73272138485071       -7.72436306835546       -1.50491675156238
H           28.32032249439726       -9.51783137147069       -0.20920883956560
H           29.58050608307867       -7.43986579138322        2.34838171830250
H           29.53906767702938       -4.96678699454872        2.18405825976992
H           31.25703082393690       -4.51354601114168        0.16694059637422
H           33.11506008995882       -2.57616679780090        0.09316906555006
H           33.03960780587778        2.67653422369265       -0.15294363183361
H           31.12614502244530        4.55734765241252       -0.26428322666171
H           29.42012733028535        5.15265400678729        1.69654305130650
H           29.38397326471211        7.62985673630594        1.62527929819076
H           28.01636366952972        9.41570475779267       -1.09274098594121
H           27.47081377460751        7.48973342519962       -2.20374561323966
H           27.51479493288519        5.01900279343818       -2.13792903773338
H           25.81418503485552        4.47474000686117       -0.18149805332802
H           23.96581602652531        2.52544464602240       -0.17431058917503
Cu          60.62278264452866       -0.00041636051191       -0.01293292006668
C           64.02647176191792        0.04792897549584       -0.13331520992933
C           63.38134946648312        1.27157917766654       -0.23155674751810
C           64.04664040405319        2.53817635937460       -0.33917608248547
C           63.08073370903605        3.48930394027735       -0.38103133905920
C           61.81527025137083        2.81091014007871       -0.30977100976306
N           62.02939819849986        1.46577968255057       -0.21450478607528
C           60.56695110465854        3.43804183434819       -0.30629176461283
C           60.54195159261406        4.91786544706377       -0.42610438953421
C           61.03072556796456        5.54505176551770       -1.57217345863663
C           61.00511082587806        6.92638639924290       -1.68941203206123
C           60.49334769199614        7.69867872873939       -0.64935159492403
O           60.45251972249324        9.05448087636194       -0.72062395991273
C           60.00564388203605        7.08470426103037        0.50282753515607
C           60.02820767182669        5.70516050723714        0.60710578865360
C           59.34070946522304        2.77917056366924       -0.20029363432958
C           58.05765538899216        3.42087739347872       -0.25065016737484
C           57.11972866541574        2.44586042925385       -0.14332670913098
N           59.16323621125088        1.42657548696595       -0.07174902281794
C           57.82144106452336        1.20250330444630       -0.03283343179930
C           57.19560534531171       -0.05196132710418        0.07441753200670
C           57.86393136344872       -1.28549012884581        0.16434629479291
C           57.20543508313579       -2.55384651796701        0.25361225575217
C           58.17667026562994       -3.49923878289899        0.32393242006983
C           59.43695828771373       -2.81308225415858        0.28368327567662
N           59.21286642590601       -1.46561030981885        0.17690920039282
C           60.68627243399538       -3.43567286239849        0.31946743728671
C           60.71243007726736       -4.91132684691917        0.47869836285811
C           60.18468217623664       -5.50919860426420        1.62577372435501
C           60.21160637531505       -6.88323213133541        1.78566026694148
C           60.76496576345094       -7.68418029333227        0.78838834474140
O           60.77323232487516       -9.02932620604508        0.97620389537450
C           61.29061134583652       -7.10282044587626       -0.36300266798621
C           61.26543306003066       -5.72442975794073       -0.51077584093792
C           61.91307579544415       -2.77455274875749        0.21883371434719
C           63.20198257233738       -3.40717123348298        0.29239761348006
C           64.13418949579876       -2.43152899688947        0.15648124343710
C           63.42465409563358       -1.19309732839785        0.01121551602283
N           62.07999800811614       -1.42906308630208        0.05718530619778
H           65.11129204444818        0.06469483877912       -0.15664202209803
H           65.11694193728162        2.66941104282670       -0.36880522050081
H           63.20754014460493        4.55830597864801       -0.44158358345234
H           61.41844220448149        4.94425851445085       -2.38745247959927
H           61.37945611262592        7.40827495918003       -2.58630785874830
H           60.81365786798956        9.37405378523919       -1.55835271815228
H           59.61441589767824        7.69807736558374        1.30514694318328
H           59.65864118713795        5.22789006774559        1.50786793504184
H           57.89839334416817        4.48052270617514       -0.36833612935224
H           56.04640961454976        2.54912194643876       -0.14421022158989
H           56.13619671681862       -2.69327470238078        0.25629925457516
H           58.05441081376936       -4.56865249820521        0.38270560247939
H           59.76506426919153       -4.88526058822116        2.40701351294299
H           59.80953781587103       -7.34860971766557        2.67709688321139
H           61.17905428360001       -9.48694226585814        0.22774048627359
H           61.71585214913340       -7.73047104739073       -1.13887911198276
H           61.66368569656592       -5.27428849853878       -1.41337191620857
H           63.36652400131481       -4.46210892483594        0.44231572621951
H           65.20866675652296       -2.52703622878580        0.16161180623060
C           37.17588555140274        0.06475567650360       -0.03937092610053
C           35.94789614310857        0.07021781671117       -0.02813008305155
C           34.60295041904322        0.07073688881316       -0.01332669683762
C           33.37944915246299        0.05225975232979       -0.00854704152647
C           38.52066686407768        0.05660077173431       -0.05444649813158
C           39.74441570902179        0.05139954391192       -0.06410439167991
C           53.22100596242584       -0.09418800284088        0.07334479057001
C           51.99295359928212       -0.09493819596648        0.06295773327835
C           50.64821474054222       -0.08853102054325        0.04929439631762
C           49.42456644564903       -0.07661406990894        0.03396211190327
C           54.56595728365991       -0.08699622593455        0.07916200824109
C           55.78949894024036       -0.07353714460964        0.08103556939143
Cu          44.58468239214548       -0.00080435971414       -0.03716319587682
C           41.14995461484217        0.04084897492414       -0.06481752556491
C           41.80571633712307        1.09308040868186        0.59911274761755
C           41.13522804913310        2.14274636757125        1.30507108749331
C           42.09741023786597        2.96048714167148        1.80349829330152
C           43.36251270158444        2.41821222247341        1.39751445756533
N           43.15187479762441        1.27751762887891        0.66936211829895
C           44.60666415367463        2.96468218333103        1.71975900379282
C           44.61660530730096        4.24122586645993        2.47701168000377
C           45.19153241794932        4.30789595249655        3.74847317112093
C           45.20116577685145        5.49412271156597        4.46051968207177
C           44.63895261893992        6.64023190695510        3.90128927039761
O           44.66987546038474        7.78911797924237        4.62479960238852
C           44.06521292217240        6.58976397755390        2.63298576637591
C           44.05249225476955        5.39441198710074        1.93092593016886
C           45.84263691220934        2.40471841699019        1.38945956108604
C           47.11658855917948        3.00431972818226        1.66708116707290
C           48.06651862711796        2.15934583841407        1.19125077590676
N           46.03588653683001        1.21461868021786        0.73972455224985
C           47.37967011941529        1.04453796542651        0.61217679419898
C           48.01933116104241       -0.05605699074895        0.01413505235490
C           47.36242448646684       -1.13386758217270       -0.60616024129969
C           48.02982350013050       -2.26815531589297       -1.16975064978285
C           47.06814868849231       -3.07649833422930       -1.68421817793959
C           45.80669646945588       -2.43553785531238       -1.44437499715717
N           46.01849841709357       -1.25764753937495       -0.77841974115229
C           44.56396718606282       -2.95062103114563       -1.82020862514851
C           44.55692607680945       -4.21339432220809       -2.59980105309163
C           43.92978854889343       -5.35502255506114       -2.09989674098553
C           43.92361990928121       -6.53554024441567       -2.82669091648624
C           44.54290880955610       -6.58294820412763       -4.07349476613579
O           44.55646554721343       -7.71720420469157       -4.82038073433224
C           45.17049080111288       -5.44895990382709       -4.58586180173667
C           45.17817513382408       -4.27764126261714       -3.84956211407597
C           43.32839433453032       -2.37128568340494       -1.52231623349023
C           42.05765911297694       -2.87302116927140       -1.96155110852723
C           41.10723345538025       -2.04093442805675       -1.46410863020834
C           41.79101132439822       -1.01970117850369       -0.73002634672767
N           43.13326928507928       -1.23609316063789       -0.78104815596090
H           40.06546500961400        2.23005270968644        1.40849593276921
H           41.96568593949589        3.84432005017121        2.40644869485083
H           45.61884297350029        3.41338355181346        4.18776151440839
H           45.63938411123944        5.54693556645313        5.44949579396228
H           44.25342785897449        8.51807546691601        4.14559319859691
H           43.63257163741270        7.48544134045873        2.20018050461453
H           43.61595815828191        5.35876368603161        0.93892042076370
H           47.26215261048662        3.95674716027609        2.15052319287549
H           49.13810130706877        2.27643350910675        1.21775208103114
H           49.09711047350984       -2.42162299054626       -1.16075262199741
H           47.19730933981110       -4.03055150064047       -2.16914696103050
H           43.45801916173772       -5.32301079486851       -1.12405562569736
H           43.44060609176242       -7.42210058705072       -2.42991145297503
H           44.09234409912386       -8.43791972329500       -4.37367958132741
H           45.64472808190650       -5.49904169097304       -5.55822887269999
H           45.65589452387553       -3.39195544373296       -4.25340480856816
H           41.91423086073925       -3.74154779512178       -2.58376616589352
H           40.03763043120763       -2.09892640343725       -1.58803442887992

          :  Hamiltonian                  GFN1-xTB          :
         :: total energy            -338.246216785068 Eh    ::
         :: gradient norm              0.000921395840 Eh/a0 ::
         :: HOMO-LUMO gap              0.000294516479 eV    ::
         :: SCC energy              -343.481575094201 Eh    ::
         :: repulsion energy           5.400185648697 Eh    ::

    * Orbital Energies and Occupations

         #    Occupation            Energy/Eh            Energy/eV
      -------------------------------------------------------------
         1        2.0000           -0.8048303             -21.9005
       ...           ...                  ...                  ...
       297        2.0000           -0.4076091             -11.0916
       298        2.0000           -0.4075517             -11.0900
       299        2.0000           -0.4073885             -11.0856
       300        2.0000           -0.4071444             -11.0790
       301        2.0000           -0.4065821             -11.0637
       302        2.0000           -0.3947708             -10.7423
       303        2.0000           -0.3947067             -10.7405
       304        2.0000           -0.3945797             -10.7371
       305        2.0000           -0.3881698             -10.5626
       306        2.0000           -0.3836951             -10.4409
       307        2.0000           -0.3771412             -10.2625
       308        1.0123           -0.3551595              -9.6644
       309        0.9964           -0.3551253              -9.6635 (HOMO)
       310        0.9913           -0.3551145              -9.6632 (LUMO)
       311        0.0000           -0.3394974              -9.2382
       312                         -0.3318758              -9.0308
       313                         -0.3266124              -8.8876
       314                         -0.3263959              -8.8817
       315                         -0.3263195              -8.8796
       316                         -0.3260827              -8.8732
       317                         -0.3027407              -8.2380
       318                         -0.2947256              -8.0199
       319                         -0.2930362              -7.9739
       320                         -0.2794572              -7.6044
       ...                                ...                  ...
       643                          1.5820164              43.0489
      -------------------------------------------------------------
                  HL-Gap            0.0000108 Eh            0.0003 eV

Wiberg/Mayer (AO) data.
largest (>0.10) Wiberg bond orders for each atom

     #   Z sym  total        # sym  WBO       # sym  WBO       # sym  WBO
 ---------------------------------------------------------------------------
     1  29 Cu   2.189 --    39 N    0.506     7 N    0.505    19 N    0.503
                            26 N    0.503
     2   6 C    3.929 --    38 C    1.361     3 C    1.361    40 H    0.971
     3   6 C    3.918 --     2 C    1.361     7 N    1.229     4 C    1.171
     4   6 C    3.955 --     5 C    1.654     3 C    1.171    41 H    0.976
     5   6 C    3.958 --     4 C    1.654     6 C    1.173    42 H    0.973
     6   6 C    3.912 --     8 C    1.319     7 N    1.239     5 C    1.173
     7   7 N    3.244 --     6 C    1.239     3 C    1.229     1 Cu   0.505
     8   6 C    3.935 --    16 C    1.328     6 C    1.319     9 C    1.026
     9   6 C    3.989 --    10 C    1.395    15 C    1.384     8 C    1.026
    10   6 C    3.988 --    11 C    1.451     9 C    1.395    43 H    0.973
                            14 C    0.105
    11   6 C    3.988 --    10 C    1.451    12 C    1.373    44 H    0.970
                            15 C    0.103
    12   6 C    3.901 --    11 C    1.373    14 C    1.364    13 O    1.039
    13   8 O    2.043 --    12 C    1.039    45 H    0.865
    14   6 C    3.990 --    15 C    1.466    12 C    1.364    46 H    0.971
                            10 C    0.105
    15   6 C    3.988 --    14 C    1.466     9 C    1.384    47 H    0.973
                            11 C    0.103
    16   6 C    3.908 --     8 C    1.328    19 N    1.221    17 C    1.180
    17   6 C    3.955 --    18 C    1.642    16 C    1.180    48 H    0.973
    18   6 C    3.956 --    17 C    1.642    20 C    1.187    49 H    0.974
    19   7 N    3.248 --    20 C    1.257    16 C    1.221     1 Cu   0.503
    20   6 C    3.898 --    21 C    1.259    19 N    1.257    18 C    1.187
    21   6 C    3.939 --    22 C    1.260    20 C    1.259   120 C    1.186
    22   6 C    3.898 --    21 C    1.260    26 N    1.256    23 C    1.187
    23   6 C    3.956 --    24 C    1.642    22 C    1.187    50 H    0.974
    24   6 C    3.955 --    23 C    1.642    25 C    1.180    51 H    0.973
    25   6 C    3.908 --    27 C    1.327    26 N    1.221    24 C    1.180
    26   7 N    3.248 --    22 C    1.256    25 C    1.221     1 Cu   0.503
    27   6 C    3.935 --    25 C    1.327    35 C    1.319    28 C    1.027
    28   6 C    3.989 --    34 C    1.394    29 C    1.384    27 C    1.027
    29   6 C    3.988 --    30 C    1.466    28 C    1.384    52 H    0.973
                            33 C    0.103
    30   6 C    3.990 --    29 C    1.466    31 C    1.364    53 H    0.971
                            34 C    0.105
    31   6 C    3.901 --    33 C    1.372    30 C    1.364    32 O    1.040
    32   8 O    2.043 --    31 C    1.040    54 H    0.865
    33   6 C    3.988 --    34 C    1.451    31 C    1.372    55 H    0.970
                            29 C    0.103
    34   6 C    3.988 --    33 C    1.451    28 C    1.394    56 H    0.973
                            30 C    0.105
    35   6 C    3.912 --    27 C    1.319    39 N    1.239    36 C    1.173
    36   6 C    3.958 --    37 C    1.654    35 C    1.173    57 H    0.973
    37   6 C    3.955 --    36 C    1.654    38 C    1.172    58 H    0.976
    38   6 C    3.918 --     2 C    1.361    39 N    1.229    37 C    1.172
    39   7 N    3.244 --    35 C    1.239    38 C    1.229     1 Cu   0.506
    40   1 H    1.002 --     2 C    0.971
    41   1 H    0.998 --     4 C    0.976
    42   1 H    1.005 --     5 C    0.973
    43   1 H    1.005 --    10 C    0.973
    44   1 H    0.999 --    11 C    0.970
    45   1 H    0.887 --    13 O    0.865
    46   1 H    0.999 --    14 C    0.971
    47   1 H    1.005 --    15 C    0.973
    48   1 H    1.005 --    17 C    0.973
    49   1 H    1.002 --    18 C    0.974
    50   1 H    1.002 --    23 C    0.974
    51   1 H    1.005 --    24 C    0.973
    52   1 H    1.005 --    29 C    0.973
    53   1 H    0.999 --    30 C    0.971
    54   1 H    0.887 --    32 O    0.865
    55   1 H    0.999 --    33 C    0.970
    56   1 H    1.005 --    34 C    0.973
    57   1 H    1.005 --    36 C    0.973
    58   1 H    0.998 --    37 C    0.976
    59  29 Cu   2.192 --    65 N    0.506    97 N    0.506    77 N    0.504
                            84 N    0.504
    60   6 C    3.929 --    61 C    1.361    96 C    1.361    98 H    0.971
    61   6 C    3.918 --    60 C    1.361    65 N    1.229    62 C    1.172
    62   6 C    3.955 --    63 C    1.654    61 C    1.172    99 H    0.976
    63   6 C    3.958 --    62 C    1.654    64 C    1.173   100 H    0.973
    64   6 C    3.912 --    66 C    1.319    65 N    1.238    63 C    1.173
    65   7 N    3.244 --    64 C    1.238    61 C    1.229    59 Cu   0.506
    66   6 C    3.935 --    74 C    1.328    64 C    1.319    67 C    1.026
    67   6 C    3.989 --    68 C    1.395    73 C    1.385    66 C    1.026
    68   6 C    3.988 --    69 C    1.451    67 C    1.395   101 H    0.973
                            72 C    0.105
    69   6 C    3.988 --    68 C    1.451    70 C    1.373   102 H    0.970
                            73 C    0.103
    70   6 C    3.901 --    69 C    1.373    72 C    1.365    71 O    1.040
    71   8 O    2.043 --    70 C    1.040   103 H    0.865
    72   6 C    3.990 --    73 C    1.466    70 C    1.365   104 H    0.971
                            68 C    0.105
    73   6 C    3.988 --    72 C    1.466    67 C    1.385   105 H    0.973
                            69 C    0.103
    74   6 C    3.908 --    66 C    1.328    77 N    1.221    75 C    1.180
    75   6 C    3.955 --    76 C    1.642    74 C    1.180   106 H    0.973
    76   6 C    3.956 --    75 C    1.642    78 C    1.187   107 H    0.974
    77   7 N    3.248 --    78 C    1.256    74 C    1.221    59 Cu   0.504
    78   6 C    3.898 --    79 C    1.259    77 N    1.256    76 C    1.187
    79   6 C    3.939 --    80 C    1.260    78 C    1.259   128 C    1.186
    80   6 C    3.898 --    79 C    1.260    84 N    1.256    81 C    1.187
    81   6 C    3.956 --    82 C    1.642    80 C    1.187   108 H    0.974
    82   6 C    3.955 --    81 C    1.642    83 C    1.180   109 H    0.973
    83   6 C    3.908 --    85 C    1.327    84 N    1.221    82 C    1.180
    84   7 N    3.248 --    80 C    1.256    83 C    1.221    59 Cu   0.504
    85   6 C    3.935 --    83 C    1.327    93 C    1.319    86 C    1.027
    86   6 C    3.989 --    92 C    1.394    87 C    1.384    85 C    1.027
    87   6 C    3.988 --    88 C    1.466    86 C    1.384   110 H    0.973
                            91 C    0.102
    88   6 C    3.990 --    87 C    1.466    89 C    1.364   111 H    0.971
                            92 C    0.105
    89   6 C    3.901 --    91 C    1.372    88 C    1.364    90 O    1.040
    90   8 O    2.043 --    89 C    1.040   112 H    0.865
    91   6 C    3.988 --    92 C    1.451    89 C    1.372   113 H    0.970
                            87 C    0.102
    92   6 C    3.988 --    91 C    1.451    86 C    1.394   114 H    0.973
                            88 C    0.105
    93   6 C    3.912 --    85 C    1.319    97 N    1.239    94 C    1.173
    94   6 C    3.958 --    95 C    1.654    93 C    1.173   115 H    0.973
    95   6 C    3.955 --    94 C    1.654    96 C    1.172   116 H    0.976
    96   6 C    3.918 --    60 C    1.361    97 N    1.229    95 C    1.172
    97   7 N    3.244 --    93 C    1.239    96 C    1.229    59 Cu   0.506
    98   1 H    1.002 --    60 C    0.971
    99   1 H    0.998 --    62 C    0.976
   100   1 H    1.005 --    63 C    0.973
   101   1 H    1.005 --    68 C    0.973
   102   1 H    0.999 --    69 C    0.970
   103   1 H    0.887 --    71 O    0.865
   104   1 H    0.999 --    72 C    0.971
   105   1 H    1.005 --    73 C    0.973
   106   1 H    1.005 --    75 C    0.973
   107   1 H    1.002 --    76 C    0.974
   108   1 H    1.002 --    81 C    0.974
   109   1 H    1.005 --    82 C    0.973
   110   1 H    1.005 --    87 C    0.973
   111   1 H    0.999 --    88 C    0.971
   112   1 H    0.887 --    90 O    0.865
   113   1 H    0.999 --    91 C    0.970
   114   1 H    1.005 --    92 C    0.973
   115   1 H    1.005 --    94 C    0.973
   116   1 H    0.998 --    95 C    0.976
   117   6 C    3.926 --   118 C    2.372   121 C    1.332   120 C    0.190
   118   6 C    3.925 --   117 C    2.372   119 C    1.331   122 C    0.190
   119   6 C    3.935 --   120 C    2.454   118 C    1.331
   120   6 C    3.890 --   119 C    2.454    21 C    1.186   117 C    0.190
   121   6 C    3.932 --   122 C    2.451   117 C    1.332
   122   6 C    3.890 --   121 C    2.451   130 C    1.189   118 C    0.190
   123   6 C    3.925 --   124 C    2.372   127 C    1.332   126 C    0.190
   124   6 C    3.926 --   123 C    2.372   125 C    1.332   128 C    0.190
   125   6 C    3.932 --   126 C    2.451   124 C    1.332
   126   6 C    3.890 --   125 C    2.451   149 C    1.189   123 C    0.190
   127   6 C    3.935 --   128 C    2.454   123 C    1.332
   128   6 C    3.890 --   127 C    2.454    79 C    1.186   124 C    0.190
   129  29 Cu   2.166 --   154 N    0.499   135 N    0.499   167 N    0.499
                           147 N    0.499
   130   6 C    3.927 --   131 C    1.257   166 C    1.256   122 C    1.189
   131   6 C    3.899 --   135 N    1.258   130 C    1.257   132 C    1.188
   132   6 C    3.955 --   133 C    1.640   131 C    1.188   168 H    0.974
   133   6 C    3.956 --   132 C    1.640   134 C    1.182   169 H    0.973
   134   6 C    3.906 --   136 C    1.323   135 N    1.223   133 C    1.182
   135   7 N    3.241 --   131 C    1.258   134 C    1.223   129 Cu   0.499
   136   6 C    3.930 --   144 C    1.323   134 C    1.323   137 C    1.028
   137   6 C    3.989 --   143 C    1.394   138 C    1.383   136 C    1.028
   138   6 C    3.988 --   139 C    1.466   137 C    1.383   170 H    0.973
                           142 C    0.102
   139   6 C    3.990 --   138 C    1.466   140 C    1.364   171 H    0.971
                           143 C    0.105
   140   6 C    3.901 --   142 C    1.372   139 C    1.364   141 O    1.040
   141   8 O    2.043 --   140 C    1.040   172 H    0.865
   142   6 C    3.988 --   143 C    1.452   140 C    1.372   173 H    0.970
                           138 C    0.102
   143   6 C    3.988 --   142 C    1.452   137 C    1.394   174 H    0.973
                           139 C    0.105
   144   6 C    3.906 --   136 C    1.323   147 N    1.222   145 C    1.181
   145   6 C    3.956 --   146 C    1.640   144 C    1.181   175 H    0.973
   146   6 C    3.955 --   145 C    1.640   148 C    1.188   176 H    0.974
   147   7 N    3.241 --   148 C    1.259   144 C    1.222   129 Cu   0.499
   148   6 C    3.898 --   147 N    1.259   149 C    1.257   146 C    1.188
   149   6 C    3.927 --   150 C    1.257   148 C    1.257   126 C    1.189
   150   6 C    3.899 --   154 N    1.258   149 C    1.257   151 C    1.188
   151   6 C    3.955 --   152 C    1.639   150 C    1.188   177 H    0.974
   152   6 C    3.956 --   151 C    1.639   153 C    1.182   178 H    0.973
   153   6 C    3.906 --   155 C    1.322   154 N    1.223   152 C    1.182
   154   7 N    3.241 --   150 C    1.258   153 C    1.223   129 Cu   0.499
   155   6 C    3.930 --   163 C    1.322   153 C    1.322   156 C    1.029
   156   6 C    3.989 --   157 C    1.393   162 C    1.383   155 C    1.029
   157   6 C    3.988 --   158 C    1.452   156 C    1.393   179 H    0.973
                           161 C    0.105
   158   6 C    3.988 --   157 C    1.452   159 C    1.372   180 H    0.970
                           162 C    0.102
   159   6 C    3.901 --   158 C    1.372   161 C    1.364   160 O    1.040
   160   8 O    2.043 --   159 C    1.040   181 H    0.865
   161   6 C    3.990 --   162 C    1.467   159 C    1.364   182 H    0.971
                           157 C    0.105
   162   6 C    3.988 --   161 C    1.467   156 C    1.383   183 H    0.973
                           158 C    0.102
   163   6 C    3.906 --   155 C    1.322   167 N    1.222   164 C    1.182
   164   6 C    3.956 --   165 C    1.639   163 C    1.182   184 H    0.973
   165   6 C    3.955 --   164 C    1.639   166 C    1.189   185 H    0.974
   166   6 C    3.899 --   167 N    1.259   130 C    1.256   165 C    1.189
   167   7 N    3.241 --   166 C    1.259   163 C    1.222   129 Cu   0.499
   168   1 H    1.002 --   132 C    0.974
   169   1 H    1.005 --   133 C    0.973
   170   1 H    1.005 --   138 C    0.973
   171   1 H    0.999 --   139 C    0.971
   172   1 H    0.887 --   141 O    0.865
   173   1 H    0.999 --   142 C    0.970
   174   1 H    1.005 --   143 C    0.973
   175   1 H    1.005 --   145 C    0.973
   176   1 H    1.002 --   146 C    0.974
   177   1 H    1.002 --   151 C    0.974
   178   1 H    1.005 --   152 C    0.973
   179   1 H    1.005 --   157 C    0.973
   180   1 H    0.999 --   158 C    0.970
   181   1 H    0.887 --   160 O    0.865
   182   1 H    0.999 --   161 C    0.971
   183   1 H    1.005 --   162 C    0.973
   184   1 H    1.005 --   164 C    0.973
   185   1 H    1.002 --   165 C    0.974
 ---------------------------------------------------------------------------

           -------------------------------------------------
          | TOTAL ENERGY             -338.246216785068 Eh   |
          | GRADIENT NORM               0.000921395840 Eh/α |
          | HOMO-LUMO GAP               0.000294516479 eV   |
           -------------------------------------------------

 * finished run on 2022/07/30 at 09:07:17.802
