   * xtb version 6.5.1 (b24c23e) compiled by 'conda@728c89f4b128' on 2022-07-12
          program call               : xtb Ph2OMe_C6_3.xyz --gfn 1 --opt -T 48

   ID    Z sym.   atoms
    1    6 C      1-5, 7-10, 12-20, 22-26, 28-32, 35, 36, 38-42, 44, 74-78,
                  80-83, 85-93, 95-99, 101-105, 108, 109, 111-115, 117,
                  147-163, 165-168, 170-178, 180-184, 186-190, 193, 194,
                  196-200, 202
    2    7 N      6, 11, 33, 34, 79, 84, 106, 107, 164, 169, 191, 192
    3    8 O      21, 27, 37, 43, 94, 100, 110, 116, 179, 185, 195, 201
    4    1 H      45-73, 118-146, 203-230

          :  Hamiltonian                  GFN1-xTB          :
 * total energy  :  -392.8686604 Eh     change        0.9937139E-08 Eh
 * total energy  :  -393.7135477 Eh     change       -0.8448873E+00 Eh
 * total energy  :  -393.9005448 Eh     change       -0.1869971E+00 Eh
 * total energy  :  -394.0161060 Eh     change       -0.1155612E+00 Eh
 * total energy  :  -394.0960673 Eh     change       -0.7996125E-01 Eh
 * total energy  :  -394.1666493 Eh     change       -0.7058206E-01 Eh
 * total energy  :  -394.2091893 Eh     change       -0.4253996E-01 Eh
 * total energy  :  -394.2392308 Eh     change       -0.3004148E-01 Eh
 * total energy  :  -394.2638010 Eh     change       -0.2457028E-01 Eh
 * total energy  :  -394.2812214 Eh     change       -0.1742036E-01 Eh
 * total energy  :  -394.3976527 Eh     change        0.4802745E-05 Eh
 * total energy  :  -394.3976665 Eh     change       -0.1380915E-04 Eh
 * total energy  :  -394.3975891 Eh     change        0.7738384E-04 Eh
 * total energy  :  -394.3976647 Eh     change       -0.7555291E-04 Eh
 * total energy  :  -394.3976536 Eh     change        0.1103860E-04 Eh
 * total energy  :  -394.3976760 Eh     change       -0.2240527E-04 Eh
 * total energy  :  -394.3976779 Eh     change       -0.1841161E-05 Eh
 * total energy  :  -394.3976834 Eh     change       -0.5505284E-05 Eh
 * total energy  :  -394.3976860 Eh     change       -0.2655104E-05 Eh
   *** GEOMETRY OPTIMIZATION CONVERGED AFTER 131 ITERATIONS ***

 final structure:
================
230
 xtb: 6.5.1 (b24c23e)
C           25.06225304713697        0.05669153083591        0.06049481772764
C           25.68901350675523        0.05832015276853        1.29985712054328
C           25.06324329930528        0.03072982439192        2.57844228322484
C           26.04479939257239        0.05676623149918        3.52860947459454
C           27.30216444490607        0.09850354178072        2.86118431211406
N           27.03690235711758        0.09940068436954        1.52054789823934
C           28.57219461068420        0.13173559984539        3.44375237238107
C           29.78219130319042        0.12714354343749        2.74917516737667
C           31.07996871792800        0.12772332210166        3.39958295008082
C           32.00123930140881        0.12724785991464        2.41377801262638
N           29.93564260882932        0.13959969835850        1.39667946716923
C           31.26411130143495        0.13390906608456        1.16448953246919
C           31.89431741349446        0.13840679008813       -0.09607562015341
C           31.24177436019227        0.16232503931334       -1.34238321283952
C           31.86137450392237        0.19303504680953       -2.62052744857472
C           30.87500021995483        0.23077696669476       -3.56655554992500
C           29.62171286812562        0.22029173342227       -2.89369117705023
C           28.35239583478611        0.24696156217960       -3.47617308051589
C           28.31028937925600        0.26754524573147       -4.97000463734972
C           28.45780212523609        1.41568184900111       -5.75271787850186
O           28.63271657488976        2.68116412510769       -5.28816654678884
C           28.27666846198650        3.08927568926285       -3.98012362950141
C           28.45785461005325        1.31335964354225       -7.14989596472602
C           28.30189861251419        0.08675008002917       -7.76208323854057
C           28.13650502920250       -1.06664486460665       -7.00442860336056
C           28.14436224030396       -0.97263208410247       -5.61752525815481
O           28.01064247281872       -2.04405163630173       -4.78994989768002
C           27.82133859616668       -3.33932847927288       -5.32265628366930
C           27.14235463990066        0.18480274167795       -2.78108352195049
C           25.83885615404222        0.16836077266311       -3.42537533703277
C           24.92458027188193        0.11153764936963       -2.43572540523052
C           25.66930525920302        0.10141236428118       -1.18836859041597
N           27.00132479985556        0.15035653506308       -1.43452037931824
N           29.89517188589626        0.17954680685616       -1.55149251066409
C           28.61336064017632        0.09275149499218        4.93714202084879
C           28.38986873176347        1.19706262183248        5.76361904040428
O           28.14022133728671        2.46555421302950        5.34148305365233
C           28.54754394555574        2.95354537412239        4.07590234405164
C           28.38533693585393        1.03980488963446        7.15525382194910
C           28.61360137037163       -0.19861585161182        7.71965764061676
C           28.85841250596862       -1.30748921111172        6.91846845613904
C           28.85431174349638       -1.15928033622569        5.53613334595353
O           29.05974822616881       -2.18667012539027        4.66875394921200
C           29.35252274374128       -3.48244895218219        5.15091802857641
H           23.97777168994235        0.02142884147693        0.07917548574423
H           23.99694715660920       -0.00385419291354        2.73595329241120
H           25.92050223780816        0.04515889886719        4.59941836415875
H           27.74464718239631        0.10587674406616        0.79396744112049
H           31.23586515515570        0.12271192215905        4.46646490577855
H           33.07648147607289        0.12428100190841        2.49583430785325
H           32.92713839597364        0.18809680617142       -2.78332853577546
H           30.99533781449267        0.25967031124568       -4.63735549194109
H           29.00604045552202        2.74782994277676       -3.23750586588220
H           28.27154790636525        4.18198872080119       -3.99598540172386
H           27.28011228955438        2.72864476387541       -3.70440062505389
H           28.58133049052578        2.21911878424985       -7.72992194345593
H           28.30242016403698        0.01937246117709       -8.84412200934710
H           28.01103952944967       -2.02076514378970       -7.49818461817953
H           27.73053163022800       -4.00967333321151       -4.46593809130871
H           26.90546082237852       -3.39656913325447       -5.92325524825676
H           28.67633336253470       -3.65125827061900       -5.93472409984611
H           25.67791716189837        0.19099734702406       -4.49149311453139
H           23.84868312462815        0.08031482724126       -2.51000005323277
H           29.19060468092569        0.14625921448396       -0.82227629049882
H           29.56865273413280        2.63989265137223        3.83532892876338
H           28.51311579879463        4.04362681660538        4.14570068794867
H           27.86949997154024        2.62660222056255        3.28007315834115
H           28.20140637751614        1.91201344960539        7.76960737003988
H           28.60904980245224       -0.30972092256018        8.79808563826573
H           29.04048747217059       -2.27089611634205        7.37521688417681
H           28.52424980682891       -3.88739088117740        5.74500427925767
H           29.50007958703460       -4.10825550123266        4.26879897324094
H           30.26832751303779       -3.48866816565944        5.75418118937681
C           63.96505169702856        0.03544950536143       -0.11260698152754
C           63.35638240185226       -0.09701630409566       -1.35393621049943
C           64.00050096053094       -0.24093788249596       -2.61550130520002
C           63.03207163283498       -0.32874654791945       -3.57543801175512
C           61.76500891500334       -0.24432501838377       -2.93092495168623
N           62.01126632096661       -0.10325359099819       -1.59414207507135
C           60.50287315416265       -0.29626363774617       -3.52890556224421
C           59.28366704870379       -0.25510924748933       -2.85212381100449
C           57.99565272748355       -0.35168981667373       -3.51456722861701
C           57.06053340424266       -0.26518261579523       -2.54578606882645
N           59.11062228074301       -0.10156386705370       -1.51055022012523
C           57.77939692758049       -0.10805411703692       -1.29568266832199
C           57.13035520453250        0.03029036868356       -0.05217098176209
C           57.76412142125133        0.20355968863188        1.19199267371288
C           57.12606967330758        0.36368527988568        2.45116715873845
C           58.09853264064740        0.50874594484833        3.40129996159104
C           59.36144315156270        0.43868281377105        2.75027085529035
C           60.62225601661845        0.53385765802467        3.34418336888657
C           60.64286021011899        0.70055163200267        4.82920050355398
C           60.45948085822494        1.91561172134937        5.49453597599860
O           60.26734641707919        3.12572123290416        4.90572338159828
C           60.64717140271152        3.41311042710658        3.57237587935850
C           60.43859886578010        1.94935249564918        6.89485514256394
C           60.60971068360578        0.79153820015747        7.62557491831494
C           60.81185870859020       -0.42579070247222        6.98604750266103
C           60.82463416662396       -0.46693013144499        5.59658656044835
O           60.99396558638932       -1.61043161222881        4.87934350815004
C           61.20495695060924       -2.84288955984531        5.53796367329588
C           61.84262609238045        0.41510807547195        2.67485889102460
C           63.13690180236842        0.47928377966386        3.33460319692838
C           64.06588318182666        0.33767175267297        2.36742068862320
C           63.33928524292368        0.19424358399133        1.11758124986042
N           62.00333750971699        0.24917481349556        1.34034755228641
N           59.10745241554085        0.25617202872115        1.41606860654935
C           60.48225372358563       -0.48823590854788       -5.01095398480070
C           60.67785624842132        0.53300017200047       -5.94439609304879
O           60.88375783344900        1.84533976069126       -5.65315957934613
C           60.45442247828301        2.44640034902595       -4.44483146781770
C           60.70023615680495        0.23474437308520       -7.31263663596301
C           60.51731607462930       -1.06160105331083       -7.74887132529662
C           60.30209292554945       -2.09079006020140       -6.84004112192476
C           60.28871165523571       -1.80225990407500       -5.48015183208432
O           60.10906623302549       -2.74179492804895       -4.51308686943544
C           59.86245580653891       -4.08899930646974       -4.86151486201887
H           65.05009959119015        0.01619726303893       -0.11351093304792
H           65.06935368758532       -0.27114326174759       -2.75567066928094
H           63.17130047818320       -0.44537557660572       -4.63810254467781
H           61.29334205374502       -0.03692789373056       -0.88065619435992
H           57.85516641616187       -0.47489568238517       -4.57646281188710
H           55.98687383303188       -0.29902068765238       -2.64034440337986
H           56.05813940484793        0.36612423085694        2.59923078195715
H           57.96251954506594        0.64833521212245        4.46146307778830
H           59.93768239997558        2.99346173276065        2.85086756848584
H           60.64006464833584        4.50239271945215        3.48448038195981
H           61.65324785875595        3.04075318640684        3.35254707767147
H           60.28709941498845        2.90412764424485        7.38224006100924
H           60.59262295037927        0.82923555609405        8.70893051616628
H           60.94907183215830       -1.32457251427450        7.57193860278652
H           61.32535804313159       -3.59053672570369        4.75175452683454
H           62.11208413895211       -2.81889858096065        6.15391430945800
H           60.34772044387906       -3.11539076486491        6.16555052855565
H           63.28243012541871        0.60940218990195        4.39521867038806
H           65.14091776260190        0.32848198639310        2.45838803338533
H           59.82263743364168        0.15180101398288        0.70408076095185
H           59.43751298758372        2.13612560232751       -4.18224460449535
H           60.46705960217317        3.52477394687027       -4.62183704954351
H           61.13138280579489        2.21423663372254       -3.61533080816880
H           60.86132773861041        1.04538090247602       -8.01187706114255
H           60.53476780917795       -1.28162062241989       -8.81031513117518
H           60.15564480586006       -3.10123738594627       -7.19697008683161
H           60.70792647784165       -4.52464659146654       -5.40772110755118
H           59.72885944507556       -4.62611629048129       -3.92065883400967
H           58.95188753821245       -4.18710462588163       -5.46468975946753
C           37.09681465196626        0.08353991412909       -0.19600135940257
C           35.86911919386475        0.09757349446433       -0.17703067525363
C           34.52387889070265        0.11133283497881       -0.15330939381271
C           33.30079991652906        0.12455466878517       -0.12604812955273
C           38.44202304782893        0.07060431066541       -0.21121108169628
C           39.66554910109734        0.05745616235169       -0.22123679431011
C           53.15539018314578       -0.04140612073037       -0.04225476264284
C           51.92753800693504       -0.05699746237281       -0.05470604510701
C           50.58242816658807       -0.06327266783293       -0.07364043820268
C           49.35889452516281       -0.05932478355227       -0.09389551659569
C           54.50068904386514       -0.02189289442147       -0.03937753232965
C           55.72399822339681        0.00226913062157       -0.04231669211006
C           41.07153137343035        0.04683297063933       -0.22668715353219
C           41.70981509543901        1.24656981748451        0.13912215642134
C           41.07464700579557        2.46152455545635        0.50870120671593
C           42.05081812635152        3.37862921120645        0.78395949068936
C           43.31135899907734        2.75084952188158        0.58790158279879
N           43.05380701231763        1.46299529430993        0.20154668236093
C           44.57432581943785        3.32143373285212        0.77394171487620
C           45.79541618010555        2.66789078799626        0.61272487584260
C           47.08390665243773        3.31199621914435        0.79624722210925
C           48.02018392082342        2.37262107629723        0.55289203872631
N           45.97051296791151        1.36646754242187        0.25285122956028
C           47.30219700725214        1.15900003337969        0.21258117982761
C           47.95325461062033       -0.04526476175803       -0.12091761857274
C           47.31788210617367       -1.24380828741570       -0.49624052439711
C           47.95074927742482       -2.46421841559794       -0.85043235323361
C           46.97370337103082       -3.36919968983924       -1.16348937831793
C           45.71538800019036       -2.72657843592058       -1.00733766392273
C           44.45257005459997       -3.28388427433441       -1.22915749021288
C           44.43215129148863       -4.72121552207033       -1.64115348533022
C           44.26151120595242       -5.67019730842141       -0.61398717606721
O           44.10888896449460       -5.15025893964950        0.63385588257195
C           43.89113872262568       -6.00103386826417        1.74105798761873
C           44.26635799767209       -7.03383158414179       -0.88370340536721
C           44.44960456109633       -7.46391403809241       -2.19262250294057
C           44.61150450851313       -6.55258088239457       -3.21572807481168
C           44.59864872231989       -5.17665529012482       -2.95156693233713
O           44.78226916912296       -4.39853372289163       -4.05045933216440
C           44.42732373117983       -3.02899233892286       -4.10671764246617
C           43.23080712299699       -2.64171361470477       -1.03302031932999
C           41.94539134438185       -3.28266413982534       -1.24299574619578
C           41.00610593366226       -2.35468790893267       -0.96418405457884
C           41.72070213568485       -1.14942248112663       -0.59107003449220
N           43.05298752714762       -1.34913113600708       -0.64550001355364
N           45.97423222231570       -1.44392573876579       -0.60235114512958
C           44.59611691462897        4.75573187649046        1.18043459000228
C           44.19559339335742        5.75211778982345        0.28020351744936
O           43.80288731333373        5.32038316105409       -0.94794364974111
C           43.40851406893459        6.24800699966802       -1.93925864048096
C           44.22271869780111        7.09444372579377        0.65658015405410
C           44.64315061515195        7.43430421708300        1.93348232622957
C           45.03785352722551        6.46535347821927        2.84333945914514
C           45.01621901983579        5.12305965462617        2.46604505290009
O           45.37216034967025        4.10207014834299        3.28844473856587
C           45.85245142928841        4.36597216285848        4.59156858287373
H           40.00701461833319        2.60401969143804        0.55610947559269
H           41.91513138684180        4.40092213082746        1.09698756650425
H           43.76497029605984        0.76838768994763       -0.00048087378063
H           47.22725012230464        4.34417517397139        1.07190495458454
H           49.09400455590026        2.46556559079357        0.58674221153281
H           49.01760055295155       -2.61934170761350       -0.86177381956723
H           47.10485740146507       -4.39316309730870       -1.47370610376318
H           43.77775541755421       -5.34777100282345        2.60822280850929
H           44.74216128889630       -6.67310052459079        1.90566000981353
H           42.97825369523112       -6.59595136429179        1.61659437375311
H           44.13668632845043       -7.75963308090888       -0.09231802136430
H           44.45962326436301       -8.52617812400012       -2.40917748586066
H           44.74912073348091       -6.87622219825702       -4.23964179021582
H           44.45520350182770       -2.75399068846288       -5.16391960701764
H           43.41784087886108       -2.86019562461696       -3.71725071235227
H           45.13931054297412       -2.40353807453989       -3.55742370504433
H           41.80915206404320       -4.30594379180005       -1.55439520491028
H           39.93249687501410       -2.44973292994608       -0.99967885088462
H           45.26487229983777       -0.74827689848476       -0.39727215581204
H           44.22255446452105        6.93926349975078       -2.18833972714004
H           42.52843333822680        6.82201644025475       -1.62495270851146
H           43.15516676872848        5.65902419881186       -2.82267045808979
H           43.92009027684295        7.87145021527044       -0.03244100511037
H           44.66203235015932        8.47817633906946        2.22661974690752
H           45.35654737170300        6.75897756118427        3.83445679549828
H           46.75679432871264        4.98574143825374        4.56749420109896
H           46.09430640165041        3.39522200373932        5.02809802476164
H           45.09117159710145        4.85868567414825        5.20838099283244

          :  Hamiltonian                  GFN1-xTB          :
         :: total energy            -394.397686040080 Eh    ::
         :: gradient norm              0.000398489218 Eh/a0 ::
         :: HOMO-LUMO gap              1.024145330664 eV    ::
         :: SCC energy              -400.208691838382 Eh    ::
         :: repulsion energy           6.009225807875 Eh    ::

    * Orbital Energies and Occupations

         #    Occupation            Energy/Eh            Energy/eV
      -------------------------------------------------------------
         1        2.0000           -0.8103802             -22.0516
       ...           ...                  ...                  ...
       337        2.0000           -0.4098786             -11.1534
       338        2.0000           -0.4097932             -11.1510
       339        2.0000           -0.4094303             -11.1412
       340        2.0000           -0.4088193             -11.1245
       341        2.0000           -0.4084702             -11.1150
       342        2.0000           -0.4082834             -11.1100
       343        2.0000           -0.4056684             -11.0388
       344        2.0000           -0.3934263             -10.7057
       345        2.0000           -0.3931285             -10.6976
       346        2.0000           -0.3912990             -10.6478
       347        2.0000           -0.3776135             -10.2754
       348        2.0000           -0.3767462             -10.2518
       349        2.0000           -0.3720776             -10.1247 (HOMO)
       350                         -0.3344409              -9.1006 (LUMO)
       351                         -0.3309357              -9.0052
       352                         -0.3290964              -8.9552
       353                         -0.3246505              -8.8342
       354                         -0.3243412              -8.8258
       355                         -0.3223249              -8.7709
       356                         -0.2988505              -8.1321
       357                         -0.2929859              -7.9726
       358                         -0.2923989              -7.9566
       359                         -0.2708638              -7.3706
       360                         -0.2676786              -7.2839
       ...                                ...                  ...
       748                          1.5843861              43.1133
      -------------------------------------------------------------
                  HL-Gap            0.0376366 Eh            1.0241 eV

Wiberg/Mayer (AO) data.
largest (>0.10) Wiberg bond orders for each atom

     #   Z sym  total        # sym  WBO       # sym  WBO       # sym  WBO
 ---------------------------------------------------------------------------
     1   6 C    3.927 --    32 C    1.364     2 C    1.348    45 H    0.971
     2   6 C    3.903 --     1 C    1.348     3 C    1.228     6 N    1.170
     3   6 C    3.954 --     4 C    1.598     2 C    1.228    46 H    0.977
     4   6 C    3.960 --     3 C    1.598     5 C    1.232    47 H    0.975
     5   6 C    3.896 --     7 C    1.307     4 C    1.232     6 N    1.172
     6   7 N    3.468 --     5 C    1.172     2 C    1.170    48 H    0.874
     7   6 C    3.940 --     8 C    1.339     5 C    1.307    35 C    1.005
     8   6 C    3.916 --     7 C    1.339    11 N    1.284     9 C    1.124
     9   6 C    3.966 --    10 C    1.710     8 C    1.124    49 H    0.975
    10   6 C    3.964 --     9 C    1.710    12 C    1.128    50 H    0.974
    11   7 N    3.023 --    12 C    1.343     8 C    1.284
    12   6 C    3.911 --    11 N    1.343    13 C    1.256    10 C    1.128
    13   6 C    3.940 --    12 C    1.256    14 C    1.255   150 C    1.185
    14   6 C    3.886 --    13 C    1.255    15 C    1.247    34 N    1.189
    15   6 C    3.960 --    16 C    1.587    14 C    1.247    51 H    0.975
    16   6 C    3.956 --    15 C    1.587    17 C    1.238    52 H    0.975
    17   6 C    3.898 --    18 C    1.315    16 C    1.238    34 N    1.160
    18   6 C    3.926 --    29 C    1.325    17 C    1.315    19 C    1.004
    19   6 C    3.974 --    20 C    1.370    26 C    1.321    18 C    1.004
    20   6 C    3.904 --    19 C    1.370    23 C    1.339    21 O    1.030
    21   8 O    2.138 --    20 C    1.030    22 C    0.926
    22   6 C    3.902 --    54 H    0.983    55 H    0.979    53 H    0.978
                            21 O    0.926
    23   6 C    3.985 --    24 C    1.474    20 C    1.339    56 H    0.971
    24   6 C    3.995 --    23 C    1.474    25 C    1.418    57 H    0.974
    25   6 C    3.981 --    24 C    1.418    26 C    1.384    58 H    0.969
    26   6 C    3.903 --    25 C    1.384    19 C    1.321    27 O    1.030
    27   8 O    2.143 --    26 C    1.030    28 C    0.935
    28   6 C    3.907 --    59 H    0.983    60 H    0.980    61 H    0.980
                            27 O    0.935
    29   6 C    3.929 --    18 C    1.325    33 N    1.312    30 C    1.117
    30   6 C    3.967 --    31 C    1.722    29 C    1.117    62 H    0.975
    31   6 C    3.966 --    30 C    1.722    32 C    1.117    63 H    0.976
    32   6 C    3.931 --     1 C    1.364    33 N    1.303    31 C    1.117
    33   7 N    3.014 --    29 C    1.312    32 C    1.303
    34   7 N    3.472 --    14 C    1.189    17 C    1.160    64 H    0.873
    35   6 C    3.975 --    36 C    1.370    42 C    1.321     7 C    1.005
    36   6 C    3.904 --    35 C    1.370    39 C    1.341    37 O    1.028
    37   8 O    2.134 --    36 C    1.028    38 C    0.926
    38   6 C    3.902 --    66 H    0.983    65 H    0.980    67 H    0.978
                            37 O    0.926
    39   6 C    3.986 --    40 C    1.472    36 C    1.341    68 H    0.971
    40   6 C    3.994 --    39 C    1.472    41 C    1.419    69 H    0.974
    41   6 C    3.982 --    40 C    1.419    42 C    1.383    70 H    0.969
    42   6 C    3.904 --    41 C    1.383    35 C    1.321    43 O    1.030
    43   8 O    2.143 --    42 C    1.030    44 C    0.935
    44   6 C    3.907 --    72 H    0.983    73 H    0.980    71 H    0.980
                            43 O    0.935
    45   1 H    1.002 --     1 C    0.971
    46   1 H    0.998 --     3 C    0.977
    47   1 H    1.001 --     4 C    0.975
    48   1 H    0.987 --     6 N    0.874
    49   1 H    1.003 --     9 C    0.975
    50   1 H    1.003 --    10 C    0.974
    51   1 H    1.002 --    15 C    0.975
    52   1 H    1.002 --    16 C    0.975
    53   1 H    1.018 --    22 C    0.978
    54   1 H    1.015 --    22 C    0.983
    55   1 H    1.014 --    22 C    0.979
    56   1 H    1.001 --    23 C    0.971
    57   1 H    1.003 --    24 C    0.974
    58   1 H    0.999 --    25 C    0.969
    59   1 H    1.016 --    28 C    0.983
    60   1 H    1.009 --    28 C    0.980
    61   1 H    1.009 --    28 C    0.980
    62   1 H    1.003 --    30 C    0.975
    63   1 H    0.999 --    31 C    0.976
    64   1 H    0.988 --    34 N    0.873
    65   1 H    1.014 --    38 C    0.980
    66   1 H    1.015 --    38 C    0.983
    67   1 H    1.018 --    38 C    0.978
    68   1 H    1.001 --    39 C    0.971
    69   1 H    1.003 --    40 C    0.974
    70   1 H    1.000 --    41 C    0.969
    71   1 H    1.009 --    44 C    0.980
    72   1 H    1.016 --    44 C    0.983
    73   1 H    1.009 --    44 C    0.980
    74   6 C    3.927 --   105 C    1.364    75 C    1.348   118 H    0.971
    75   6 C    3.903 --    74 C    1.348    76 C    1.228    79 N    1.170
    76   6 C    3.954 --    77 C    1.598    75 C    1.228   119 H    0.977
    77   6 C    3.960 --    76 C    1.598    78 C    1.232   120 H    0.975
    78   6 C    3.896 --    80 C    1.307    77 C    1.232    79 N    1.172
    79   7 N    3.468 --    78 C    1.172    75 C    1.170   121 H    0.874
    80   6 C    3.940 --    81 C    1.339    78 C    1.307   108 C    1.004
    81   6 C    3.916 --    80 C    1.339    84 N    1.283    82 C    1.124
    82   6 C    3.966 --    83 C    1.710    81 C    1.124   122 H    0.975
    83   6 C    3.964 --    82 C    1.710    85 C    1.128   123 H    0.974
    84   7 N    3.023 --    85 C    1.344    81 C    1.283
    85   6 C    3.911 --    84 N    1.344    86 C    1.255    83 C    1.128
    86   6 C    3.939 --    85 C    1.255    87 C    1.255   158 C    1.185
    87   6 C    3.886 --    86 C    1.255    88 C    1.247   107 N    1.189
    88   6 C    3.960 --    89 C    1.586    87 C    1.247   124 H    0.975
    89   6 C    3.956 --    88 C    1.586    90 C    1.238   125 H    0.975
    90   6 C    3.898 --    91 C    1.314    89 C    1.238   107 N    1.160
    91   6 C    3.926 --   102 C    1.325    90 C    1.314    92 C    1.004
    92   6 C    3.974 --    93 C    1.370    99 C    1.321    91 C    1.004
    93   6 C    3.904 --    92 C    1.370    96 C    1.339    94 O    1.030
    94   8 O    2.137 --    93 C    1.030    95 C    0.926
    95   6 C    3.902 --   127 H    0.983   128 H    0.979   126 H    0.978
                            94 O    0.926
    96   6 C    3.985 --    97 C    1.473    93 C    1.339   129 H    0.971
    97   6 C    3.994 --    96 C    1.473    98 C    1.418   130 H    0.974
    98   6 C    3.981 --    97 C    1.418    99 C    1.384   131 H    0.969
    99   6 C    3.903 --    98 C    1.384    92 C    1.321   100 O    1.030
   100   8 O    2.143 --    99 C    1.030   101 C    0.935
   101   6 C    3.907 --   132 H    0.983   133 H    0.980   134 H    0.980
                           100 O    0.935
   102   6 C    3.929 --    91 C    1.325   106 N    1.312   103 C    1.118
   103   6 C    3.967 --   104 C    1.722   102 C    1.118   135 H    0.975
   104   6 C    3.966 --   103 C    1.722   105 C    1.117   136 H    0.976
   105   6 C    3.931 --    74 C    1.364   106 N    1.303   104 C    1.117
   106   7 N    3.014 --   102 C    1.312   105 C    1.303
   107   7 N    3.472 --    87 C    1.189    90 C    1.160   137 H    0.873
   108   6 C    3.974 --   109 C    1.370   115 C    1.321    80 C    1.004
   109   6 C    3.904 --   108 C    1.370   112 C    1.340   110 O    1.028
   110   8 O    2.134 --   109 C    1.028   111 C    0.926
   111   6 C    3.902 --   139 H    0.983   138 H    0.980   140 H    0.978
                           110 O    0.926
   112   6 C    3.986 --   113 C    1.472   109 C    1.340   141 H    0.971
   113   6 C    3.994 --   112 C    1.472   114 C    1.419   142 H    0.974
   114   6 C    3.982 --   113 C    1.419   115 C    1.383   143 H    0.969
   115   6 C    3.904 --   114 C    1.383   108 C    1.321   116 O    1.030
   116   8 O    2.143 --   115 C    1.030   117 C    0.935
   117   6 C    3.907 --   145 H    0.983   146 H    0.980   144 H    0.980
                           116 O    0.935
   118   1 H    1.002 --    74 C    0.971
   119   1 H    0.998 --    76 C    0.977
   120   1 H    1.001 --    77 C    0.975
   121   1 H    0.987 --    79 N    0.874
   122   1 H    1.003 --    82 C    0.975
   123   1 H    1.003 --    83 C    0.974
   124   1 H    1.002 --    88 C    0.975
   125   1 H    1.002 --    89 C    0.975
   126   1 H    1.018 --    95 C    0.978
   127   1 H    1.015 --    95 C    0.983
   128   1 H    1.014 --    95 C    0.979
   129   1 H    1.001 --    96 C    0.971
   130   1 H    1.003 --    97 C    0.974
   131   1 H    0.999 --    98 C    0.969
   132   1 H    1.016 --   101 C    0.983
   133   1 H    1.009 --   101 C    0.980
   134   1 H    1.009 --   101 C    0.980
   135   1 H    1.003 --   103 C    0.975
   136   1 H    0.999 --   104 C    0.976
   137   1 H    0.988 --   107 N    0.873
   138   1 H    1.014 --   111 C    0.980
   139   1 H    1.015 --   111 C    0.983
   140   1 H    1.018 --   111 C    0.978
   141   1 H    1.001 --   112 C    0.971
   142   1 H    1.003 --   113 C    0.974
   143   1 H    0.999 --   114 C    0.969
   144   1 H    1.009 --   117 C    0.980
   145   1 H    1.016 --   117 C    0.983
   146   1 H    1.009 --   117 C    0.980
   147   6 C    3.922 --   148 C    2.374   151 C    1.329   150 C    0.189
   148   6 C    3.921 --   147 C    2.374   149 C    1.328   152 C    0.189
   149   6 C    3.932 --   150 C    2.455   148 C    1.328
   150   6 C    3.888 --   149 C    2.455    13 C    1.185   147 C    0.189
   151   6 C    3.929 --   152 C    2.452   147 C    1.329
   152   6 C    3.888 --   151 C    2.452   159 C    1.187   148 C    0.189
   153   6 C    3.922 --   154 C    2.373   157 C    1.329   156 C    0.189
   154   6 C    3.922 --   153 C    2.373   155 C    1.330   158 C    0.189
   155   6 C    3.929 --   156 C    2.452   154 C    1.330
   156   6 C    3.888 --   155 C    2.452   171 C    1.188   153 C    0.189
   157   6 C    3.932 --   158 C    2.454   153 C    1.329
   158   6 C    3.888 --   157 C    2.454    86 C    1.185   154 C    0.189
   159   6 C    3.927 --   190 C    1.255   160 C    1.252   152 C    1.187
   160   6 C    3.888 --   159 C    1.252   161 C    1.248   164 N    1.190
   161   6 C    3.956 --   162 C    1.583   160 C    1.248   203 H    0.975
   162   6 C    3.957 --   161 C    1.583   163 C    1.243   204 H    0.976
   163   6 C    3.892 --   165 C    1.307   162 C    1.243   164 N    1.165
   164   7 N    3.473 --   160 C    1.190   163 C    1.165   205 H    0.874
   165   6 C    3.930 --   166 C    1.344   163 C    1.307   193 C    1.015
   166   6 C    3.915 --   165 C    1.344   169 N    1.283   167 C    1.123
   167   6 C    3.967 --   168 C    1.715   166 C    1.123   206 H    0.975
   168   6 C    3.965 --   167 C    1.715   170 C    1.126   207 H    0.974
   169   7 N    3.014 --   170 C    1.344   166 C    1.283
   170   6 C    3.911 --   169 N    1.344   171 C    1.256   168 C    1.126
   171   6 C    3.927 --   170 C    1.256   172 C    1.250   156 C    1.188
   172   6 C    3.887 --   173 C    1.251   171 C    1.250   192 N    1.190
   173   6 C    3.956 --   174 C    1.581   172 C    1.251   208 H    0.975
   174   6 C    3.956 --   173 C    1.581   175 C    1.243   209 H    0.976
   175   6 C    3.894 --   176 C    1.305   174 C    1.243   192 N    1.161
   176   6 C    3.928 --   187 C    1.341   175 C    1.305   177 C    1.003
   177   6 C    3.974 --   184 C    1.370   178 C    1.321   176 C    1.003
   178   6 C    3.904 --   181 C    1.384   177 C    1.321   179 O    1.030
   179   8 O    2.143 --   178 C    1.030   180 C    0.935
   180   6 C    3.907 --   210 H    0.983   212 H    0.980   211 H    0.980
                           179 O    0.935
   181   6 C    3.981 --   182 C    1.418   178 C    1.384   213 H    0.969
   182   6 C    3.995 --   183 C    1.474   181 C    1.418   214 H    0.974
   183   6 C    3.985 --   182 C    1.474   184 C    1.338   215 H    0.971
   184   6 C    3.904 --   177 C    1.370   183 C    1.338   185 O    1.031
   185   8 O    2.138 --   184 C    1.031   186 C    0.926
   186   6 C    3.901 --   216 H    0.983   217 H    0.979   218 H    0.977
                           185 O    0.926
   187   6 C    3.917 --   176 C    1.341   191 N    1.282   188 C    1.125
   188   6 C    3.967 --   189 C    1.709   187 C    1.125   219 H    0.975
   189   6 C    3.964 --   188 C    1.709   190 C    1.130   220 H    0.975
   190   6 C    3.912 --   191 N    1.344   159 C    1.255   189 C    1.130
   191   7 N    3.011 --   190 C    1.344   187 C    1.282
   192   7 N    3.469 --   172 C    1.190   175 C    1.161   221 H    0.874
   193   6 C    3.977 --   194 C    1.343   200 C    1.342   165 C    1.015
                           198 C    0.100
   194   6 C    3.902 --   197 C    1.362   193 C    1.343   195 O    1.030
   195   8 O    2.142 --   194 C    1.030   196 C    0.934
   196   6 C    3.907 --   224 H    0.983   223 H    0.980   222 H    0.980
                           195 O    0.934
   197   6 C    3.983 --   198 C    1.442   194 C    1.362   225 H    0.969
   198   6 C    3.992 --   199 C    1.442   197 C    1.442   226 H    0.973
                           193 C    0.100
   199   6 C    3.983 --   198 C    1.442   200 C    1.362   227 H    0.969
   200   6 C    3.904 --   199 C    1.362   193 C    1.342   201 O    1.033
   201   8 O    2.146 --   200 C    1.033   202 C    0.934
   202   6 C    3.906 --   229 H    0.983   228 H    0.980   230 H    0.980
                           201 O    0.934
   203   1 H    1.002 --   161 C    0.975
   204   1 H    1.002 --   162 C    0.976
   205   1 H    0.988 --   164 N    0.874
   206   1 H    1.003 --   167 C    0.975
   207   1 H    1.003 --   168 C    0.974
   208   1 H    1.002 --   173 C    0.975
   209   1 H    1.002 --   174 C    0.976
   210   1 H    1.016 --   180 C    0.983
   211   1 H    1.009 --   180 C    0.980
   212   1 H    1.009 --   180 C    0.980
   213   1 H    1.000 --   181 C    0.969
   214   1 H    1.003 --   182 C    0.974
   215   1 H    1.001 --   183 C    0.971
   216   1 H    1.015 --   186 C    0.983
   217   1 H    1.015 --   186 C    0.979
   218   1 H    1.018 --   186 C    0.977
   219   1 H    1.003 --   188 C    0.975
   220   1 H    1.003 --   189 C    0.975
   221   1 H    0.988 --   192 N    0.874
   222   1 H    1.009 --   196 C    0.980
   223   1 H    1.009 --   196 C    0.980
   224   1 H    1.015 --   196 C    0.983
   225   1 H    1.000 --   197 C    0.969
   226   1 H    1.003 --   198 C    0.973
   227   1 H    1.000 --   199 C    0.969
   228   1 H    1.008 --   202 C    0.980
   229   1 H    1.015 --   202 C    0.983
   230   1 H    1.009 --   202 C    0.980
 ---------------------------------------------------------------------------

           -------------------------------------------------
          | TOTAL ENERGY             -394.397686040080 Eh   |
          | GRADIENT NORM               0.000398489218 Eh/α |
          | HOMO-LUMO GAP               1.024145330664 eV   |
           -------------------------------------------------

 * finished run on 2022/07/30 at 15:38:50.968
