   * xtb version 6.5.1 (b24c23e) compiled by 'conda@728c89f4b128' on 2022-07-12
          program call               : xtb Ni_p-CP_C6_2.xyz --gfn 1 --opt -T 48

   ID    Z sym.   atoms
    1   28 Ni     1, 63
    2    6 C      2-6, 8-11, 13-24, 27-32, 35-39, 42, 43, 64-68, 70-73,
                  75-86, 89-94, 97-101, 104, 105, 125-130
    3    7 N      7, 12, 33, 34, 69, 74, 95, 96
    4    8 O      25, 26, 40, 41, 87, 88, 102, 103
    5    1 H      44-62, 106-124
########################################################################
[WARNING] Please study the warnings concerning your input carefully
-1- prog_main_parseArguments: Unknown option '-T' provided
########################################################################

          :  Hamiltonian                  GFN1-xTB          :
 * total energy  :  -247.8508589 Eh     change       -0.1467185E-08 Eh
 * total energy  :  -248.1197166 Eh     change       -0.2688577E+00 Eh
 * total energy  :  -248.1986836 Eh     change       -0.7896695E-01 Eh
 * total energy  :  -248.2307770 Eh     change       -0.3209344E-01 Eh
 * total energy  :  -248.2426114 Eh     change       -0.1183442E-01 Eh
 * total energy  :  -248.2486005 Eh     change       -0.5989094E-02 Eh
 * total energy  :  -248.2517505 Eh     change       -0.3149925E-02 Eh
 * total energy  :  -248.2534395 Eh     change       -0.1689048E-02 Eh
 * total energy  :  -248.2545286 Eh     change       -0.1089063E-02 Eh
 * total energy  :  -248.2552099 Eh     change       -0.6813545E-03 Eh
 * total energy  :  -248.2575663 Eh     change       -0.1013705E-04 Eh
 * total energy  :  -248.2575781 Eh     change       -0.1185497E-04 Eh
 * total energy  :  -248.2575912 Eh     change       -0.1310111E-04 Eh
 * total energy  :  -248.2576001 Eh     change       -0.8920853E-05 Eh
 * total energy  :  -248.2576058 Eh     change       -0.5631629E-05 Eh
 * total energy  :  -248.2576064 Eh     change       -0.6225326E-06 Eh
 * total energy  :  -248.2576131 Eh     change       -0.6664081E-05 Eh
 * total energy  :  -248.2576187 Eh     change       -0.5677373E-05 Eh
 * total energy  :  -248.2576214 Eh     change       -0.2652418E-05 Eh
   *** GEOMETRY OPTIMIZATION CONVERGED AFTER 44 ITERATIONS ***

 final structure:
================
130
 xtb: 6.5.1 (b24c23e)
Ni          16.44507296824419       -0.08085224210014        0.03045703555065
C           13.05336201279525       -0.17441381548896        0.05117463310386
C           13.71238765406084       -0.33654807699103        1.25173961173931
C           13.03985461258280       -0.52561911768339        2.50085705355304
C           13.99467280030472       -0.52318398671678        3.45967386339557
C           15.25203245330191       -0.34586462781515        2.79344371332150
N           15.06955999254640       -0.24903524510222        1.43669781999055
C           16.46431964107904       -0.19937287690090        3.45464948376516
C           17.66999445528562       -0.02754792861338        2.78836432039492
C           18.93424483549843        0.07708022808569        3.45203873143549
C           19.88245487545240        0.10378335864163        2.48538430716589
N           17.84314462854993       -0.04776803627973        1.42266865102390
C           19.19665657522663        0.01347657073555        1.23575029066433
C           19.85826986185737       -0.06797708239021        0.00732426213118
C           19.17947919472440       -0.13436933022837       -1.21238763828606
C           19.84584817240840       -0.23364922435189       -2.47165009768633
C           18.88539402422436       -0.17636461494716       -3.42516367878121
C           17.63433658325892       -0.03531441034866       -2.74368894002186
C           16.41556117935239        0.11929429844898       -3.39160050818301
C           16.40308563042257        0.20963042122874       -4.87016197237678
C           15.72116421758776       -0.74418233228861       -5.63058536922256
C           15.70669880019380       -0.65653061643698       -7.01033121106227
C           16.37148110194824        0.38773573308987       -7.65595021690382
C           16.32215128341836        0.44180978149803       -9.13674035214606
O           17.00224898257179        1.47335371099796       -9.65947491738617
O           15.73335951699237       -0.35086064237871       -9.82691442724090
C           17.05482317371860        1.34188400493512       -6.90146856987145
C           17.07078305223520        1.25032776750505       -5.52061177289626
C           15.20607034537204        0.18021904681872       -2.71083113843004
C           13.93584040008884        0.36483866344001       -3.35029883104326
C           12.99300783163552        0.26598697189827       -2.38449076423612
C           13.68813985795262        0.04024821345438       -1.15423049772838
N           15.04552265291582        0.02266804372194       -1.35707020279022
N           17.82464345575344       -0.04738715992670       -1.38055923914498
C           16.47330647339978       -0.23588358973168        4.93730861347214
C           16.14071428707722       -1.40969891633987        5.61735428852103
C           16.15176205561198       -1.44085537284420        6.99984351401283
C           16.49127953433387       -0.29821058785020        7.72656832842947
C           16.48713800970867       -0.38083337183188        9.20693447047138
O           16.83530206643175        0.76607269226719        9.80964851325195
O           16.20191086922868       -1.37035621343857        9.83210352292087
C           16.82222755766636        0.87680009436280        7.05115086224929
C           16.81494941839433        0.90459050747289        5.66734978979235
H           11.97003034335433       -0.20269769080318        0.05774010346053
H           11.97208443096360       -0.62904517028058        2.61008048986779
H           13.87100848816524       -0.61892099440468        4.52607807234444
H           19.06943638080826        0.10690591087723        4.52078563406377
H           20.95309652285576        0.16829289133540        2.59302193151795
H           20.91227816112990       -0.33291586106778       -2.59381594042232
H           19.00281435853093       -0.23216673065814       -4.49497669212116
H           15.21530455426718       -1.56306741663027       -5.13186917285373
H           15.18209796734367       -1.39508613162957       -7.60651493868824
H           16.91958121160964        1.43751719623962      -10.62629107055407
H           17.57033849413189        2.15518112152447       -7.39839686444751
H           17.59082735453404        1.99921854880293       -4.93397026405042
H           13.79676123175867        0.54891594366096       -4.40311618745379
H           11.92114815305980        0.34049049175451       -2.47577384508824
H           15.88778924733288       -2.30066508735345        5.05405546540400
H           15.89955167954857       -2.34963628360697        7.53518002484084
H           16.80789509522641        0.62898351639130       10.77052673016794
H           17.08327147327925        1.76674324740639        7.61147606969329
H           17.06260818796157        1.81991773730621        5.14181604888536
Ni          32.44725734700370       -0.07595315641768       -0.03950549229697
C           35.83917703320228       -0.16779328243233       -0.07070690736985
C           35.18031677603109       -0.18687699434677       -1.28208718248065
C           35.85333739717564       -0.22679121554333       -2.54451981039265
C           34.89863494790649       -0.11346452814902       -3.49670901090965
C           33.64084990539320       -0.01804869839451       -2.81468178907230
N           33.82303964937665       -0.07999691550671       -1.45584880313123
C           32.42812727152570        0.20032679873705       -3.45497129742628
C           31.22197040591190        0.29094965008994       -2.77369792168328
C           29.95740370100050        0.46715482112013       -3.42144859524169
C           29.00928779767061        0.38271971342530       -2.45804400377836
N           31.04900408114027        0.11550757090249       -1.41913753853963
C           29.69541986403215        0.15268263728392       -1.22664622321083
C           29.03376861895158       -0.06650503750218       -0.01519107366999
C           29.71235258059588       -0.26870437118119        1.18953020057020
C           29.04551793389285       -0.50714915103625        2.42974003011045
C           30.00598836683207       -0.56047589465368        3.38341832751826
C           31.25748830928777       -0.34672346705528        2.72197797590980
C           32.47664278587088       -0.27213497903914        3.38309499424638
C           32.48895885504903       -0.35316346716445        4.86226080531632
C           33.16481361092162       -1.39243498328863        5.50730471169443
C           33.17881552400932       -1.46492910591236        6.88794602633277
C           32.51979003170876       -0.49832469464795        7.64991521732025
C           32.56871863472642       -0.61578355332026        9.12704415587355
O           31.89427127173458        0.35243890779845        9.76543611497679
O           33.15222761465594       -1.48643262840076        9.72102997317721
C           31.84258187250153        0.54065456247621        7.01076850767456
C           31.82697002497869        0.60934793439117        5.62858316115032
C           33.68652805635060       -0.13721493896337        2.71387625986604
C           34.95702666146911       -0.03212603233529        3.37057425938291
C           35.89982683385737       -0.01887098555319        2.39980304741666
C           35.20442108197077       -0.09687321162396        1.15158484020285
N           33.84697750545684       -0.13569484910006        1.35096696192346
N           31.06734226110943       -0.20348282887619        1.36630826165590
C           32.41925917124713        0.33500516996512       -4.93190147875150
C           32.75864424672923       -0.75049517902082       -5.74274256744099
C           32.74793504818827       -0.62184859090548       -7.11958262856108
C           32.40184332240144        0.59508365799248       -7.70976790683768
C           32.40707854690275        0.68418939995137       -9.18971913606190
O           32.05016608743122        1.89029886861818       -9.65631099927936
O           32.69920043111906       -0.22445879974835       -9.92468151886541
C           32.06390363977936        1.68226690553349       -6.90343769529205
C           32.07101164527967        1.55013944984651       -5.52569251725216
H           36.92250414700511       -0.19537625742469       -0.08051707531408
H           36.92129818710651       -0.31485967503358       -2.66478036597898
H           35.02266747079450       -0.08303037105006       -4.56691872987223
H           29.82193606072816        0.61712836606813       -4.48000000498383
H           27.93850546371857        0.45696178483646       -2.55771185934887
H           27.97883040451827       -0.61684328221104        2.54014455685661
H           29.88830468736260       -0.73643350734138        4.44010356393432
H           33.66628987578276       -2.15109900157246        4.91727645357589
H           33.69865339091486       -2.27052915160817        7.39478216867426
H           31.97620220880284        0.20476751340771       10.72164319119538
H           31.33154977802650        1.29412925052050        7.59835910261193
H           31.31162989986896        1.42398850435875        5.13238334406890
H           35.09625849486121        0.02654939404246        4.43773238782883
H           36.97182879750511        0.04208721024278        2.49910857499502
H           33.01665632591119       -1.69910139826806       -5.28594240466313
H           33.00578353831467       -1.46116651187873       -7.75607873732717
H           32.07844237032744        1.86516757909077      -10.62656604920394
H           31.79750902926363        2.62937063356115       -7.35744805068367
H           31.81809413948084        2.39725119914871       -4.89817842955415
C           25.05990774488138       -0.08529512238786       -0.00335591606881
C           23.83217192400331       -0.08354586246349       -0.00375186208959
C           22.48693076167389       -0.08135702752004       -0.00183760220721
C           21.26361709464522       -0.07734366402766       -0.00079545531309
C           26.40513718820007       -0.08244986185872       -0.00423478324541
C           27.62840583257395       -0.07605017693391       -0.00793068208353

          :  Hamiltonian                  GFN1-xTB          :
         :: total energy            -248.257621383707 Eh    ::
         :: gradient norm              0.000472554992 Eh/a0 ::
         :: HOMO-LUMO gap              1.228482508659 eV    ::
         :: SCC energy              -251.879822194031 Eh    ::
         :: repulsion energy           3.736698874963 Eh    ::

    * Orbital Energies and Occupations

         #    Occupation            Energy/Eh            Energy/eV
      -------------------------------------------------------------
         1        2.0000           -0.8336005             -22.6834
       ...           ...                  ...                  ...
       209        2.0000           -0.4233103             -11.5189
       210        2.0000           -0.4080751             -11.1043
       211        2.0000           -0.4080544             -11.1037
       212        2.0000           -0.4075919             -11.0911
       213        2.0000           -0.4075807             -11.0908
       214        2.0000           -0.4068177             -11.0701
       215        2.0000           -0.4068065             -11.0698
       216        2.0000           -0.4057475             -11.0410
       217        2.0000           -0.4057329             -11.0406
       218        2.0000           -0.4056689             -11.0388
       219        2.0000           -0.4056543             -11.0384
       220        2.0000           -0.4044085             -11.0045
       221        2.0000           -0.3941525             -10.7254 (HOMO)
       222                         -0.3490066              -9.4970 (LUMO)
       223                         -0.3407409              -9.2720
       224                         -0.3407316              -9.2718
       225                         -0.3380408              -9.1986
       226                         -0.3379580              -9.1963
       227                         -0.3376497              -9.1879
       228                         -0.3165816              -8.6146
       229                         -0.3149624              -8.5706
       230                         -0.3101658              -8.4400
       231                         -0.3101447              -8.4395
       232                         -0.3042872              -8.2801
       ...                                ...                  ...
       454                          1.5715541              42.7642
      -------------------------------------------------------------
                  HL-Gap            0.0451459 Eh            1.2285 eV

Wiberg/Mayer (AO) data.
largest (>0.10) Wiberg bond orders for each atom

     #   Z sym  total        # sym  WBO       # sym  WBO       # sym  WBO
 ---------------------------------------------------------------------------
     1  28 Ni   3.012 --    33 N    0.664     7 N    0.664    12 N    0.661
                            34 N    0.661
     2   6 C    3.935 --     3 C    1.364    32 C    1.364    44 H    0.970
     3   6 C    3.922 --     2 C    1.364     7 N    1.213     4 C    1.174
     4   6 C    3.960 --     5 C    1.651     3 C    1.174    45 H    0.975
     5   6 C    3.963 --     4 C    1.651     6 C    1.176    46 H    0.972
     6   6 C    3.919 --     8 C    1.323     7 N    1.222     5 C    1.176
     7   7 N    3.402 --     6 C    1.222     3 C    1.213     1 Ni   0.664
     8   6 C    3.938 --     9 C    1.329     6 C    1.323    35 C    1.023
     9   6 C    3.914 --     8 C    1.329    12 N    1.206    10 C    1.183
    10   6 C    3.958 --    11 C    1.637     9 C    1.183    47 H    0.973
    11   6 C    3.961 --    10 C    1.637    13 C    1.191    48 H    0.973
    12   7 N    3.407 --    13 C    1.239     9 C    1.206     1 Ni   0.661
    13   6 C    3.903 --    14 C    1.263    12 N    1.239    11 C    1.191
    14   6 C    3.945 --    15 C    1.264    13 C    1.263   128 C    1.183
    15   6 C    3.903 --    14 C    1.264    34 N    1.238    16 C    1.191
    16   6 C    3.961 --    17 C    1.636    15 C    1.191    49 H    0.973
    17   6 C    3.959 --    16 C    1.636    18 C    1.184    50 H    0.973
    18   6 C    3.914 --    19 C    1.326    34 N    1.207    17 C    1.184
    19   6 C    3.938 --    18 C    1.326    29 C    1.321    20 C    1.030
    20   6 C    3.987 --    28 C    1.387    21 C    1.384    19 C    1.030
    21   6 C    3.987 --    22 C    1.464    20 C    1.384    51 H    0.972
                            27 C    0.103
    22   6 C    3.990 --    21 C    1.464    23 C    1.385    52 H    0.968
                            28 C    0.103
    23   6 C    3.983 --    27 C    1.389    22 C    1.385    24 C    1.009
    24   6 C    3.836 --    26 O    1.690    25 O    1.088    23 C    1.009
    25   8 O    2.097 --    24 C    1.088    53 H    0.838    26 O    0.129
    26   8 O    1.958 --    24 C    1.690    25 O    0.129
    27   6 C    3.991 --    28 C    1.461    23 C    1.389    54 H    0.970
                            21 C    0.103
    28   6 C    3.988 --    27 C    1.461    20 C    1.387    55 H    0.972
                            22 C    0.103
    29   6 C    3.920 --    19 C    1.321    33 N    1.222    30 C    1.176
    30   6 C    3.963 --    31 C    1.650    29 C    1.176    56 H    0.972
    31   6 C    3.960 --    30 C    1.650    32 C    1.175    57 H    0.975
    32   6 C    3.922 --     2 C    1.364    33 N    1.213    31 C    1.175
    33   7 N    3.402 --    29 C    1.222    32 C    1.213     1 Ni   0.664
    34   7 N    3.406 --    15 C    1.238    18 C    1.207     1 Ni   0.661
    35   6 C    3.986 --    43 C    1.389    36 C    1.388     8 C    1.023
    36   6 C    3.988 --    37 C    1.463    35 C    1.388    58 H    0.972
                            42 C    0.103
    37   6 C    3.990 --    36 C    1.463    38 C    1.386    59 H    0.968
                            43 C    0.103
    38   6 C    3.984 --    42 C    1.389    37 C    1.386    39 C    1.009
    39   6 C    3.836 --    41 O    1.690    40 O    1.088    38 C    1.009
    40   8 O    2.097 --    39 C    1.088    60 H    0.838    41 O    0.129
    41   8 O    1.958 --    39 C    1.690    40 O    0.129
    42   6 C    3.991 --    43 C    1.460    38 C    1.389    61 H    0.970
                            36 C    0.103
    43   6 C    3.988 --    42 C    1.460    35 C    1.389    62 H    0.972
                            37 C    0.103
    44   1 H    1.000 --     2 C    0.970
    45   1 H    0.997 --     4 C    0.975
    46   1 H    1.004 --     5 C    0.972
    47   1 H    1.004 --    10 C    0.973
    48   1 H    1.002 --    11 C    0.973
    49   1 H    1.001 --    16 C    0.973
    50   1 H    1.004 --    17 C    0.973
    51   1 H    1.004 --    21 C    0.972
    52   1 H    1.005 --    22 C    0.968
    53   1 H    0.873 --    25 O    0.838
    54   1 H    1.005 --    27 C    0.970
    55   1 H    1.004 --    28 C    0.972
    56   1 H    1.004 --    30 C    0.972
    57   1 H    0.997 --    31 C    0.975
    58   1 H    1.003 --    36 C    0.972
    59   1 H    1.005 --    37 C    0.968
    60   1 H    0.873 --    40 O    0.838
    61   1 H    1.005 --    42 C    0.970
    62   1 H    1.003 --    43 C    0.972
    63  28 Ni   3.011 --    95 N    0.664    69 N    0.664    74 N    0.661
                            96 N    0.661
    64   6 C    3.935 --    65 C    1.364    94 C    1.364   106 H    0.970
    65   6 C    3.922 --    64 C    1.364    69 N    1.213    66 C    1.174
    66   6 C    3.960 --    67 C    1.651    65 C    1.174   107 H    0.975
    67   6 C    3.963 --    66 C    1.651    68 C    1.176   108 H    0.972
    68   6 C    3.919 --    70 C    1.323    69 N    1.222    67 C    1.176
    69   7 N    3.402 --    68 C    1.222    65 C    1.213    63 Ni   0.664
    70   6 C    3.938 --    71 C    1.329    68 C    1.323    97 C    1.024
    71   6 C    3.914 --    70 C    1.329    74 N    1.206    72 C    1.183
    72   6 C    3.958 --    73 C    1.637    71 C    1.183   109 H    0.973
    73   6 C    3.961 --    72 C    1.637    75 C    1.191   110 H    0.973
    74   7 N    3.407 --    75 C    1.239    71 C    1.206    63 Ni   0.661
    75   6 C    3.903 --    76 C    1.263    74 N    1.239    73 C    1.191
    76   6 C    3.945 --    77 C    1.264    75 C    1.263   130 C    1.183
    77   6 C    3.903 --    76 C    1.264    96 N    1.238    78 C    1.191
    78   6 C    3.961 --    79 C    1.636    77 C    1.191   111 H    0.973
    79   6 C    3.959 --    78 C    1.636    80 C    1.184   112 H    0.973
    80   6 C    3.914 --    81 C    1.326    96 N    1.208    79 C    1.184
    81   6 C    3.938 --    80 C    1.326    91 C    1.321    82 C    1.030
    82   6 C    3.987 --    90 C    1.387    83 C    1.385    81 C    1.030
    83   6 C    3.987 --    84 C    1.464    82 C    1.385   113 H    0.972
                            89 C    0.103
    84   6 C    3.990 --    83 C    1.464    85 C    1.385   114 H    0.968
                            90 C    0.103
    85   6 C    3.983 --    89 C    1.389    84 C    1.385    86 C    1.009
    86   6 C    3.836 --    88 O    1.690    87 O    1.088    85 C    1.009
    87   8 O    2.097 --    86 C    1.088   115 H    0.838    88 O    0.129
    88   8 O    1.958 --    86 C    1.690    87 O    0.129
    89   6 C    3.991 --    90 C    1.461    85 C    1.389   116 H    0.970
                            83 C    0.103
    90   6 C    3.988 --    89 C    1.461    82 C    1.387   117 H    0.972
                            84 C    0.103
    91   6 C    3.920 --    81 C    1.321    95 N    1.222    92 C    1.176
    92   6 C    3.963 --    93 C    1.650    91 C    1.176   118 H    0.972
    93   6 C    3.960 --    92 C    1.650    94 C    1.174   119 H    0.975
    94   6 C    3.922 --    64 C    1.364    95 N    1.213    93 C    1.174
    95   7 N    3.402 --    91 C    1.222    94 C    1.213    63 Ni   0.664
    96   7 N    3.406 --    77 C    1.238    80 C    1.208    63 Ni   0.661
    97   6 C    3.986 --   105 C    1.389    98 C    1.387    70 C    1.024
    98   6 C    3.988 --    99 C    1.463    97 C    1.387   120 H    0.972
                           104 C    0.103
    99   6 C    3.990 --    98 C    1.463   100 C    1.386   121 H    0.968
                           105 C    0.103
   100   6 C    3.984 --   104 C    1.389    99 C    1.386   101 C    1.009
   101   6 C    3.836 --   103 O    1.690   102 O    1.088   100 C    1.009
   102   8 O    2.097 --   101 C    1.088   122 H    0.838   103 O    0.129
   103   8 O    1.959 --   101 C    1.690   102 O    0.129
   104   6 C    3.991 --   105 C    1.460   100 C    1.389   123 H    0.970
                            98 C    0.103
   105   6 C    3.988 --   104 C    1.460    97 C    1.389   124 H    0.972
                            99 C    0.103
   106   1 H    1.000 --    64 C    0.970
   107   1 H    0.997 --    66 C    0.975
   108   1 H    1.004 --    67 C    0.972
   109   1 H    1.004 --    72 C    0.973
   110   1 H    1.002 --    73 C    0.973
   111   1 H    1.001 --    78 C    0.973
   112   1 H    1.004 --    79 C    0.973
   113   1 H    1.004 --    83 C    0.972
   114   1 H    1.005 --    84 C    0.968
   115   1 H    0.873 --    87 O    0.838
   116   1 H    1.005 --    89 C    0.970
   117   1 H    1.004 --    90 C    0.972
   118   1 H    1.004 --    92 C    0.972
   119   1 H    0.997 --    93 C    0.975
   120   1 H    1.003 --    98 C    0.972
   121   1 H    1.005 --    99 C    0.968
   122   1 H    0.873 --   102 O    0.838
   123   1 H    1.005 --   104 C    0.970
   124   1 H    1.003 --   105 C    0.972
   125   6 C    3.928 --   126 C    2.376   129 C    1.330   128 C    0.191
   126   6 C    3.928 --   125 C    2.376   127 C    1.330   130 C    0.191
   127   6 C    3.938 --   128 C    2.458   126 C    1.330
   128   6 C    3.892 --   127 C    2.458    14 C    1.183   125 C    0.191
   129   6 C    3.938 --   130 C    2.458   125 C    1.330
   130   6 C    3.892 --   129 C    2.458    76 C    1.183   126 C    0.191
 ---------------------------------------------------------------------------

           -------------------------------------------------
          | TOTAL ENERGY             -248.257621383707 Eh   |
          | GRADIENT NORM               0.000472554992 Eh/α |
          | HOMO-LUMO GAP               1.228482508659 eV   |
           -------------------------------------------------

 * finished run on 2022/07/30 at 06:32:41.429
