   * xtb version 6.5.1 (b24c23e) compiled by 'conda@728c89f4b128' on 2022-07-12
          program call               : xtb Zn_Ph3Me_C6_2.xyz --gfn 1 --opt -T 48

   ID    Z sym.   atoms
    1   30 Zn     1, 75
    2    6 C      2-6, 8-20, 22-27, 29-42, 76-80, 82-94, 96-101, 103-116,
                  149-154
    3    7 N      7, 21, 28, 43, 81, 95, 102, 117
    4    1 H      44-74, 118-148
########################################################################
[WARNING] Please study the warnings concerning your input carefully
-1- prog_main_parseArguments: Unknown option '-T' provided
########################################################################

          :  Hamiltonian                  GFN1-xTB          :
 * total energy  :  -233.7146537 Eh     change       -0.5408083E-09 Eh
 * total energy  :  -233.8039951 Eh     change       -0.8934142E-01 Eh
 * total energy  :  -233.8476702 Eh     change       -0.4367510E-01 Eh
 * total energy  :  -233.8561264 Eh     change       -0.8456245E-02 Eh
 * total energy  :  -233.8606254 Eh     change       -0.4498975E-02 Eh
 * total energy  :  -233.8629066 Eh     change       -0.2281222E-02 Eh
 * total energy  :  -233.8646923 Eh     change       -0.1785617E-02 Eh
 * total energy  :  -233.8657977 Eh     change       -0.1105393E-02 Eh
 * total energy  :  -233.8665704 Eh     change       -0.7727219E-03 Eh
 * total energy  :  -233.8670385 Eh     change       -0.4681292E-03 Eh
 * total energy  :  -233.8691365 Eh     change       -0.2476782E-04 Eh
 * total energy  :  -233.8691652 Eh     change       -0.2869786E-04 Eh
 * total energy  :  -233.8691876 Eh     change       -0.2238939E-04 Eh
 * total energy  :  -233.8692012 Eh     change       -0.1357752E-04 Eh
 * total energy  :  -233.8692109 Eh     change       -0.9732054E-05 Eh
 * total energy  :  -233.8692206 Eh     change       -0.9689127E-05 Eh
 * total energy  :  -233.8692303 Eh     change       -0.9650651E-05 Eh
 * total energy  :  -233.8692394 Eh     change       -0.9161000E-05 Eh
 * total energy  :  -233.8692423 Eh     change       -0.2841722E-05 Eh
   *** GEOMETRY OPTIMIZATION CONVERGED AFTER 44 ITERATIONS ***

 final structure:
================
154
 xtb: 6.5.1 (b24c23e)
Zn          14.48138490728586        0.07646853773366        0.02353280000476
C           11.06398775433427        0.13140023876786       -0.04066017664416
C           11.69460207941631        1.27152979693363        0.44463179780665
C           11.02569677550573        2.45242963529098        0.91717881555250
C           11.98824979732382        3.32775694239064        1.30257355683981
C           13.25718147370582        2.69176331168907        1.06829305166050
N           13.04427007867243        1.44800831902952        0.54953989235621
C           14.50625879292644        3.26034398474744        1.33285581953614
C           14.51916623654540        4.64097992631353        1.90028143980872
C           14.47911201533129        5.74704625554061        1.04650330036527
C           14.41926375151287        5.54288856708055       -0.44407257785232
C           14.49468301500841        7.02809220294274        1.58536063996489
C           14.54855579425794        7.22368936562077        2.96175754501968
C           14.58655069923772        8.61642209888125        3.53097705678396
C           14.58825606722116        6.11620974945354        3.80229192742565
C           14.57371187291110        4.82621385903044        3.28448214585615
C           14.61869773333209        3.63193396956862        4.20029584953337
C           15.74472308119508        2.65366450326676        1.11406127259768
C           17.01921806200379        3.25627682743807        1.39013511523252
C           17.97125052016430        2.35304475071960        1.04141833057964
N           15.94583723517795        1.39889481885551        0.60332648566716
C           17.28829253673164        1.19219116555410        0.54853650211051
C           17.92340144594262        0.02397500599623        0.07928863932985
C           17.26900704261465       -1.12611625914553       -0.40810252822341
C           17.93221568201629       -2.30756717880682       -0.87867646008942
C           16.96506570533799       -3.18283733894713       -1.25583673563463
C           15.70112730277116       -2.54186954374313       -1.02056729614208
N           15.92343782394716       -1.29287468674279       -0.50458318219348
C           14.45255142385682       -3.11040821106652       -1.28006692270717
C           14.44222696207863       -4.49386117367266       -1.84063595511437
C           14.52034683903601       -4.68817279290131       -3.22315994640220
C           14.61080652320819       -3.49988701489931       -4.14335340317406
C           14.51758286925986       -5.98039374086039       -3.73298628051320
C           14.43869625320050       -7.08292172599712       -2.88649501734542
C           14.43524305116674       -8.47370477134996       -3.46186401895261
C           14.35917283882720       -6.87840982856633       -1.51399656250743
C           14.36031909164860       -5.59321874264893       -0.98240701525057
C           14.27750915152875       -5.37912692366537        0.50566164591924
C           13.21364800646948       -2.50131235597222       -1.06220895539098
C           11.93451784192465       -3.09724095380886       -1.34178032071191
C           10.98702988851091       -2.18960226737314       -0.99583400643886
C           11.67557892573024       -1.02920782212623       -0.50120299337879
N           13.02182135417872       -1.24933470589686       -0.55505222274896
H            9.97869425909029        0.14881641178421       -0.06143564756883
H            9.95510954878884        2.58288123412743        0.94652890392191
H           11.86184488539102        4.31733213997248        1.71264512519801
H           13.49456147512086        5.03117293281075       -0.71848720001379
H           15.25433124556143        4.92326104741433       -0.77613806027650
H           14.45889355115543        6.49632590493941       -0.97009366803437
H           14.46377510818007        7.88652996106579        0.92220297306785
H           14.17819777376077        8.63516224293662        4.54165518419381
H           15.61870522601434        8.97208563533318        3.57448443493477
H           14.01729212763970        9.30623153271743        2.90722330824362
H           14.62970795096735        6.25908721279338        4.87722720991389
H           15.54048107310309        3.06878176029258        4.04055221802873
H           14.57553298062657        3.93956274520435        5.24471649090116
H           13.78016374148396        2.96387798724207        3.99530457583390
H           17.15915649733702        4.24540580020000        1.79636454048988
H           19.04275784297755        2.45569210287285        1.10846104076568
H           19.00174827548053       -2.44216058262725       -0.91241635517755
H           17.08813234636264       -4.17601712946112       -1.65764080163712
H           13.77339500492468       -2.82131615473923       -3.97072125927493
H           14.59940220957920       -3.81301564276275       -5.18695857451974
H           15.53290463111427       -2.94621765493834       -3.95511023355993
H           14.57909914797798       -6.13218015721685       -4.80576992423894
H           15.29711286311433       -8.61735734747255       -4.11575759387845
H           14.46727190850531       -9.22399757134429       -2.67195542851167
H           13.53294665219254       -8.63383671468775       -4.05557300741422
H           14.29739303253338       -7.73115927420637       -0.84568473405132
H           13.38008885038227       -4.81022365362999        0.75673397469677
H           15.14132828364705       -4.81040186062625        0.85523063466989
H           14.24697725618739       -6.33072695800011        1.03555620694440
H           11.79187940111352       -4.08434617439723       -1.75249061651751
H            9.91463355519296       -2.28547626149574       -1.06514147467951
Zn          30.53805254463466       -0.07176520582797       -0.03633162429310
C           33.95550944654266       -0.06720027776962       -0.11898667742625
C           33.32507800520625       -1.22619016198182       -0.55759398233709
C           33.99415845156866       -2.40590831812268       -1.03284401051668
C           33.03170218937262       -3.30426432636435       -1.36128644001804
C           31.76265477951225       -2.68267453602157       -1.09162173978232
N           31.97541163558200       -1.42591164773751       -0.60515786598606
C           30.51358450287209       -3.27569385432954       -1.29563896641399
C           30.50069211627034       -4.66474301113424       -1.84216447108210
C           30.54092179415723       -4.87160712910085       -3.22401551820166
C           30.60094142751093       -3.69220929837662       -4.15808946285944
C           30.52529842212938       -6.16899210886158       -3.72225089318795
C           30.47112844608464       -7.26314442906677       -2.86462622068794
C           30.43301258215556       -8.66213401126345       -3.41828384049984
C           30.43114713904482       -7.04608884447834       -1.49135524582804
C           30.44577430987558       -5.75681988721619       -0.97173758090011
C           30.40021555381959       -5.52925502633996        0.51593647762130
C           29.27503114371279       -2.68607496546412       -1.03469446023923
C           28.00059657024803       -3.31171332063877       -1.25399129657984
C           27.04841721657832       -2.41854324192658       -0.88061690303007
N           29.07373246287080       -1.42719124472153       -0.53426541418040
C           27.73121337188198       -1.23996419895702       -0.43153369642234
C           27.09599646252430       -0.07241823117982        0.03922431669235
C           27.75029820926596        1.09466845975935        0.48452424763710
C           27.08693567505650        2.27262113230373        0.96358687891870
C           28.05396498283557        3.16540032512324        1.29752761917007
C           29.31796852314519        2.54034690391127        1.02306138416966
N           29.09582302104797        1.28201354373627        0.53022000497021
C           30.56647953827591        3.13047593887706        1.22908247530135
C           30.57671299346483        4.51682581047086        1.78242839386098
C           30.49934819018947        5.61425605988914        0.91936315286915
C           30.40991809397875        5.39397097842473       -0.56739033873306
C           30.50189873641625        6.89963195187795        1.44621498511237
C           30.57986191016627        7.10903118348999        2.82041211744041
C           30.58306608735060        8.51089444968877        3.36823085344109
C           30.65878433749529        6.01117409281533        3.66916976017220
C           30.65783780147796        4.71580693854224        3.16288753831524
C           30.74028064627532        3.53100405266945        4.08834762132939
C           31.80541975260169        2.54032212083436        0.96437404543196
C           33.08444297069425        3.16422059961630        1.17484069519832
C           34.03207258991650        2.26966530833707        0.79671069710950
C           33.34370851159580        1.08952617266144        0.35094845801468
N           31.99742849308301        1.28556689401634        0.46420322526662
H           35.04081906999518       -0.06545096253330       -0.14538747921154
H           35.06478906407732       -2.52067889623161       -1.10079802839386
H           33.15825274165997       -4.30244857695124       -1.74988801941327
H           31.52577428676121       -3.13318419414946       -4.00186342237317
H           29.76602907649175       -3.01506210333661       -3.96851782654803
H           30.56110218040048       -4.01586161683481       -5.19778900019305
H           30.55636667683124       -6.32917583236432       -4.79510877904065
H           30.84136606067586       -9.37549064252199       -2.70208260193333
H           29.40082293450698       -8.94880376723658       -3.63308393787390
H           31.00220085150810       -8.72797443571604       -4.34599609377413
H           30.38935407808060       -7.89346726480829       -0.81473242127961
H           29.47823981300720       -5.01246721997499        0.79023383205866
H           30.44329607869454       -6.47436826350597        1.05650617696510
H           31.23852551338130       -4.90518557873077        0.83093713951521
H           27.86082084415743       -4.30652104650672       -1.64616901155692
H           25.97690668143722       -2.53883054027814       -0.90420004309855
H           26.01739442849666        2.39282234546783        1.03276593896442
H           27.93076434517877        4.16004634759922        1.69564353072501
H           31.24704534211093        4.78401128469153       -0.91188952234721
H           30.42269077007866        6.34242101868662       -1.10364940726389
H           29.48753037586684        4.86499832168460       -0.81566551692950
H           30.44089945581254        7.75193025695587        0.77722464594434
H           29.72154546067331        9.06739071987946        2.99523687467311
H           30.55020639338617        8.50532472885870        4.45763853385948
H           31.48566762101046        9.03740412568637        3.05141952966536
H           30.72001299789573        6.16373120176519        4.74182748031619
H           31.63825368214388        2.94721041028332        3.87648761884536
H           29.87698639982366        2.87813708870715        3.94585857389808
H           30.76957079197005        3.85066724771961        5.12960644341229
H           33.22689226534196        4.16111756056832        1.56124741277734
H           35.10444853454801        2.38701419409378        0.81302030257684
C           23.12385555149330       -0.04882480023094        0.09487698190932
C           21.89552147415264       -0.03223670891796        0.10176486557856
C           20.55165574234774       -0.01376670736229        0.10264296048923
C           19.32774456199918        0.00462293253628        0.09529613951392
C           24.46774799351410       -0.05968114237389        0.08263866705148
C           25.69165521356935       -0.06919543351212        0.06410586860505

          :  Hamiltonian                  GFN1-xTB          :
         :: total energy            -233.869242255334 Eh    ::
         :: gradient norm              0.000342789872 Eh/a0 ::
         :: HOMO-LUMO gap              1.089174367448 eV    ::
         :: SCC energy              -237.696945203260 Eh    ::
         :: repulsion energy           3.964575913204 Eh    ::

    * Orbital Energies and Occupations

         #    Occupation            Energy/Eh            Energy/eV
      -------------------------------------------------------------
         1        2.0000           -0.7569600             -20.5979
       ...           ...                  ...                  ...
       205        2.0000           -0.4182259             -11.3805
       206        2.0000           -0.4182186             -11.3803
       207        2.0000           -0.4179489             -11.3730
       208        2.0000           -0.4173419             -11.3565
       209        2.0000           -0.4173344             -11.3562
       210        2.0000           -0.4172382             -11.3536
       211        2.0000           -0.4171813             -11.3521
       212        2.0000           -0.4122635             -11.2183
       213        2.0000           -0.4066785             -11.0663
       214        2.0000           -0.3905177             -10.6265
       215        2.0000           -0.3905175             -10.6265
       216        2.0000           -0.3840323             -10.4501
       217        2.0000           -0.3733198             -10.1585 (HOMO)
       218                         -0.3332934              -9.0694 (LUMO)
       219                         -0.3216672              -8.7530
       220                         -0.3212938              -8.7429
       221                         -0.3212923              -8.7428
       222                         -0.2927554              -7.9663
       223                         -0.2847341              -7.7480
       224                         -0.2784819              -7.5779
       225                         -0.2539805              -6.9112
       226                         -0.2531400              -6.8883
       227                         -0.2531256              -6.8879
       228                         -0.2529787              -6.8839
       ...                                ...                  ...
       492                          1.5862256              43.1634
      -------------------------------------------------------------
                  HL-Gap            0.0400264 Eh            1.0892 eV

Wiberg/Mayer (AO) data.
largest (>0.10) Wiberg bond orders for each atom

     #   Z sym  total        # sym  WBO       # sym  WBO       # sym  WBO
 ---------------------------------------------------------------------------
     1  30 Zn   2.001 --    43 N    0.460     7 N    0.460    21 N    0.457
                            28 N    0.457
     2   6 C    3.926 --     3 C    1.357    42 C    1.356    44 H    0.972
     3   6 C    3.923 --     2 C    1.357     7 N    1.235     4 C    1.171
     4   6 C    3.960 --     5 C    1.659     3 C    1.171    45 H    0.976
     5   6 C    3.964 --     4 C    1.659     6 C    1.171    46 H    0.975
     6   6 C    3.918 --     8 C    1.319     7 N    1.240     5 C    1.171
     7   7 N    3.294 --     6 C    1.240     3 C    1.235     1 Zn   0.460
     8   6 C    3.934 --    18 C    1.330     6 C    1.319     9 C    1.004
     9   6 C    3.987 --    16 C    1.382    10 C    1.381     8 C    1.004
                            13 C    0.104
    10   6 C    3.984 --    12 C    1.421     9 C    1.381    11 C    1.020
                            15 C    0.103
    11   6 C    3.995 --    10 C    1.020    49 H    0.986    48 H    0.975
                            47 H    0.973
    12   6 C    3.993 --    10 C    1.421    13 C    1.413    50 H    0.970
                            16 C    0.103
    13   6 C    3.988 --    15 C    1.415    12 C    1.413    14 C    1.020
                             9 C    0.104
    14   6 C    3.996 --    13 C    1.020    51 H    0.984    53 H    0.982
                            52 H    0.971
    15   6 C    3.993 --    16 C    1.420    13 C    1.415    54 H    0.970
                            10 C    0.103
    16   6 C    3.984 --    15 C    1.420     9 C    1.382    17 C    1.020
                            12 C    0.103
    17   6 C    3.995 --    16 C    1.020    56 H    0.986    57 H    0.975
                            55 H    0.973
    18   6 C    3.913 --     8 C    1.330    21 N    1.221    19 C    1.178
    19   6 C    3.960 --    20 C    1.647    18 C    1.178    58 H    0.975
    20   6 C    3.962 --    19 C    1.647    22 C    1.186    59 H    0.974
    21   7 N    3.298 --    22 C    1.265    18 C    1.221     1 Zn   0.457
    22   6 C    3.902 --    21 N    1.265    23 C    1.252    20 C    1.186
    23   6 C    3.938 --    22 C    1.252    24 C    1.252   152 C    1.194
    24   6 C    3.902 --    28 N    1.265    23 C    1.252    25 C    1.186
    25   6 C    3.962 --    26 C    1.647    24 C    1.186    60 H    0.974
    26   6 C    3.960 --    25 C    1.647    27 C    1.178    61 H    0.975
    27   6 C    3.913 --    29 C    1.330    28 N    1.221    26 C    1.178
    28   7 N    3.297 --    24 C    1.265    27 C    1.221     1 Zn   0.457
    29   6 C    3.934 --    27 C    1.330    39 C    1.319    30 C    1.004
    30   6 C    3.987 --    37 C    1.385    31 C    1.378    29 C    1.004
                            34 C    0.104
    31   6 C    3.984 --    33 C    1.425    30 C    1.378    32 C    1.020
                            36 C    0.102
    32   6 C    3.995 --    31 C    1.020    63 H    0.986    62 H    0.975
                            64 H    0.973
    33   6 C    3.993 --    31 C    1.425    34 C    1.409    65 H    0.971
                            37 C    0.104
    34   6 C    3.988 --    36 C    1.419    33 C    1.409    35 C    1.020
                            30 C    0.104
    35   6 C    3.996 --    34 C    1.020    67 H    0.986    66 H    0.977
                            68 H    0.974
    36   6 C    3.993 --    34 C    1.419    37 C    1.416    69 H    0.970
                            31 C    0.102
    37   6 C    3.984 --    36 C    1.416    30 C    1.385    38 C    1.020
                            33 C    0.104
    38   6 C    3.995 --    37 C    1.020    72 H    0.986    71 H    0.974
                            70 H    0.974
    39   6 C    3.918 --    29 C    1.319    43 N    1.240    40 C    1.171
    40   6 C    3.964 --    41 C    1.659    39 C    1.171    73 H    0.975
    41   6 C    3.960 --    40 C    1.659    42 C    1.171    74 H    0.976
    42   6 C    3.923 --     2 C    1.356    43 N    1.235    41 C    1.171
    43   7 N    3.294 --    39 C    1.240    42 C    1.235     1 Zn   0.460
    44   1 H    1.002 --     2 C    0.972
    45   1 H    0.998 --     4 C    0.976
    46   1 H    1.002 --     5 C    0.975
    47   1 H    1.008 --    11 C    0.973
    48   1 H    1.008 --    11 C    0.975
    49   1 H    1.004 --    11 C    0.986
    50   1 H    1.000 --    12 C    0.970
    51   1 H    1.004 --    14 C    0.984
    52   1 H    1.006 --    14 C    0.971
    53   1 H    1.005 --    14 C    0.982
    54   1 H    1.000 --    15 C    0.970
    55   1 H    1.008 --    17 C    0.973
    56   1 H    1.004 --    17 C    0.986
    57   1 H    1.008 --    17 C    0.975
    58   1 H    1.002 --    19 C    0.975
    59   1 H    1.002 --    20 C    0.974
    60   1 H    1.002 --    25 C    0.974
    61   1 H    1.002 --    26 C    0.975
    62   1 H    1.008 --    32 C    0.975
    63   1 H    1.004 --    32 C    0.986
    64   1 H    1.008 --    32 C    0.973
    65   1 H    0.999 --    33 C    0.971
    66   1 H    1.005 --    35 C    0.977
    67   1 H    1.004 --    35 C    0.986
    68   1 H    1.006 --    35 C    0.974
    69   1 H    1.000 --    36 C    0.970
    70   1 H    1.008 --    38 C    0.974
    71   1 H    1.008 --    38 C    0.974
    72   1 H    1.004 --    38 C    0.986
    73   1 H    1.002 --    40 C    0.975
    74   1 H    0.998 --    41 C    0.976
    75  30 Zn   2.001 --   117 N    0.461    81 N    0.460    95 N    0.457
                           102 N    0.456
    76   6 C    3.926 --    77 C    1.357   116 C    1.356   118 H    0.972
    77   6 C    3.923 --    76 C    1.357    81 N    1.235    78 C    1.171
    78   6 C    3.960 --    79 C    1.659    77 C    1.171   119 H    0.976
    79   6 C    3.964 --    78 C    1.659    80 C    1.171   120 H    0.975
    80   6 C    3.918 --    82 C    1.319    81 N    1.240    79 C    1.171
    81   7 N    3.294 --    80 C    1.240    77 C    1.235    75 Zn   0.460
    82   6 C    3.934 --    92 C    1.330    80 C    1.319    83 C    1.004
    83   6 C    3.987 --    90 C    1.382    84 C    1.381    82 C    1.004
                            87 C    0.104
    84   6 C    3.984 --    86 C    1.421    83 C    1.381    85 C    1.020
                            89 C    0.103
    85   6 C    3.995 --    84 C    1.020   123 H    0.986   122 H    0.975
                           121 H    0.973
    86   6 C    3.993 --    84 C    1.421    87 C    1.413   124 H    0.970
                            90 C    0.103
    87   6 C    3.988 --    89 C    1.415    86 C    1.413    88 C    1.020
                            83 C    0.104
    88   6 C    3.996 --    87 C    1.020   125 H    0.983   127 H    0.982
                           126 H    0.971
    89   6 C    3.993 --    90 C    1.420    87 C    1.415   128 H    0.970
                            84 C    0.103
    90   6 C    3.984 --    89 C    1.420    83 C    1.382    91 C    1.020
                            86 C    0.103
    91   6 C    3.995 --    90 C    1.020   130 H    0.986   131 H    0.975
                           129 H    0.973
    92   6 C    3.913 --    82 C    1.330    95 N    1.221    93 C    1.178
    93   6 C    3.960 --    94 C    1.647    92 C    1.178   132 H    0.975
    94   6 C    3.962 --    93 C    1.647    96 C    1.186   133 H    0.974
    95   7 N    3.298 --    96 C    1.265    92 C    1.221    75 Zn   0.457
    96   6 C    3.902 --    95 N    1.265    97 C    1.252    94 C    1.186
    97   6 C    3.938 --    96 C    1.252    98 C    1.252   154 C    1.194
    98   6 C    3.902 --   102 N    1.265    97 C    1.252    99 C    1.186
    99   6 C    3.962 --   100 C    1.647    98 C    1.186   134 H    0.974
   100   6 C    3.960 --    99 C    1.647   101 C    1.178   135 H    0.975
   101   6 C    3.913 --   103 C    1.330   102 N    1.221   100 C    1.178
   102   7 N    3.297 --    98 C    1.265   101 C    1.221    75 Zn   0.456
   103   6 C    3.934 --   101 C    1.330   113 C    1.319   104 C    1.004
   104   6 C    3.987 --   111 C    1.385   105 C    1.378   103 C    1.004
                           108 C    0.104
   105   6 C    3.984 --   107 C    1.425   104 C    1.378   106 C    1.020
                           110 C    0.102
   106   6 C    3.995 --   105 C    1.020   137 H    0.986   136 H    0.975
                           138 H    0.973
   107   6 C    3.993 --   105 C    1.425   108 C    1.409   139 H    0.971
                           111 C    0.104
   108   6 C    3.988 --   110 C    1.419   107 C    1.409   109 C    1.020
                           104 C    0.104
   109   6 C    3.996 --   108 C    1.020   141 H    0.986   140 H    0.977
                           142 H    0.974
   110   6 C    3.993 --   108 C    1.419   111 C    1.416   143 H    0.970
                           105 C    0.102
   111   6 C    3.984 --   110 C    1.416   104 C    1.385   112 C    1.020
                           107 C    0.104
   112   6 C    3.995 --   111 C    1.020   146 H    0.986   145 H    0.974
                           144 H    0.974
   113   6 C    3.918 --   103 C    1.319   117 N    1.240   114 C    1.171
   114   6 C    3.964 --   115 C    1.659   113 C    1.171   147 H    0.975
   115   6 C    3.960 --   114 C    1.659   116 C    1.171   148 H    0.976
   116   6 C    3.923 --    76 C    1.356   117 N    1.235   115 C    1.171
   117   7 N    3.294 --   113 C    1.240   116 C    1.235    75 Zn   0.461
   118   1 H    1.002 --    76 C    0.972
   119   1 H    0.998 --    78 C    0.976
   120   1 H    1.002 --    79 C    0.975
   121   1 H    1.008 --    85 C    0.973
   122   1 H    1.008 --    85 C    0.975
   123   1 H    1.004 --    85 C    0.986
   124   1 H    1.000 --    86 C    0.970
   125   1 H    1.004 --    88 C    0.983
   126   1 H    1.006 --    88 C    0.971
   127   1 H    1.005 --    88 C    0.982
   128   1 H    1.000 --    89 C    0.970
   129   1 H    1.008 --    91 C    0.973
   130   1 H    1.004 --    91 C    0.986
   131   1 H    1.008 --    91 C    0.975
   132   1 H    1.002 --    93 C    0.975
   133   1 H    1.002 --    94 C    0.974
   134   1 H    1.002 --    99 C    0.974
   135   1 H    1.002 --   100 C    0.975
   136   1 H    1.008 --   106 C    0.975
   137   1 H    1.004 --   106 C    0.986
   138   1 H    1.008 --   106 C    0.973
   139   1 H    0.999 --   107 C    0.971
   140   1 H    1.005 --   109 C    0.977
   141   1 H    1.004 --   109 C    0.986
   142   1 H    1.006 --   109 C    0.974
   143   1 H    1.000 --   110 C    0.970
   144   1 H    1.008 --   112 C    0.974
   145   1 H    1.008 --   112 C    0.974
   146   1 H    1.004 --   112 C    0.986
   147   1 H    1.002 --   114 C    0.975
   148   1 H    0.998 --   115 C    0.976
   149   6 C    3.925 --   150 C    2.366   153 C    1.336   152 C    0.190
   150   6 C    3.925 --   149 C    2.366   151 C    1.336   154 C    0.190
   151   6 C    3.933 --   152 C    2.446   150 C    1.336
   152   6 C    3.890 --   151 C    2.446    23 C    1.194   149 C    0.190
   153   6 C    3.933 --   154 C    2.446   149 C    1.336
   154   6 C    3.890 --   153 C    2.446    97 C    1.194   150 C    0.190
 ---------------------------------------------------------------------------

           -------------------------------------------------
          | TOTAL ENERGY             -233.869242255334 Eh   |
          | GRADIENT NORM               0.000342789872 Eh/α |
          | HOMO-LUMO GAP               1.089174367448 eV   |
           -------------------------------------------------

 * finished run on 2022/07/30 at 10:23:36.896
