   * xtb version 6.5.1 (b24c23e) compiled by 'conda@728c89f4b128' on 2022-07-12
          program call               : xtb Co_DHP_C6_2.xyz --gfn 1 --opt -T 48

   ID    Z sym.   atoms
    1   27 Co     1, 59
    2    6 C      2-6, 8-11, 13-17, 19-24, 26-29, 31-36, 60-64, 66-69, 71-75,
                  77-82, 84-87, 89-94, 117-122
    3    7 N      7, 12, 18, 25, 30, 37, 65, 70, 76, 83, 88, 95
    4    1 H      38-58, 96-116
########################################################################
[WARNING] Please study the warnings concerning your input carefully
-1- prog_main_parseArguments: Unknown option '-T' provided
########################################################################

          :  Hamiltonian                  GFN1-xTB          :
 * total energy  :  -204.8821214 Eh     change       -0.1608015E-08 Eh
 * total energy  :  -206.8110551 Eh     change       -0.1928934E+01 Eh
 * total energy  :  -207.0221354 Eh     change       -0.2110803E+00 Eh
 * total energy  :  -207.1101593 Eh     change       -0.8802387E-01 Eh
 * total energy  :  -207.1649562 Eh     change       -0.5479695E-01 Eh
 * total energy  :  -207.1908169 Eh     change       -0.2586065E-01 Eh
 * total energy  :  -207.2084723 Eh     change       -0.1765541E-01 Eh
 * total energy  :  -207.2210156 Eh     change       -0.1254334E-01 Eh
 * total energy  :  -207.2299190 Eh     change       -0.8903332E-02 Eh
 * total energy  :  -207.2366212 Eh     change       -0.6702251E-02 Eh
 * total energy  :  -207.2584630 Eh     change       -0.6807465E-04 Eh
 * total energy  :  -207.2585285 Eh     change       -0.6554853E-04 Eh
 * total energy  :  -207.2585747 Eh     change       -0.4622971E-04 Eh
 * total energy  :  -207.2586074 Eh     change       -0.3266039E-04 Eh
 * total energy  :  -207.2586218 Eh     change       -0.1437564E-04 Eh
 * total energy  :  -207.2586306 Eh     change       -0.8858675E-05 Eh
 * total energy  :  -207.2586390 Eh     change       -0.8400855E-05 Eh
 * total energy  :  -207.2586454 Eh     change       -0.6387819E-05 Eh
 * total energy  :  -207.2586486 Eh     change       -0.3193944E-05 Eh
   *** GEOMETRY OPTIMIZATION CONVERGED AFTER 44 ITERATIONS ***

 final structure:
================
122
 xtb: 6.5.1 (b24c23e)
Co          12.66907133878479       -0.03616631246316       -0.01060320012402
C            9.29842410711657       -0.05622064832699       -0.14954335496119
C            9.95279470441797       -1.24655502920861        0.08558052052619
C            9.28779249401016       -2.49375704557538        0.31059377751930
C           10.24608577165428       -3.45040688751866        0.30717554552862
C           11.49408302643044       -2.78685056557421        0.06516777691440
N           11.31028882054178       -1.42895855872380        0.00015769783219
C           12.69163305065604       -3.44192362896916       -0.18947100936123
C           12.70258804007601       -4.91938007023941       -0.28425713186826
C           11.95221170516539       -5.56959271473691       -1.18868958799711
C           11.93507422920871       -7.07014488355433       -1.30386194867778
N           13.04687814970569       -7.67395142563598       -0.56740430859627
C           13.66998890815584       -7.00694480162558        0.45019231449874
C           13.56306356725434       -5.67453391689879        0.61195885506109
C           13.87986488287113       -2.74783654181145       -0.36687260973203
C           15.13164078754798       -3.36620747295277       -0.68449880283962
C           16.07761290624422       -2.39973263258937       -0.60148456101421
N           14.05097776333290       -1.39867796396646       -0.15825180809224
C           15.40007808791786       -1.19413559348177       -0.24298574173434
C           16.05955777594212       -0.01452830461989        0.10967055185059
C           15.36202489896731        1.15488655528667        0.41965117813542
C           15.99694490965657        2.36738971263022        0.82907327243588
C           15.03450117657540        3.32093887659372        0.85079846694215
C           13.81637804679995        2.68810572658897        0.44318559903785
N           14.01939728289594        1.34219542863955        0.24206890604086
C           12.63632362500170        3.36868099855110        0.18000094342798
C           12.62191062906360        4.84614662465253        0.27746601274282
C           11.80084517270938        5.48523462073989        1.12651699866703
C           11.75458064392525        6.98514099483034        1.24161354830342
N           12.89561262876211        7.60837633633252        0.56877300979477
C           13.60038192728734        6.94831524901420       -0.39822386582284
C           13.53083022100915        5.61319188802824       -0.55853517899032
C           11.47031076558872        2.70111472263970       -0.17032179081807
C           10.23810068436419        3.35134582792260       -0.50983429016876
C            9.29575521358796        2.38315351431378       -0.59944733185441
C            9.95543756251416        1.14255129502613       -0.32689995383908
N           11.29880675555459        1.34082847834496       -0.12797163790544
H            8.21568018256454       -0.06293892328706       -0.19525518654391
H            8.22329786013146       -2.60346005138952        0.44534769702443
H           10.13168048819007       -4.51250694061580        0.45225876595058
H           11.30852680888414       -5.03983395242200       -1.88117265960782
H           12.01965638551719       -7.37053589522793       -2.35765007550895
H           10.97460139347316       -7.46989889799067       -0.92876127725942
H           13.00412488242481       -8.67965532199731       -0.49670117890129
H           14.31465710313161       -7.62184299736726        1.07000236173707
H           14.09881388193232       -5.15948536757300        1.39653674192287
H           15.25939187740977       -4.40756684483113       -0.93194590686688
H           17.14145031047604       -2.48142453768253       -0.75652039915756
H           17.04637263103432        2.46135595298029        1.05810971628162
H           15.13018789179317        4.36266833722612        1.11095351405745
H           11.11695813168966        4.94604802022918        1.77156717766949
H           11.77506210877302        7.28506005467979        2.29887129351389
H           10.81058292782341        7.37067016365491        0.81396931646025
H           12.83770643289257        8.61260994282844        0.48932289379156
H           14.27335719080094        7.57283293736638       -0.97696241060438
H           14.12937921374734        5.10506016852868       -1.30106056949671
H           10.12239888597483        4.41311507304348       -0.65635768986687
H            8.24476359613965        2.48091863871980       -0.82130629097099
Co          28.62111953986887        0.03720518705717       -0.00325357943678
C           31.99187781315161        0.08471297948279       -0.13134352599235
C           31.33766813622553        1.19718444355418        0.35321360363467
C           32.00284380857013        2.36667728069213        0.84127946644376
C           31.04490955526414        3.30240587670437        1.04203304080308
C           29.79695644402729        2.70695790530521        0.66201020255086
N           29.98034566226665        1.39451398365436        0.30742447337610
C           28.59983309144062        3.40197386550315        0.55274691300214
C           28.58925599548120        4.86531567756159        0.77749632363200
C           29.34056804957690        5.69442687925391        0.03456212064455
C           29.35806778031374        7.18466975246153        0.24458406845158
N           28.24568143718492        7.61648893445370        1.09262752365023
C           27.62151040142723        6.74663139559964        1.94255871577479
C           27.72810349941207        5.41054599539393        1.81432598757000
C           27.41159879976670        2.76261495239644        0.22954518397685
C           26.16026285203437        3.43529428621786        0.05096069565488
C           25.21390786510206        2.47394159829981       -0.07567874796646
N           27.23990325322466        1.40018125641174        0.14393489047406
C           25.89078508218776        1.21919422207948        0.01642319030647
C           25.23060369598792       -0.00819765905806        0.10768650719410
C           25.92748130699797       -1.21728337039303        0.15998312683902
C           25.29196689326177       -2.48911600632044        0.29953640649202
C           26.25405108619443       -3.42553735907059        0.11634504042126
C           27.47257160217315       -2.72050787270269       -0.14552708046528
N           27.27011006360573       -1.36271761341022       -0.05311613374149
C           28.65254803539634       -3.32913471445792       -0.54828144780511
C           28.66652709717674       -4.79310012693874       -0.77003993602292
C           29.48731382583179       -5.59960767713684       -0.07769706285881
C           29.53307566632575       -7.08934286626348       -0.28668629405107
N           28.39217463774372       -7.55349450386377       -1.07789484572014
C           27.68762010937918       -6.70122626754463       -1.88082704771868
C           27.75745990613096       -5.36280095220854       -1.75107286893921
C           29.81895396942798       -2.60236936508441       -0.74648576622086
C           31.05119078663689       -3.16505077476690       -1.21701877951339
C           31.99402787702322       -2.20082725788375       -1.09544872846927
C           31.33460395534832       -1.04749834376564       -0.56295766880527
N           29.99096243220431       -1.28310856175180       -0.41249463973405
H           33.07467836184765        0.10040402365021       -0.17336094880436
H           33.06721548469231        2.44426744166674        0.99761241792069
H           31.15956884144027        4.30862167194496        1.41160165980973
H           29.98477955548233        5.32564683147844       -0.75505583414154
H           29.27451136017437        7.70454917838726       -0.72009614422113
H           30.31825653374791        7.49412835176861        0.69767578992849
H           28.28835103205973        8.58354280404604        1.37766177274565
H           26.97639707765232        7.21418926428544        2.67949581186832
H           27.19158775906307        4.73912220203926        2.46945908250479
H           26.03307237526012        4.50555465805258        0.03233742680174
H           24.15019942516861        2.58741122047085       -0.21029109478387
H           24.24242607963576       -2.62964629082523        0.50274378500054
H           26.15782594056250       -4.49878102661773        0.14679305946752
H           30.17128584949182       -5.21142884497318        0.66796927847693
H           29.51203095038559       -7.60883145051020        0.68175025074633
H           30.47715466997396       -7.37464559099414       -0.78663822614533
H           28.44998234364326       -8.51730011003466       -1.37095673718951
H           27.01457511571606       -7.18694638904555       -2.58007303336987
H           27.15906791661687       -4.70711692256072       -2.36736089725056
H           31.16654520753462       -4.17048395564454       -1.58851197362298
H           33.04517999796490       -2.24921430398627       -1.33229378220877
C           21.25910452127862       -0.02652876596033        0.18020535491636
C           20.03101146981534       -0.01585686361450        0.18262529718774
C           18.68636299530691       -0.01343439767183        0.17007199222816
C           17.46292909201366       -0.00573098232514        0.14879846266553
C           22.60374159633949       -0.02523380119599        0.16664891840909
C           23.82722998767793       -0.02453354180322        0.14392728915781

          :  Hamiltonian                  GFN1-xTB          :
         :: total energy            -207.258648614292 Eh    ::
         :: gradient norm              0.000504487868 Eh/a0 ::
         :: HOMO-LUMO gap              0.000005633663 eV    ::
         :: SCC energy              -210.519486975920 Eh    ::
         :: repulsion energy           3.366213643102 Eh    ::

    * Orbital Energies and Occupations

         #    Occupation            Energy/Eh            Energy/eV
      -------------------------------------------------------------
         1        2.0000           -0.7863832             -21.3986
       ...           ...                  ...                  ...
       180        2.0000           -0.3846338             -10.4664
       181        2.0000           -0.3806940             -10.3592
       182        2.0000           -0.3806906             -10.3591
       183        1.9999           -0.3778103             -10.2807
       184        1.9999           -0.3777829             -10.2800
       185        1.9999           -0.3777165             -10.2782
       186        1.9999           -0.3777159             -10.2782
       187        1.9995           -0.3763226             -10.2403
       188        1.9809           -0.3729129             -10.1475
       189        1.9809           -0.3729122             -10.1475
       190        1.9462           -0.3719105             -10.1202
       191        1.7623           -0.3704049             -10.0792
       192        1.1654           -0.3688187             -10.0361 (HOMO)
       193        1.1653           -0.3688185             -10.0361 (LUMO)
       194                         -0.3267127              -8.8903
       195                         -0.3159506              -8.5975
       196                         -0.3159489              -8.5974
       197                         -0.3152134              -8.5774
       198                         -0.2894181              -7.8755
       199                         -0.2837351              -7.7208
       200                         -0.2791690              -7.5966
       201                         -0.2791060              -7.5949
       202                         -0.2742912              -7.4638
       203                         -0.2682080              -7.2983
       ...                                ...                  ...
       414                          1.5892200              43.2449
      -------------------------------------------------------------
                  HL-Gap            0.0000002 Eh            0.0000 eV

Wiberg/Mayer (AO) data.
largest (>0.10) Wiberg bond orders for each atom

     #   Z sym  total        # sym  WBO       # sym  WBO       # sym  WBO
 ---------------------------------------------------------------------------
     1  27 Co   3.029 --     7 N    0.635    37 N    0.634    25 N    0.631
                            18 N    0.631
     2   6 C    3.932 --    36 C    1.365     3 C    1.365    38 H    0.970
     3   6 C    3.927 --     2 C    1.365     7 N    1.202     4 C    1.175
     4   6 C    3.960 --     5 C    1.647     3 C    1.175    39 H    0.975
     5   6 C    3.964 --     4 C    1.647     6 C    1.177    40 H    0.974
     6   6 C    3.923 --     8 C    1.320     7 N    1.213     5 C    1.177
     7   7 N    3.344 --     6 C    1.213     3 C    1.202     1 Co   0.635
     8   6 C    3.938 --    15 C    1.328     6 C    1.320     9 C    1.029
     9   6 C    3.983 --    10 C    1.752    14 C    1.105     8 C    1.029
    10   6 C    3.947 --     9 C    1.752    11 C    1.015    41 H    0.971
    11   6 C    3.957 --    10 C    1.015    42 H    0.974    43 H    0.964
                            12 N    0.947
    12   7 N    3.244 --    13 C    1.172    11 C    0.947    44 H    0.926
                            14 C    0.120
    13   6 C    3.948 --    14 C    1.674    12 N    1.172    45 H    0.970
    14   6 C    3.945 --    13 C    1.674     9 C    1.105    46 H    0.973
                            12 N    0.120
    15   6 C    3.917 --     8 C    1.328    18 N    1.197    16 C    1.183
    16   6 C    3.959 --    17 C    1.637    15 C    1.183    47 H    0.973
    17   6 C    3.962 --    16 C    1.637    19 C    1.190    48 H    0.974
    18   7 N    3.349 --    19 C    1.228    15 C    1.197     1 Co   0.631
    19   6 C    3.905 --    20 C    1.262    18 N    1.228    17 C    1.190
    20   6 C    3.940 --    21 C    1.263    19 C    1.262   120 C    1.187
    21   6 C    3.905 --    20 C    1.263    25 N    1.229    22 C    1.190
    22   6 C    3.962 --    23 C    1.637    21 C    1.190    49 H    0.974
    23   6 C    3.959 --    22 C    1.637    24 C    1.183    50 H    0.973
    24   6 C    3.917 --    26 C    1.328    25 N    1.197    23 C    1.183
    25   7 N    3.349 --    21 C    1.229    24 C    1.197     1 Co   0.631
    26   6 C    3.938 --    24 C    1.328    33 C    1.320    27 C    1.028
    27   6 C    3.983 --    28 C    1.752    32 C    1.106    26 C    1.028
    28   6 C    3.947 --    27 C    1.752    29 C    1.015    51 H    0.971
    29   6 C    3.957 --    28 C    1.015    52 H    0.973    53 H    0.964
                            30 N    0.947
    30   7 N    3.245 --    31 C    1.173    29 C    0.947    54 H    0.926
                            32 C    0.121
    31   6 C    3.947 --    32 C    1.673    30 N    1.173    55 H    0.970
    32   6 C    3.944 --    31 C    1.673    27 C    1.106    56 H    0.973
                            30 N    0.121
    33   6 C    3.923 --    26 C    1.320    37 N    1.213    34 C    1.176
    34   6 C    3.964 --    35 C    1.647    33 C    1.176    57 H    0.974
    35   6 C    3.960 --    34 C    1.647    36 C    1.175    58 H    0.975
    36   6 C    3.927 --     2 C    1.365    37 N    1.202    35 C    1.175
    37   7 N    3.344 --    33 C    1.213    36 C    1.202     1 Co   0.634
    38   1 H    1.000 --     2 C    0.970
    39   1 H    0.998 --     4 C    0.975
    40   1 H    1.006 --     5 C    0.974
    41   1 H    1.004 --    10 C    0.971
    42   1 H    1.015 --    11 C    0.974
    43   1 H    1.003 --    11 C    0.964
    44   1 H    0.961 --    12 N    0.926
    45   1 H    1.001 --    13 C    0.970
    46   1 H    1.003 --    14 C    0.973
    47   1 H    1.005 --    16 C    0.973
    48   1 H    1.002 --    17 C    0.974
    49   1 H    1.002 --    22 C    0.974
    50   1 H    1.005 --    23 C    0.973
    51   1 H    1.004 --    28 C    0.971
    52   1 H    1.014 --    29 C    0.973
    53   1 H    1.003 --    29 C    0.964
    54   1 H    0.961 --    30 N    0.926
    55   1 H    1.001 --    31 C    0.970
    56   1 H    1.003 --    32 C    0.973
    57   1 H    1.006 --    34 C    0.974
    58   1 H    0.998 --    35 C    0.975
    59  27 Co   3.029 --    65 N    0.635    95 N    0.634    76 N    0.631
                            83 N    0.631
    60   6 C    3.932 --    94 C    1.365    61 C    1.365    96 H    0.970
    61   6 C    3.927 --    60 C    1.365    65 N    1.202    62 C    1.175
    62   6 C    3.960 --    63 C    1.647    61 C    1.175    97 H    0.975
    63   6 C    3.964 --    62 C    1.647    64 C    1.177    98 H    0.974
    64   6 C    3.923 --    66 C    1.320    65 N    1.213    63 C    1.177
    65   7 N    3.344 --    64 C    1.213    61 C    1.202    59 Co   0.635
    66   6 C    3.938 --    73 C    1.328    64 C    1.320    67 C    1.029
    67   6 C    3.983 --    68 C    1.752    72 C    1.105    66 C    1.029
    68   6 C    3.947 --    67 C    1.752    69 C    1.015    99 H    0.971
    69   6 C    3.957 --    68 C    1.015   100 H    0.974   101 H    0.964
                            70 N    0.947
    70   7 N    3.244 --    71 C    1.172    69 C    0.947   102 H    0.926
                            72 C    0.120
    71   6 C    3.948 --    72 C    1.674    70 N    1.172   103 H    0.970
    72   6 C    3.945 --    71 C    1.674    67 C    1.105   104 H    0.973
                            70 N    0.120
    73   6 C    3.917 --    66 C    1.328    76 N    1.197    74 C    1.183
    74   6 C    3.959 --    75 C    1.637    73 C    1.183   105 H    0.973
    75   6 C    3.962 --    74 C    1.637    77 C    1.190   106 H    0.974
    76   7 N    3.349 --    77 C    1.228    73 C    1.197    59 Co   0.631
    77   6 C    3.905 --    78 C    1.262    76 N    1.228    75 C    1.190
    78   6 C    3.940 --    79 C    1.263    77 C    1.262   122 C    1.187
    79   6 C    3.905 --    78 C    1.263    83 N    1.229    80 C    1.190
    80   6 C    3.962 --    81 C    1.636    79 C    1.190   107 H    0.974
    81   6 C    3.959 --    80 C    1.636    82 C    1.183   108 H    0.973
    82   6 C    3.917 --    84 C    1.328    83 N    1.197    81 C    1.183
    83   7 N    3.349 --    79 C    1.229    82 C    1.197    59 Co   0.631
    84   6 C    3.938 --    82 C    1.328    91 C    1.320    85 C    1.028
    85   6 C    3.983 --    86 C    1.752    90 C    1.106    84 C    1.028
    86   6 C    3.947 --    85 C    1.752    87 C    1.015   109 H    0.971
    87   6 C    3.957 --    86 C    1.015   110 H    0.973   111 H    0.964
                            88 N    0.947
    88   7 N    3.245 --    89 C    1.173    87 C    0.947   112 H    0.926
                            90 C    0.121
    89   6 C    3.947 --    90 C    1.673    88 N    1.173   113 H    0.970
    90   6 C    3.944 --    89 C    1.673    85 C    1.106   114 H    0.973
                            88 N    0.121
    91   6 C    3.923 --    84 C    1.320    95 N    1.213    92 C    1.176
    92   6 C    3.964 --    93 C    1.647    91 C    1.176   115 H    0.974
    93   6 C    3.960 --    92 C    1.647    94 C    1.175   116 H    0.975
    94   6 C    3.927 --    60 C    1.365    95 N    1.202    93 C    1.175
    95   7 N    3.344 --    91 C    1.213    94 C    1.202    59 Co   0.634
    96   1 H    1.000 --    60 C    0.970
    97   1 H    0.998 --    62 C    0.975
    98   1 H    1.006 --    63 C    0.974
    99   1 H    1.004 --    68 C    0.971
   100   1 H    1.015 --    69 C    0.974
   101   1 H    1.003 --    69 C    0.964
   102   1 H    0.961 --    70 N    0.926
   103   1 H    1.001 --    71 C    0.970
   104   1 H    1.003 --    72 C    0.973
   105   1 H    1.005 --    74 C    0.973
   106   1 H    1.002 --    75 C    0.974
   107   1 H    1.002 --    80 C    0.974
   108   1 H    1.005 --    81 C    0.973
   109   1 H    1.004 --    86 C    0.971
   110   1 H    1.014 --    87 C    0.973
   111   1 H    1.003 --    87 C    0.964
   112   1 H    0.961 --    88 N    0.926
   113   1 H    1.001 --    89 C    0.970
   114   1 H    1.003 --    90 C    0.973
   115   1 H    1.006 --    92 C    0.974
   116   1 H    0.998 --    93 C    0.975
   117   6 C    3.926 --   118 C    2.371   121 C    1.333   120 C    0.191
   118   6 C    3.926 --   117 C    2.371   119 C    1.333   122 C    0.191
   119   6 C    3.936 --   120 C    2.453   118 C    1.333
   120   6 C    3.889 --   119 C    2.453    20 C    1.187   117 C    0.191
   121   6 C    3.936 --   122 C    2.452   117 C    1.333
   122   6 C    3.889 --   121 C    2.452    78 C    1.187   118 C    0.191
 ---------------------------------------------------------------------------

           -------------------------------------------------
          | TOTAL ENERGY             -207.258648614292 Eh   |
          | GRADIENT NORM               0.000504487868 Eh/α |
          | HOMO-LUMO GAP               0.000005633663 eV   |
           -------------------------------------------------

 * finished run on 2022/07/30 at 00:51:39.339
