   * xtb version 6.5.1 (b24c23e) compiled by 'conda@728c89f4b128' on 2022-07-12
          program call               : xtb Ni_Ph_C4_2.xyz --gfn 1 --opt -T 48

   ID    Z sym.   atoms
    1   28 Ni     1, 57
    2    6 C      2-6, 8-11, 13-29, 32-37, 58-62, 64-67, 69-85, 88-93, 113-116
    3    7 N      7, 12, 30, 31, 63, 68, 86, 87
    4    1 H      38-56, 94-112
########################################################################
[WARNING] Please study the warnings concerning your input carefully
-1- prog_main_parseArguments: Unknown option '-T' provided
########################################################################

          :  Hamiltonian                  GFN1-xTB          :
 * total energy  :  -197.6948417 Eh     change       -0.2336805E-08 Eh
 * total energy  :  -197.8521698 Eh     change       -0.1573281E+00 Eh
 * total energy  :  -197.8968803 Eh     change       -0.4471048E-01 Eh
 * total energy  :  -197.9205795 Eh     change       -0.2369928E-01 Eh
 * total energy  :  -197.9294878 Eh     change       -0.8908214E-02 Eh
 * total energy  :  -197.9358027 Eh     change       -0.6314976E-02 Eh
 * total energy  :  -197.9380401 Eh     change       -0.2237348E-02 Eh
 * total energy  :  -197.9392125 Eh     change       -0.1172401E-02 Eh
 * total energy  :  -197.9397379 Eh     change       -0.5253729E-03 Eh
 * total energy  :  -197.9407338 Eh     change       -0.9959366E-03 Eh
 * total energy  :  -197.9427157 Eh     change       -0.1658410E-04 Eh
 * total energy  :  -197.9427282 Eh     change       -0.1249776E-04 Eh
 * total energy  :  -197.9427377 Eh     change       -0.9432661E-05 Eh
 * total energy  :  -197.9427457 Eh     change       -0.8033992E-05 Eh
 * total energy  :  -197.9427541 Eh     change       -0.8403980E-05 Eh
 * total energy  :  -197.9427625 Eh     change       -0.8393870E-05 Eh
 * total energy  :  -197.9427719 Eh     change       -0.9463141E-05 Eh
 * total energy  :  -197.9427784 Eh     change       -0.6428233E-05 Eh
 * total energy  :  -197.9427825 Eh     change       -0.4112727E-05 Eh
   *** GEOMETRY OPTIMIZATION CONVERGED AFTER 38 ITERATIONS ***

 final structure:
================
116
 xtb: 6.5.1 (b24c23e)
Ni          14.05307556771579       -0.04760122445121       -0.01508021086912
C           10.66001031058696       -0.06920630884483       -0.03167945960642
C           11.31533807695937       -1.26723620228854       -0.22573631748753
C           10.63969457190774       -2.51367089707929       -0.42066673897514
C           11.59560516985275       -3.47090460238386       -0.46112927896746
C           12.85601034570603       -2.80685576042392       -0.30021305635750
N           12.67431040901363       -1.45201948438646       -0.17479483055060
C           14.07041963294336       -3.47084597829155       -0.19105149564587
C           15.27745522386153       -2.80697703400113       -0.02286021077485
C           16.54232069516417       -3.47191113232476        0.06312643051908
C           17.49056114428767       -2.50572536234551        0.10582063386055
N           15.45057687964419       -1.44078235074850       -0.01793633698004
C           16.80422382398424       -1.25476850156859        0.04043326749278
C           17.46528884522334       -0.02568037605225       -0.02804453353427
C           16.78733955133389        1.19480472847553       -0.08430964328691
C           17.45355086671061        2.45386663616422       -0.18612351355597
C           16.49321512964940        3.40754378999774       -0.12679164859088
C           15.24280241202943        2.72670045449797        0.02159510340821
C           14.02715356415488        3.37499428332170        0.19394028578614
C           14.01592852332907        4.85514270133821        0.28371290110102
C           13.32767640973302        5.61489174017625       -0.66317024917545
C           13.31797401305930        6.99901257546517       -0.57845576637070
C           13.99068857441939        7.64000637768324        0.45298742833095
C           14.67678398164177        6.89094303741663        1.39932076698229
C           14.69240074566885        5.50676759314445        1.31571769363274
C           12.82029257142804        2.69284214734505        0.28004555187872
C           11.55476449896811        3.33123380471537        0.49517735659228
C           10.61009556410164        2.36468381208705        0.42025074370639
C           11.29977500870063        1.13526064688485        0.17469868837279
N           12.65608733414214        1.33892414759973        0.12366126711855
N           15.43318523973207        1.36313333618556        0.00918013028636
C           14.07903113171812       -4.95401956634054       -0.25936267607023
C           13.74426625941320       -5.60755896683346       -1.44523943156349
C           13.75644367906888       -6.99308968157750       -1.50800187383640
C           14.09723829337048       -7.73956397723796       -0.38830190434498
C           14.42870456778087       -7.09528368933767        0.79588067558239
C           14.42275877114047       -5.70987929129306        0.86139705073200
H            9.57624484397918       -0.07619034025381       -0.03183036932439
H            9.56970267846808       -2.62261534307245       -0.49982256728520
H           11.47149363775145       -4.53554421020857       -0.57509564644143
H           16.67728298177278       -4.54110702160028        0.07290685281262
H           18.56155709496091       -2.61398494273343        0.16476407995455
H           18.51964385222416        2.57611903233339       -0.28972863231909
H           16.61043276140843        4.47737455079999       -0.18328016337569
H           12.81235524772839        5.11599751963496       -1.47642999031730
H           12.78323632266841        7.57970401596723       -1.32195514290000
H           13.98036733195365        8.72204720322388        0.51912606606539
H           15.20202866166758        7.38695604702548        2.20802094283729
H           15.21853049750231        4.92247188750870        2.06244991601348
H           11.42042367229723        4.38418567002796        0.68247062641311
H            9.54032995958458        2.45544197929752        0.52202115280327
H           13.48784877656133       -5.02472471518264       -2.32291038152383
H           13.49954181693634       -7.49178725913012       -2.43604846724548
H           14.10462479162555       -8.82249623056294       -0.43852271916069
H           14.69304520172670       -7.67424387537677        1.67387136562503
H           14.67292124645914       -5.20727406349165        1.78909044349776
Ni          27.48165571304146        0.04882044881929       -0.01242022817506
C           30.87444612323364        0.07110981064859       -0.02707105887690
C           30.21913855470720        1.27599878983411       -0.17290907264491
C           30.89447480488751        2.52939050248635       -0.31796975509829
C           29.93849382880608        3.48743031374075       -0.31800863066098
C           28.67835726931484        2.81735747293798       -0.18187082276654
N           28.86023647638368        1.45850384423563       -0.11292612387396
C           27.46443022649792        3.47614981818127       -0.04051299732604
C           26.25785013988481        2.80568910853465        0.10310146894589
C           24.99332497055952        3.46606614192682        0.22264120209683
C           24.04501015575318        2.49897388396894        0.22376416707752
N           26.08449269163234        1.44066192953672        0.04701944496454
C           24.73094478547886        1.25224942694976        0.09962294768287
C           24.06971693343765        0.02773436412303       -0.02573589302443
C           24.74771927705847       -1.18882246946164       -0.13885419255574
C           24.08178930969002       -2.44186420493143       -0.29958175517337
C           25.04208052267575       -3.39730854118533       -0.28226169550515
C           26.29216909412551       -2.72406280730746       -0.10036473990151
C           27.50741807667091       -3.37936113613182        0.04679780334458
C           27.51852576964320       -4.86195239914848        0.07189068346096
C           28.21212154668785       -5.57978105375889       -0.90338875773599
C           28.22154786336875       -6.96627994994302       -0.87907261927606
C           27.54312860605430       -7.65161181230303        0.11960224582253
C           26.85168247249696       -6.94447120738223        1.09387647908150
C           26.83644363773842       -5.55797356879451        1.07070999349602
C           28.71387949885374       -2.70145481112113        0.16624604599524
C           29.97897887025042       -3.34818811315884        0.35767041944995
C           30.92369249353291       -2.37928963308726        0.32554839078518
C           30.23446553809545       -1.14071688116183        0.12976810585573
N           28.87826878772632       -1.34212790932301        0.06766316857134
N           26.10173157748014       -1.36132111395888       -0.05133503858306
C           27.45606625887833        4.96090686097597       -0.04498359395273
C           27.78560968259236        5.66493071628852       -1.20304142512905
C           27.77388883618405        7.05189904467551       -1.20573631592920
C           27.43887760759211        7.74939747737457       -0.05320870542803
C           27.11264714278904        7.05466419201110        1.10355504433097
C           27.11804483272247        5.66773721961507        1.10901746297489
H           31.95820924841884        0.07803054299213       -0.02640042398631
H           31.96434345621837        2.64156669346265       -0.39424684107046
H           30.06241331570480        4.55583962865013       -0.38874875162513
H           24.85859012249341        4.53370973451436        0.28157681094441
H           22.97418250174096        2.60450859813008        0.29032854613779
H           23.01588924594887       -2.55922777851166       -0.41053059302422
H           24.92492047887574       -4.46341050968310       -0.38795356548460
H           28.73182476221895       -5.04599351581827       -1.69130683654192
H           28.76054026079853       -7.51403664273493       -1.64417201324326
H           27.55316853655125       -8.73550925646038        0.13848693802011
H           26.32192949981901       -7.47522264024793        1.87717717514081
H           26.30620705072722       -5.00678001081971        1.83937574645524
H           30.11304513004304       -4.40803729984580        0.50111910632953
H           31.99322508008682       -2.47419248361956        0.42596952468827
H           28.03760931560358        5.12055811869785       -2.10631690274635
H           28.02701854213264        7.59021140136934       -2.11249000548578
H           27.43232455204556        8.83350567813634       -0.05643689425235
H           26.85292897528085        7.59520019344048        2.00702710698372
H           26.87185293024130        5.12550153390813        2.01520634673966
C           20.09231368868782       -0.00455765672059       -0.04394144878299
C           18.87103142640279       -0.01599416562307       -0.03809144014847
C           21.44278461318276        0.00699075477864       -0.04282587815064
C           22.66400552483734        0.01834399839214       -0.03651452418977

          :  Hamiltonian                  GFN1-xTB          :
         :: total energy            -197.942782488699 Eh    ::
         :: gradient norm              0.000378213036 Eh/a0 ::
         :: HOMO-LUMO gap              1.206540223769 eV    ::
         :: SCC energy              -201.163626227978 Eh    ::
         :: repulsion energy           3.325323907801 Eh    ::

    * Orbital Energies and Occupations

         #    Occupation            Energy/Eh            Energy/eV
      -------------------------------------------------------------
         1        2.0000           -0.7801075             -21.2278
       ...           ...                  ...                  ...
       173        2.0000           -0.4236634             -11.5285
       174        2.0000           -0.3977254             -10.8227
       175        2.0000           -0.3977113             -10.8223
       176        2.0000           -0.3972699             -10.8103
       177        2.0000           -0.3972588             -10.8100
       178        2.0000           -0.3964879             -10.7890
       179        2.0000           -0.3964754             -10.7886
       180        2.0000           -0.3954468             -10.7607
       181        2.0000           -0.3954080             -10.7596
       182        2.0000           -0.3953705             -10.7586
       183        2.0000           -0.3953549             -10.7582
       184        2.0000           -0.3952721             -10.7559
       185        2.0000           -0.3832956             -10.4300 (HOMO)
       186                         -0.3389561              -9.2235 (LUMO)
       187                         -0.3287720              -8.9463
       188                         -0.3287522              -8.9458
       189                         -0.3274071              -8.9092
       190                         -0.3273486              -8.9076
       191                         -0.3253390              -8.8529
       192                         -0.2978201              -8.1041
       193                         -0.2901458              -7.8953
       194                         -0.2652468              -7.2177
       195                         -0.2652431              -7.2176
       196                         -0.2652343              -7.2174
       ...                                ...                  ...
       398                          1.5198141              41.3562
      -------------------------------------------------------------
                  HL-Gap            0.0443395 Eh            1.2065 eV

Wiberg/Mayer (AO) data.
largest (>0.10) Wiberg bond orders for each atom

     #   Z sym  total        # sym  WBO       # sym  WBO       # sym  WBO
 ---------------------------------------------------------------------------
     1  28 Ni   3.014 --    30 N    0.665     7 N    0.664    12 N    0.662
                            31 N    0.662
     2   6 C    3.934 --     3 C    1.364    29 C    1.363    38 H    0.970
     3   6 C    3.924 --     2 C    1.364     7 N    1.214     4 C    1.175
     4   6 C    3.960 --     5 C    1.650     3 C    1.175    39 H    0.975
     5   6 C    3.963 --     4 C    1.650     6 C    1.177    40 H    0.973
     6   6 C    3.920 --     8 C    1.325     7 N    1.220     5 C    1.177
     7   7 N    3.402 --     6 C    1.220     3 C    1.214     1 Ni   0.664
     8   6 C    3.939 --     9 C    1.331     6 C    1.325    32 C    1.019
     9   6 C    3.915 --     8 C    1.331    12 N    1.205    10 C    1.183
    10   6 C    3.959 --    11 C    1.637     9 C    1.183    41 H    0.973
    11   6 C    3.962 --    10 C    1.637    13 C    1.191    42 H    0.973
    12   7 N    3.407 --    13 C    1.239     9 C    1.205     1 Ni   0.662
    13   6 C    3.905 --    14 C    1.264    12 N    1.239    11 C    1.191
    14   6 C    3.943 --    13 C    1.264    15 C    1.264   114 C    1.181
    15   6 C    3.905 --    14 C    1.264    31 N    1.238    16 C    1.192
    16   6 C    3.961 --    17 C    1.635    15 C    1.192    43 H    0.973
    17   6 C    3.959 --    16 C    1.635    18 C    1.184    44 H    0.973
    18   6 C    3.915 --    19 C    1.328    31 N    1.206    17 C    1.184
    19   6 C    3.939 --    18 C    1.328    26 C    1.323    20 C    1.026
    20   6 C    3.989 --    25 C    1.395    21 C    1.395    19 C    1.026
                            23 C    0.108
    21   6 C    3.988 --    22 C    1.447    20 C    1.395    45 H    0.973
                            24 C    0.110
    22   6 C    3.995 --    21 C    1.447    23 C    1.438    46 H    0.973
                            25 C    0.110
    23   6 C    3.990 --    24 C    1.438    22 C    1.438    47 H    0.974
                            20 C    0.108
    24   6 C    3.995 --    25 C    1.447    23 C    1.438    48 H    0.973
                            21 C    0.110
    25   6 C    3.988 --    24 C    1.447    20 C    1.395    49 H    0.973
                            22 C    0.110
    26   6 C    3.920 --    19 C    1.323    30 N    1.221    27 C    1.177
    27   6 C    3.963 --    28 C    1.648    26 C    1.177    50 H    0.973
    28   6 C    3.959 --    27 C    1.648    29 C    1.176    51 H    0.975
    29   6 C    3.924 --     2 C    1.363    30 N    1.213    28 C    1.176
    30   7 N    3.402 --    26 C    1.221    29 C    1.213     1 Ni   0.665
    31   7 N    3.407 --    15 C    1.238    18 C    1.206     1 Ni   0.662
    32   6 C    3.988 --    33 C    1.398    37 C    1.398     8 C    1.019
                            35 C    0.109
    33   6 C    3.989 --    34 C    1.446    32 C    1.398    52 H    0.973
                            36 C    0.110
    34   6 C    3.995 --    33 C    1.446    35 C    1.439    53 H    0.973
                            37 C    0.110
    35   6 C    3.992 --    34 C    1.439    36 C    1.438    54 H    0.974
                            32 C    0.109
    36   6 C    3.995 --    37 C    1.446    35 C    1.438    55 H    0.973
                            33 C    0.110
    37   6 C    3.989 --    36 C    1.446    32 C    1.398    56 H    0.973
                            34 C    0.110
    38   1 H    1.000 --     2 C    0.970
    39   1 H    0.998 --     4 C    0.975
    40   1 H    1.005 --     5 C    0.973
    41   1 H    1.005 --    10 C    0.973
    42   1 H    1.002 --    11 C    0.973
    43   1 H    1.002 --    16 C    0.973
    44   1 H    1.005 --    17 C    0.973
    45   1 H    1.005 --    21 C    0.973
    46   1 H    1.003 --    22 C    0.973
    47   1 H    1.003 --    23 C    0.974
    48   1 H    1.003 --    24 C    0.973
    49   1 H    1.005 --    25 C    0.973
    50   1 H    1.005 --    27 C    0.973
    51   1 H    0.998 --    28 C    0.975
    52   1 H    1.004 --    33 C    0.973
    53   1 H    1.003 --    34 C    0.973
    54   1 H    1.003 --    35 C    0.974
    55   1 H    1.003 --    36 C    0.973
    56   1 H    1.004 --    37 C    0.973
    57  28 Ni   3.015 --    86 N    0.665    63 N    0.665    68 N    0.662
                            87 N    0.662
    58   6 C    3.934 --    59 C    1.364    85 C    1.363    94 H    0.970
    59   6 C    3.924 --    58 C    1.364    63 N    1.214    60 C    1.175
    60   6 C    3.960 --    61 C    1.650    59 C    1.175    95 H    0.975
    61   6 C    3.963 --    60 C    1.650    62 C    1.177    96 H    0.973
    62   6 C    3.920 --    64 C    1.325    63 N    1.220    61 C    1.177
    63   7 N    3.402 --    62 C    1.220    59 C    1.214    57 Ni   0.665
    64   6 C    3.939 --    65 C    1.331    62 C    1.325    88 C    1.019
    65   6 C    3.915 --    64 C    1.331    68 N    1.205    66 C    1.183
    66   6 C    3.959 --    67 C    1.637    65 C    1.183    97 H    0.973
    67   6 C    3.962 --    66 C    1.637    69 C    1.191    98 H    0.973
    68   7 N    3.407 --    69 C    1.239    65 C    1.205    57 Ni   0.662
    69   6 C    3.905 --    70 C    1.264    68 N    1.239    67 C    1.191
    70   6 C    3.943 --    69 C    1.264    71 C    1.264   116 C    1.181
    71   6 C    3.905 --    70 C    1.264    87 N    1.238    72 C    1.192
    72   6 C    3.961 --    73 C    1.635    71 C    1.192    99 H    0.973
    73   6 C    3.959 --    72 C    1.635    74 C    1.184   100 H    0.973
    74   6 C    3.915 --    75 C    1.328    87 N    1.206    73 C    1.184
    75   6 C    3.939 --    74 C    1.328    82 C    1.322    76 C    1.027
    76   6 C    3.989 --    81 C    1.395    77 C    1.395    75 C    1.027
                            79 C    0.108
    77   6 C    3.988 --    78 C    1.447    76 C    1.395   101 H    0.973
                            80 C    0.110
    78   6 C    3.995 --    77 C    1.447    79 C    1.438   102 H    0.973
                            81 C    0.110
    79   6 C    3.990 --    80 C    1.438    78 C    1.438   103 H    0.974
                            76 C    0.108
    80   6 C    3.995 --    81 C    1.447    79 C    1.438   104 H    0.973
                            77 C    0.110
    81   6 C    3.988 --    80 C    1.447    76 C    1.395   105 H    0.973
                            78 C    0.110
    82   6 C    3.920 --    75 C    1.322    86 N    1.221    83 C    1.177
    83   6 C    3.963 --    84 C    1.648    82 C    1.177   106 H    0.973
    84   6 C    3.959 --    83 C    1.648    85 C    1.176   107 H    0.975
    85   6 C    3.924 --    58 C    1.363    86 N    1.213    84 C    1.176
    86   7 N    3.402 --    82 C    1.221    85 C    1.213    57 Ni   0.665
    87   7 N    3.407 --    71 C    1.238    74 C    1.206    57 Ni   0.662
    88   6 C    3.988 --    89 C    1.398    93 C    1.398    64 C    1.019
                            91 C    0.109
    89   6 C    3.989 --    90 C    1.446    88 C    1.398   108 H    0.973
                            92 C    0.110
    90   6 C    3.995 --    89 C    1.446    91 C    1.439   109 H    0.973
                            93 C    0.110
    91   6 C    3.992 --    90 C    1.439    92 C    1.438   110 H    0.974
                            88 C    0.109
    92   6 C    3.995 --    93 C    1.446    91 C    1.438   111 H    0.973
                            89 C    0.110
    93   6 C    3.989 --    92 C    1.446    88 C    1.398   112 H    0.973
                            90 C    0.110
    94   1 H    1.000 --    58 C    0.970
    95   1 H    0.998 --    60 C    0.975
    96   1 H    1.005 --    61 C    0.973
    97   1 H    1.005 --    66 C    0.973
    98   1 H    1.002 --    67 C    0.973
    99   1 H    1.002 --    72 C    0.973
   100   1 H    1.005 --    73 C    0.973
   101   1 H    1.005 --    77 C    0.973
   102   1 H    1.003 --    78 C    0.973
   103   1 H    1.003 --    79 C    0.974
   104   1 H    1.003 --    80 C    0.973
   105   1 H    1.005 --    81 C    0.973
   106   1 H    1.005 --    83 C    0.973
   107   1 H    0.998 --    84 C    0.975
   108   1 H    1.004 --    89 C    0.973
   109   1 H    1.003 --    90 C    0.973
   110   1 H    1.003 --    91 C    0.974
   111   1 H    1.003 --    92 C    0.973
   112   1 H    1.004 --    93 C    0.973
   113   6 C    3.938 --   114 C    2.485   115 C    1.303
   114   6 C    3.927 --   113 C    2.485    14 C    1.181   116 C    0.200
   115   6 C    3.938 --   116 C    2.485   113 C    1.303
   116   6 C    3.927 --   115 C    2.485    70 C    1.181   114 C    0.200
 ---------------------------------------------------------------------------

           -------------------------------------------------
          | TOTAL ENERGY             -197.942782488699 Eh   |
          | GRADIENT NORM               0.000378213036 Eh/α |
          | HOMO-LUMO GAP               1.206540223769 eV   |
           -------------------------------------------------

 * finished run on 2022/07/30 at 05:32:56.082
