   * xtb version 6.5.1 (b24c23e) compiled by 'conda@728c89f4b128' on 2022-07-12
          program call               : xtb Cu_NMA_C6_3.xyz --gfn 1 --opt -T 48

   ID    Z sym.   atoms
    1   29 Cu     1, 67, 145
    2    6 C      2-6, 8-12, 14-19, 21-26, 28-32, 34-40, 68-72, 74-78, 80-85,
                  87-92, 94-98, 100-106, 133-144, 146-150, 152-156, 158-163,
                  165-170, 172-176, 178-184
    3    7 N      7, 13, 20, 27, 33, 41, 73, 79, 86, 93, 99, 107, 151, 157,
                  164, 171, 177, 185
    4    1 H      42-66, 108-132, 186-209

          :  Hamiltonian                  GFN1-xTB          :
 * total energy  :  -327.4067799 Eh     change       -0.5408083E-09 Eh
 * total energy  :  -344.9518398 Eh     change       -0.1754506E+02 Eh
 * total energy  :  -347.1177018 Eh     change       -0.2165862E+01 Eh
 * total energy  :  -348.6018599 Eh     change       -0.1484158E+01 Eh
 * total energy  :  -349.3723395 Eh     change       -0.7704796E+00 Eh
 * total energy  :  -349.8339209 Eh     change       -0.4615813E+00 Eh
 * total energy  :  -350.1552278 Eh     change       -0.3213070E+00 Eh
 * total energy  :  -350.4139046 Eh     change       -0.2586768E+00 Eh
 * total energy  :  -350.6344408 Eh     change       -0.2205362E+00 Eh
 * total energy  :  -350.8164503 Eh     change       -0.1820095E+00 Eh
 * total energy  :  -351.6319306 Eh     change       -0.8815597E-05 Eh
 * total energy  :  -351.6319419 Eh     change       -0.1131141E-04 Eh
 * total energy  :  -351.6319617 Eh     change       -0.1983781E-04 Eh
 * total energy  :  -351.6319774 Eh     change       -0.1561237E-04 Eh
 * total energy  :  -351.6319924 Eh     change       -0.1507376E-04 Eh
 * total energy  :  -351.6320114 Eh     change       -0.1898876E-04 Eh
 * total energy  :  -351.6320254 Eh     change       -0.1399991E-04 Eh
 * total energy  :  -351.6320317 Eh     change       -0.6268907E-05 Eh
 * total energy  :  -351.6320357 Eh     change       -0.3994715E-05 Eh
   *** GEOMETRY OPTIMIZATION CONVERGED AFTER 87 ITERATIONS ***

 final structure:
================
209
 xtb: 6.5.1 (b24c23e)
Cu          33.46669027389012        0.04134630398955       -0.04280583640113
C           30.06158735731875        0.07327748970372       -0.05000831058546
C           30.69243234037738        0.98802089181928        0.77992498403594
C           30.01386677933993        1.88687584105124        1.66799050775148
C           30.96969427852450        2.60666319246757        2.30708447912330
C           32.24105500870554        2.16483659058191        1.80250491832870
N           32.04174585660274        1.17591287044307        0.88271239113347
C           33.48332926899294        2.66325567874718        2.20727007654723
C           33.48992436280588        3.78296668586164        3.17769049454114
C           32.85843523774046        4.99343878503196        2.87778366367229
C           32.86757732429078        6.03893230170829        3.78149742220230
C           33.50524951814093        5.90290576405026        5.02073653254650
N           33.43792285422649        6.95879941138443        5.91806924976234
C           34.45039608319311        7.08489040326322        6.95801467290922
C           34.12532613357609        4.68951821954845        5.33210995909331
C           34.12143773816975        3.65156081170232        4.41585296723405
C           34.71774334777301        2.18121174540314        1.76472751589205
C           35.99110054294114        2.74318128022533        2.11451715002369
C           36.94030424835699        2.00357917374391        1.48586140563092
N           34.91134414789777        1.11983842136640        0.91971531161139
C           36.25432951971558        0.99164702389681        0.74130866391111
C           36.89482702989510        0.01506015085309       -0.04280251036911
C           36.23973867475689       -0.95336037140508       -0.82480479911725
C           36.91029981023696       -1.97818982016078       -1.56577990817444
C           35.94982789260349       -2.70732673003346       -2.18948790349701
C           34.68508685652942       -2.12524719482382       -1.84121020850345
N           34.89490092611072       -1.06260016851374       -1.00168487790093
C           33.44333474055990       -2.59133667849690       -2.27999352429993
C           33.43220065508381       -3.72321351048871       -3.23640471875208
C           34.06103049901289       -3.61742079920704       -4.47826474004375
C           34.05177173619906       -4.66986376532299       -5.37789199247619
C           33.42165575301124       -5.87228567000844       -5.04488329306153
N           33.34467564999262       -6.94293747491149       -5.92387030271740
C           34.35484753005314       -7.09348030777701       -6.96296206244274
C           32.78468167248437       -5.98175709458419       -3.80267114224778
C           32.78797178478042       -4.92167672540848       -2.91609404452820
C           32.20907236651494       -2.06844060400519       -1.88201571658929
C           30.93178212583755       -2.49117353911524       -2.38789739293733
C           29.98701383086363       -1.74780194762634       -1.75941685917506
C           30.67858193119732       -0.85541543059232       -0.87477899633584
N           32.02456901929104       -1.06907451418145       -0.97055603493196
H           28.97636159559033        0.08369798198816       -0.05251992481000
H           28.94317741399910        1.93990111394906        1.78862324574710
H           30.83206836227863        3.36059315805681        3.06538862710382
H           32.37655506910507        5.12030761567873        1.91445690267496
H           32.37998443749686        6.97567709071292        3.53268912421819
H           33.24015253728294        7.84312645513053        5.46526076585969
H           35.46322903878067        7.04843250611410        6.54082684541840
H           34.33523600012728        6.28558541788536        7.69111581180559
H           34.30099711750818        8.04139030875192        7.45893058478151
H           34.60938858233985        4.54716615670825        6.29051738300374
H           34.59718165201993        2.71153299167784        4.67384737177392
H           36.13696795982073        3.60546846639279        2.74486616026498
H           38.01083074591545        2.13075024083824        1.51108238014650
H           37.97888494769638       -2.12071503531776       -1.59145112903026
H           36.08255696874576       -3.57436416522868       -2.81620845685784
H           34.54564715061056       -2.68648965868955       -4.75225454493961
H           34.53412118503285       -4.54772069918257       -6.33995996118547
H           33.14220150559034       -7.81788783175656       -5.45516489117470
H           34.23785106268656       -6.31155478636011       -7.71440329999759
H           34.20453933294789       -8.06151332303197       -7.44081771126406
H           35.36863038281528       -7.04698126904835       -6.54910176323388
H           32.28838691945580       -6.90947925432360       -3.53770532710503
H           32.30636255874589       -5.02757038134275       -1.95007951633399
H           30.78353091712578       -3.24938130901642       -3.13994428707967
H           28.91602479625717       -1.78169661566239       -1.88425451748480
Cu          65.54164996042549        0.01439988497803       -0.01199651326197
C           68.94574955847075        0.05194575485484       -0.09657724362559
C           68.31556497018188       -0.96535431150261       -0.79764932101289
C           68.99528326643110       -2.01963384984025       -1.49320017838733
C           68.03958811426114       -2.81043698096568       -2.04221373965546
C           66.76686066756353       -2.23677107945925       -1.69960849491305
N           66.96562974916914       -1.12200968073935       -0.93724853865807
C           65.52426846734436       -2.75481087421926       -2.07767965818900
C           65.51731415208467       -3.94382327767562       -2.96202602796431
C           66.12196990908544       -3.90124061524732       -4.22155613968182
C           66.10957271752962       -5.00752026751819       -5.04974154395616
C           65.49591149178261       -6.19714412434975       -4.63874351016062
N           65.55772441207397       -7.29812189958405       -5.48100925007542
C           64.55944994483019       -8.35234086779940       -5.35913058566399
C           64.90458295694528       -6.25069100779425       -3.37339599287222
C           64.91087920831458       -5.13366663985474       -2.55532398349872
C           64.28963778563343       -2.23301378292511       -1.68358541148249
C           63.01451410100847       -2.71242523003362       -2.13525087764993
C           62.06569337780134       -1.94623797665697       -1.53871484678799
N           64.09706076978013       -1.17770586851322       -0.83090858276469
C           62.75347069660696       -0.98936705094392       -0.72599944279224
C           62.11411648923773       -0.01418098709910        0.06077132485291
C           62.77010317906856        0.96700582721597        0.82616059763081
C           62.10186967745479        1.90739795943417        1.67350216781939
C           63.06246250010724        2.68626203449946        2.23379989591516
C           64.32471684590885        2.23306028611934        1.72279144690503
N           64.11357590393382        1.17769473508814        0.87456261021802
C           65.56578930330522        2.77981173335135        2.05898124511196
C           65.57646164831897        3.96685381542498        2.94565071747743
C           64.91931734694171        5.14171687777310        2.57561985943613
C           64.92733111377886        6.25636380424629        3.39686146243087
C           65.58587147506256        6.21545180459558        4.62903704281870
N           65.66249889556710        7.31547591351910        5.47135218318849
C           64.63033075099622        8.34180139732253        5.40709972355197
C           66.25179074624749        5.04163231823675        5.00236046985405
C           66.24853360464718        3.93770303324831        4.17100141885013
C           66.79921598528831        2.28994749596081        1.61816761951254
C           68.07431883503057        2.89242234684753        1.89639709245619
C           69.01863067495401        2.12407136064840        1.29797863027791
C           68.32868737399794        1.05463371188122        0.63655847233498
N           66.98436152095267        1.18039311854383        0.84480549194996
H           70.03061224633511        0.06455342365433       -0.12419872357495
H           70.06685067161665       -2.13648870941443       -1.53609653850124
H           68.17819946319983       -3.71227295400115       -2.61658259031597
H           66.58479105562685       -2.98100790066109       -4.56111442484339
H           66.57546953210726       -4.95818552108555       -6.02834944777312
H           65.72808779428136       -7.04066381804258       -6.44590420161610
H           63.54116713161946       -7.94770680666584       -5.38329845333036
H           64.70589378717207       -8.90014819869516       -4.42739577722075
H           64.69368151460039       -9.04106316233154       -6.19323093098666
H           64.44075359936942       -7.16313123733084       -3.01918001054716
H           64.45675906157052       -5.19085464052925       -1.57193240539652
H           62.86706603476734       -3.51944059408373       -2.83464273729611
H           60.99414702057000       -2.01073577017686       -1.64111531117382
H           61.03490485781317        1.95178792363272        1.82342765007427
H           62.93141620811934        3.48580191251288        2.94494073128781
H           64.41289211693052        5.18952902268236        1.61760506266558
H           64.42187826208595        7.15715533550726        3.07094108429953
H           65.89059938853737        7.05992616086197        6.42476891972957
H           64.71251072679439        8.89686980910349        4.47178096301025
H           64.78880214784232        9.03096597132751        6.23655513825935
H           63.62635227882026        7.90869138343939        5.48231464409133
H           66.77052598521765        5.00257599808855        5.95448465772053
H           66.75230393709172        3.02911949783893        4.48244224082557
H           68.22164145640670        3.79717183744135        2.46396041044872
H           70.08801230015548        2.26563292530400        1.28624618798097
C           42.09713691431973       -0.00512161263213       -0.03942278898441
C           40.86850935515118       -0.00293355715046       -0.04206577707272
C           39.52417410758279        0.00181761644073       -0.04360339166858
C           38.30005720710733        0.00571435608279       -0.04334896235419
C           43.44130871077206       -0.00548719149081       -0.03476760290406
C           44.66559717264342       -0.00424618212615       -0.02958822957382
C           58.14060250431000       -0.01499598238926        0.09044183989016
C           56.91201691661808       -0.01031642492697        0.08641974830113
C           55.56790422045815       -0.00668771164531        0.07634315474837
C           54.34367848048442       -0.00350530247810        0.06283402527630
C           59.48490507585075       -0.01773378781225        0.08799627588142
C           60.70900423391011       -0.01803602471830        0.07969676430880
Cu          49.50460233547251        0.00446732741696        0.00610789232144
C           46.07012080420120       -0.00078330727324       -0.02176633376295
C           46.72613838941623       -1.01858808738865       -0.73834195494593
C           46.05731718356406       -2.08673281420860       -1.41678257017305
C           47.01942623098540       -2.84879946018204       -1.99784680048653
C           48.28214263863688       -2.24408318347184       -1.68426374377996
N           48.07082517716096       -1.13539163826702       -0.90827334292680
C           49.52553090822504       -2.72777038641078       -2.09990735654190
C           49.53568638042390       -3.89606771386811       -3.01153633848061
C           50.17536067360945       -5.08378669169844       -2.64567519277099
C           50.18863561123466       -6.17114280960157       -3.49846421271281
C           49.57323381324782       -6.09814334329730       -4.75425990756475
N           49.57593414425544       -7.22875494242966       -5.55797615503053
C           49.40461438031333       -7.08893389841739       -6.99782057981077
C           48.92539440155401       -4.91537516538466       -5.12206776170571
C           48.90855451487823       -3.83432257238691       -4.25725509194462
C           50.76127125917992       -2.19354643152802       -1.72486194148497
C           52.03252500968432       -2.64026738365916       -2.21759936775524
C           52.98303081935877       -1.87972068208525       -1.61575408337034
N           50.95603025578939       -1.16127198980950       -0.84599397185238
C           52.29847810612508       -0.95769149676246       -0.76167001912543
C           52.93927312742071        0.00013269938939        0.04575671498784
C           52.28226166242350        0.96181412838924        0.83543355636035
C           52.94919244060826        1.88511662547046        1.70187839229933
C           51.98716894176321        2.65318226013647        2.27542076115840
C           50.72664508144097        2.20879378436190        1.75399312880685
N           50.93889340477893        1.17065182645579        0.88609608175334
C           49.48386609532173        2.74948165187144        2.09606258717408
C           49.47572444670141        3.93098229318415        2.98998490378943
C           48.80658490110216        3.89705138536407        4.21485343100333
C           48.79786097025087        4.99558262257839        5.05741067406906
C           49.46340985479656        6.16823970383603        4.68867152667649
N           49.44013481154787        7.31644148385998        5.46620511414804
C           49.19680523608765        7.21351076357881        6.89852635720340
C           50.12553557716996        6.21179332511695        3.45543184625512
C           50.13580643456827        5.10778257468981        2.62441359065967
C           48.24872010073614        2.26139322349470        1.66062453117966
C           46.97922453503696        2.86603048122525        1.94596128507402
C           46.02887043643785        2.09427801701013        1.35840214504551
C           46.71184526464995        1.02219581691118        0.70076458312269
N           48.05315993437100        1.14475079727138        0.89161529506776
H           44.98911238105878       -2.23335539023371       -1.43260471182149
H           46.88923940060236       -3.75145856758926       -2.57258974674834
H           50.64947234845344       -5.15745921179707       -1.67297263865502
H           50.67916073034372       -7.09099330515920       -3.19757951424234
H           50.31776397860293       -7.87591892377761       -5.31932740715369
H           48.38424435029508       -6.77728933135175       -7.22439075259161
H           50.10619599243552       -6.35950213705307       -7.41840462213503
H           49.58100483152248       -8.06299084067701       -7.45411779131918
H           48.43258163039256       -4.83162849766882       -6.08296912431362
H           48.41837599859813       -2.91582430173700       -4.56170564549583
H           52.17662630515915       -3.42313366078846       -2.94457496075867
H           54.05294215479709       -1.92492941823003       -1.74244117021119
H           54.01586063667314        1.92646063238315        1.85466752420953
H           52.11672292446956        3.43889502391831        3.00206901299993
H           48.30251895841985        2.98682148415402        4.52131893813527
H           48.27079376924650        4.93338316945018        6.00154874228000
H           50.19689112209046        7.95310185882563        5.24772611341275
H           49.87270216896847        6.49224887531890        7.37194873673445
H           49.35505289216954        8.19812766009888        7.33856668392941
H           48.16473990326725        6.91169712730320        7.08128396437399
H           50.63184207763362        7.12277329633248        3.15391865007400
H           50.64373675392613        5.16016391389069        1.66756678610922
H           46.83598030916014        3.77493537700230        2.50755465748330
H           44.96015651302670        2.23793458523244        1.35562075746267

          :  Hamiltonian                  GFN1-xTB          :
         :: total energy            -351.632035685441 Eh    ::
         :: gradient norm              0.000427485007 Eh/a0 ::
         :: HOMO-LUMO gap              0.004520795485 eV    ::
         :: SCC energy              -357.222700036433 Eh    ::
         :: repulsion energy           5.769305912787 Eh    ::

    * Orbital Energies and Occupations

         #    Occupation            Energy/Eh            Energy/eV
      -------------------------------------------------------------
         1        2.0000           -0.7772792             -21.1508
       ...           ...                  ...                  ...
       315        2.0000           -0.3925519             -10.6819
       316        2.0000           -0.3911512             -10.6438
       317        2.0000           -0.3902465             -10.6191
       318        2.0000           -0.3899697             -10.6116
       319        2.0000           -0.3897680             -10.6061
       320        2.0000           -0.3873909             -10.5414
       321        2.0000           -0.3873310             -10.5398
       322        2.0000           -0.3871213             -10.5341
       323        2.0000           -0.3793959             -10.3239
       324        2.0000           -0.3748781             -10.2010
       325        2.0000           -0.3681821             -10.0187
       326        1.0658           -0.3479009              -9.4669
       327        1.0058           -0.3477723              -9.4634 (HOMO)
       328        0.9283           -0.3476062              -9.4588 (LUMO)
       329        0.0000           -0.3334351              -9.0732
       330                         -0.3247537              -8.8370
       331                         -0.3187408              -8.6734
       332                         -0.3186607              -8.6712
       333                         -0.3182613              -8.6603
       334                         -0.3178277              -8.6485
       335                         -0.2954065              -8.0384
       336                         -0.2866842              -7.8011
       337                         -0.2831735              -7.7055
       338                         -0.2760703              -7.5123
       ...                                ...                  ...
       703                          1.5875271              43.1988
      -------------------------------------------------------------
                  HL-Gap            0.0001661 Eh            0.0045 eV

Wiberg/Mayer (AO) data.
largest (>0.10) Wiberg bond orders for each atom

     #   Z sym  total        # sym  WBO       # sym  WBO       # sym  WBO
 ---------------------------------------------------------------------------
     1  29 Cu   2.190 --    41 N    0.506     7 N    0.505    20 N    0.503
                            27 N    0.503
     2   6 C    3.926 --    40 C    1.361     3 C    1.360    42 H    0.971
     3   6 C    3.918 --     2 C    1.360     7 N    1.228     4 C    1.173
     4   6 C    3.954 --     5 C    1.651     3 C    1.173    43 H    0.976
     5   6 C    3.958 --     4 C    1.651     6 C    1.175    44 H    0.973
     6   6 C    3.911 --     8 C    1.314     7 N    1.241     5 C    1.175
     7   7 N    3.242 --     6 C    1.241     3 C    1.228     1 Cu   0.505
     8   6 C    3.933 --    17 C    1.324     6 C    1.314     9 C    1.035
     9   6 C    3.988 --    16 C    1.384    10 C    1.374     8 C    1.035
    10   6 C    3.987 --    11 C    1.476     9 C    1.374    45 H    0.973
    11   6 C    3.989 --    10 C    1.476    12 C    1.345    46 H    0.971
    12   6 C    3.952 --    15 C    1.354    11 C    1.345    13 N    1.109
    13   7 N    3.179 --    12 C    1.109    14 C    0.971    47 H    0.931
    14   6 C    3.968 --    50 H    0.990    49 H    0.986    48 H    0.984
                            13 N    0.971
    15   6 C    3.990 --    16 C    1.464    12 C    1.354    51 H    0.970
    16   6 C    3.987 --    15 C    1.464     9 C    1.384    52 H    0.973
    17   6 C    3.907 --     8 C    1.324    20 N    1.221    18 C    1.182
    18   6 C    3.954 --    19 C    1.639    17 C    1.182    53 H    0.973
    19   6 C    3.956 --    18 C    1.639    21 C    1.189    54 H    0.974
    20   7 N    3.246 --    21 C    1.257    17 C    1.221     1 Cu   0.503
    21   6 C    3.898 --    20 N    1.257    22 C    1.256    19 C    1.189
    22   6 C    3.935 --    23 C    1.256    21 C    1.256   136 C    1.191
    23   6 C    3.898 --    27 N    1.257    22 C    1.256    24 C    1.189
    24   6 C    3.956 --    25 C    1.639    23 C    1.189    55 H    0.974
    25   6 C    3.954 --    24 C    1.639    26 C    1.182    56 H    0.973
    26   6 C    3.907 --    28 C    1.324    27 N    1.221    25 C    1.182
    27   7 N    3.246 --    23 C    1.257    26 C    1.221     1 Cu   0.503
    28   6 C    3.933 --    26 C    1.324    37 C    1.314    29 C    1.035
    29   6 C    3.988 --    30 C    1.384    36 C    1.374    28 C    1.035
    30   6 C    3.988 --    31 C    1.464    29 C    1.384    57 H    0.973
    31   6 C    3.990 --    30 C    1.464    32 C    1.354    58 H    0.970
    32   6 C    3.952 --    31 C    1.354    35 C    1.345    33 N    1.109
    33   7 N    3.178 --    32 C    1.109    34 C    0.971    59 H    0.931
    34   6 C    3.968 --    61 H    0.990    60 H    0.986    62 H    0.984
                            33 N    0.971
    35   6 C    3.989 --    36 C    1.476    32 C    1.345    63 H    0.971
    36   6 C    3.987 --    35 C    1.476    29 C    1.374    64 H    0.973
    37   6 C    3.911 --    28 C    1.314    41 N    1.241    38 C    1.175
    38   6 C    3.958 --    39 C    1.652    37 C    1.175    65 H    0.973
    39   6 C    3.954 --    38 C    1.652    40 C    1.173    66 H    0.976
    40   6 C    3.918 --     2 C    1.361    41 N    1.228    39 C    1.173
    41   7 N    3.242 --    37 C    1.241    40 C    1.228     1 Cu   0.506
    42   1 H    1.002 --     2 C    0.971
    43   1 H    0.998 --     4 C    0.976
    44   1 H    1.005 --     5 C    0.973
    45   1 H    1.005 --    10 C    0.973
    46   1 H    0.999 --    11 C    0.971
    47   1 H    0.966 --    13 N    0.931
    48   1 H    1.003 --    14 C    0.984
    49   1 H    1.012 --    14 C    0.986
    50   1 H    1.007 --    14 C    0.990
    51   1 H    1.001 --    15 C    0.970
    52   1 H    1.005 --    16 C    0.973
    53   1 H    1.006 --    18 C    0.973
    54   1 H    1.002 --    19 C    0.974
    55   1 H    1.002 --    24 C    0.974
    56   1 H    1.006 --    25 C    0.973
    57   1 H    1.005 --    30 C    0.973
    58   1 H    1.001 --    31 C    0.970
    59   1 H    0.966 --    33 N    0.931
    60   1 H    1.012 --    34 C    0.986
    61   1 H    1.007 --    34 C    0.990
    62   1 H    1.003 --    34 C    0.984
    63   1 H    0.999 --    35 C    0.971
    64   1 H    1.005 --    36 C    0.973
    65   1 H    1.005 --    38 C    0.973
    66   1 H    0.998 --    39 C    0.976
    67  29 Cu   2.187 --   107 N    0.505    73 N    0.505    86 N    0.502
                            93 N    0.502
    68   6 C    3.926 --    69 C    1.361   106 C    1.360   108 H    0.971
    69   6 C    3.918 --    68 C    1.361    73 N    1.228    70 C    1.173
    70   6 C    3.954 --    71 C    1.652    69 C    1.173   109 H    0.976
    71   6 C    3.958 --    70 C    1.652    72 C    1.175   110 H    0.973
    72   6 C    3.911 --    74 C    1.314    73 N    1.241    71 C    1.175
    73   7 N    3.242 --    72 C    1.241    69 C    1.228    67 Cu   0.505
    74   6 C    3.933 --    83 C    1.324    72 C    1.314    75 C    1.035
    75   6 C    3.988 --    82 C    1.384    76 C    1.374    74 C    1.035
    76   6 C    3.987 --    77 C    1.476    75 C    1.374   111 H    0.973
    77   6 C    3.989 --    76 C    1.476    78 C    1.345   112 H    0.971
    78   6 C    3.952 --    81 C    1.354    77 C    1.345    79 N    1.108
    79   7 N    3.178 --    78 C    1.108    80 C    0.971   113 H    0.931
    80   6 C    3.968 --   116 H    0.990   115 H    0.986   114 H    0.984
                            79 N    0.971
    81   6 C    3.990 --    82 C    1.464    78 C    1.354   117 H    0.970
    82   6 C    3.987 --    81 C    1.464    75 C    1.384   118 H    0.973
    83   6 C    3.907 --    74 C    1.324    86 N    1.222    84 C    1.182
    84   6 C    3.954 --    85 C    1.639    83 C    1.182   119 H    0.973
    85   6 C    3.956 --    84 C    1.639    87 C    1.189   120 H    0.974
    86   7 N    3.246 --    87 C    1.258    83 C    1.222    67 Cu   0.502
    87   6 C    3.898 --    86 N    1.258    88 C    1.256    85 C    1.189
    88   6 C    3.935 --    87 C    1.256    89 C    1.256   144 C    1.191
    89   6 C    3.898 --    93 N    1.258    88 C    1.256    90 C    1.189
    90   6 C    3.956 --    91 C    1.639    89 C    1.189   121 H    0.974
    91   6 C    3.954 --    90 C    1.639    92 C    1.182   122 H    0.973
    92   6 C    3.907 --    94 C    1.324    93 N    1.222    91 C    1.182
    93   7 N    3.246 --    89 C    1.258    92 C    1.222    67 Cu   0.502
    94   6 C    3.933 --    92 C    1.324   103 C    1.314    95 C    1.036
    95   6 C    3.988 --    96 C    1.384   102 C    1.374    94 C    1.036
    96   6 C    3.987 --    97 C    1.464    95 C    1.384   123 H    0.973
    97   6 C    3.990 --    96 C    1.464    98 C    1.354   124 H    0.970
    98   6 C    3.952 --    97 C    1.354   101 C    1.345    99 N    1.108
    99   7 N    3.178 --    98 C    1.108   100 C    0.971   125 H    0.931
   100   6 C    3.968 --   127 H    0.990   126 H    0.986   128 H    0.984
                            99 N    0.971
   101   6 C    3.989 --   102 C    1.476    98 C    1.345   129 H    0.971
   102   6 C    3.987 --   101 C    1.476    95 C    1.374   130 H    0.973
   103   6 C    3.911 --    94 C    1.314   107 N    1.241   104 C    1.175
   104   6 C    3.958 --   105 C    1.652   103 C    1.175   131 H    0.973
   105   6 C    3.954 --   104 C    1.652   106 C    1.173   132 H    0.976
   106   6 C    3.918 --    68 C    1.360   107 N    1.228   105 C    1.173
   107   7 N    3.242 --   103 C    1.241   106 C    1.228    67 Cu   0.505
   108   1 H    1.002 --    68 C    0.971
   109   1 H    0.998 --    70 C    0.976
   110   1 H    1.005 --    71 C    0.973
   111   1 H    1.005 --    76 C    0.973
   112   1 H    0.999 --    77 C    0.971
   113   1 H    0.966 --    79 N    0.931
   114   1 H    1.003 --    80 C    0.984
   115   1 H    1.012 --    80 C    0.986
   116   1 H    1.007 --    80 C    0.990
   117   1 H    1.001 --    81 C    0.970
   118   1 H    1.005 --    82 C    0.973
   119   1 H    1.006 --    84 C    0.973
   120   1 H    1.002 --    85 C    0.974
   121   1 H    1.002 --    90 C    0.974
   122   1 H    1.006 --    91 C    0.973
   123   1 H    1.005 --    96 C    0.973
   124   1 H    1.001 --    97 C    0.970
   125   1 H    0.966 --    99 N    0.931
   126   1 H    1.012 --   100 C    0.986
   127   1 H    1.007 --   100 C    0.990
   128   1 H    1.003 --   100 C    0.984
   129   1 H    0.999 --   101 C    0.971
   130   1 H    1.005 --   102 C    0.973
   131   1 H    1.005 --   104 C    0.973
   132   1 H    0.998 --   105 C    0.976
   133   6 C    3.926 --   134 C    2.366   137 C    1.337   136 C    0.190
   134   6 C    3.924 --   133 C    2.366   135 C    1.336   138 C    0.190
   135   6 C    3.934 --   136 C    2.448   134 C    1.336
   136   6 C    3.890 --   135 C    2.448    22 C    1.191   133 C    0.190
   137   6 C    3.931 --   138 C    2.445   133 C    1.337
   138   6 C    3.890 --   137 C    2.445   146 C    1.194   134 C    0.190
   139   6 C    3.924 --   140 C    2.366   143 C    1.336   142 C    0.190
   140   6 C    3.926 --   139 C    2.366   141 C    1.337   144 C    0.190
   141   6 C    3.931 --   142 C    2.445   140 C    1.337
   142   6 C    3.890 --   141 C    2.445   166 C    1.194   139 C    0.190
   143   6 C    3.934 --   144 C    2.448   139 C    1.336
   144   6 C    3.890 --   143 C    2.448    88 C    1.191   140 C    0.190
   145  29 Cu   2.161 --   185 N    0.498   151 N    0.498   171 N    0.497
                           164 N    0.497
   146   6 C    3.924 --   147 C    1.254   184 C    1.253   138 C    1.194
   147   6 C    3.899 --   151 N    1.260   146 C    1.254   148 C    1.190
   148   6 C    3.954 --   149 C    1.637   147 C    1.190   186 H    0.974
   149   6 C    3.955 --   148 C    1.637   150 C    1.184   187 H    0.973
   150   6 C    3.904 --   152 C    1.320   151 N    1.223   149 C    1.184
   151   7 N    3.239 --   147 C    1.260   150 C    1.223   145 Cu   0.498
   152   6 C    3.929 --   150 C    1.320   161 C    1.319   153 C    1.035
   153   6 C    3.988 --   160 C    1.384   154 C    1.374   152 C    1.035
   154   6 C    3.988 --   155 C    1.476   153 C    1.374   188 H    0.973
   155   6 C    3.989 --   154 C    1.476   156 C    1.345   189 H    0.971
   156   6 C    3.952 --   159 C    1.354   155 C    1.345   157 N    1.109
   157   7 N    3.179 --   156 C    1.109   158 C    0.971   190 H    0.931
   158   6 C    3.968 --   193 H    0.990   191 H    0.986   192 H    0.984
                           157 N    0.971
   159   6 C    3.989 --   160 C    1.464   156 C    1.354   194 H    0.970
   160   6 C    3.987 --   159 C    1.464   153 C    1.384   195 H    0.973
   161   6 C    3.904 --   152 C    1.319   164 N    1.223   162 C    1.184
   162   6 C    3.955 --   163 C    1.636   161 C    1.184   196 H    0.973
   163   6 C    3.954 --   162 C    1.636   165 C    1.191   197 H    0.974
   164   7 N    3.239 --   165 C    1.260   161 C    1.223   145 Cu   0.497
   165   6 C    3.899 --   164 N    1.260   166 C    1.254   163 C    1.191
   166   6 C    3.924 --   165 C    1.254   167 C    1.254   142 C    1.194
   167   6 C    3.899 --   171 N    1.259   166 C    1.254   168 C    1.191
   168   6 C    3.954 --   169 C    1.636   167 C    1.191   198 H    0.974
   169   6 C    3.955 --   168 C    1.636   170 C    1.184   199 H    0.973
   170   6 C    3.904 --   172 C    1.318   171 N    1.223   169 C    1.184
   171   7 N    3.239 --   167 C    1.259   170 C    1.223   145 Cu   0.497
   172   6 C    3.929 --   181 C    1.319   170 C    1.318   173 C    1.036
   173   6 C    3.988 --   174 C    1.383   180 C    1.373   172 C    1.036
   174   6 C    3.987 --   175 C    1.464   173 C    1.383   200 H    0.972
   175   6 C    3.989 --   174 C    1.464   176 C    1.353   201 H    0.970
   176   6 C    3.952 --   175 C    1.353   179 C    1.345   177 N    1.109
   177   7 N    3.180 --   176 C    1.109   178 C    0.972   202 H    0.931
   178   6 C    3.968 --   204 H    0.990   205 H    0.986   203 H    0.984
                           177 N    0.972
   179   6 C    3.989 --   180 C    1.477   176 C    1.345   206 H    0.971
   180   6 C    3.987 --   179 C    1.477   173 C    1.373   207 H    0.973
   181   6 C    3.904 --   172 C    1.319   185 N    1.223   182 C    1.184
   182   6 C    3.955 --   183 C    1.637   181 C    1.184   208 H    0.973
   183   6 C    3.954 --   182 C    1.637   184 C    1.190   209 H    0.974
   184   6 C    3.899 --   185 N    1.260   146 C    1.253   183 C    1.190
   185   7 N    3.239 --   184 C    1.260   181 C    1.223   145 Cu   0.498
   186   1 H    1.002 --   148 C    0.974
   187   1 H    1.005 --   149 C    0.973
   188   1 H    1.005 --   154 C    0.973
   189   1 H    0.999 --   155 C    0.971
   190   1 H    0.966 --   157 N    0.931
   191   1 H    1.012 --   158 C    0.986
   192   1 H    1.003 --   158 C    0.984
   193   1 H    1.007 --   158 C    0.990
   194   1 H    1.001 --   159 C    0.970
   195   1 H    1.005 --   160 C    0.973
   196   1 H    1.006 --   162 C    0.973
   197   1 H    1.002 --   163 C    0.974
   198   1 H    1.002 --   168 C    0.974
   199   1 H    1.006 --   169 C    0.973
   200   1 H    1.006 --   174 C    0.972
   201   1 H    1.001 --   175 C    0.970
   202   1 H    0.966 --   177 N    0.931
   203   1 H    1.003 --   178 C    0.984
   204   1 H    1.007 --   178 C    0.990
   205   1 H    1.012 --   178 C    0.986
   206   1 H    0.999 --   179 C    0.971
   207   1 H    1.005 --   180 C    0.973
   208   1 H    1.005 --   182 C    0.973
   209   1 H    1.002 --   183 C    0.974
 ---------------------------------------------------------------------------

           -------------------------------------------------
          | TOTAL ENERGY             -351.632035685441 Eh   |
          | GRADIENT NORM               0.000427485007 Eh/α |
          | HOMO-LUMO GAP               0.004520795485 eV   |
           -------------------------------------------------

 * finished run on 2022/07/30 at 06:39:47.490
