   * xtb version 6.5.1 (b24c23e) compiled by 'conda@728c89f4b128' on 2022-07-12
          program call               : xtb Cu_Ph2Me_C4_2.xyz --gfn 1 --opt -T 48

   ID    Z sym.   atoms
    1   29 Cu     1, 69
    2    6 C      2-6, 8-11, 13-31, 34-41, 70-74, 76-79, 81-99, 102-109,
                  137-140
    3    7 N      7, 12, 32, 33, 75, 80, 100, 101
    4    1 H      42-68, 110-136
########################################################################
[WARNING] Please study the warnings concerning your input carefully
-1- prog_main_parseArguments: Unknown option '-T' provided
########################################################################

          :  Hamiltonian                  GFN1-xTB          :
 * total energy  :  -223.2305897 Eh     change        0.2833701E-08 Eh
 * total energy  :  -224.1100054 Eh     change       -0.8794157E+00 Eh
 * total energy  :  -224.2155902 Eh     change       -0.1055848E+00 Eh
 * total energy  :  -224.2698910 Eh     change       -0.5430080E-01 Eh
 * total energy  :  -224.2843587 Eh     change       -0.1446770E-01 Eh
 * total energy  :  -224.2924696 Eh     change       -0.8110848E-02 Eh
 * total energy  :  -224.2974862 Eh     change       -0.5016651E-02 Eh
 * total energy  :  -224.3008915 Eh     change       -0.3405309E-02 Eh
 * total energy  :  -224.3033981 Eh     change       -0.2506566E-02 Eh
 * total energy  :  -224.3050152 Eh     change       -0.1617102E-02 Eh
 * total energy  :  -224.3113407 Eh     change       -0.7900317E-05 Eh
 * total energy  :  -224.3113469 Eh     change       -0.6183637E-05 Eh
 * total energy  :  -224.3113527 Eh     change       -0.5767335E-05 Eh
 * total energy  :  -224.3113508 Eh     change        0.1867837E-05 Eh
 * total energy  :  -224.3113581 Eh     change       -0.7265383E-05 Eh
 * total energy  :  -224.3111711 Eh     change        0.1870119E-03 Eh
 * total energy  :  -224.3113299 Eh     change       -0.1588351E-03 Eh
 * total energy  :  -224.3113636 Eh     change       -0.3366424E-04 Eh
 * total energy  :  -224.3113653 Eh     change       -0.1689287E-05 Eh
   *** GEOMETRY OPTIMIZATION CONVERGED AFTER 73 ITERATIONS ***

 final structure:
================
140
 xtb: 6.5.1 (b24c23e)
Cu          15.47335042027139        0.01633940082572       -0.01413059423521
C           12.07699389750277        0.16353189560443       -0.23555977013301
C           12.72975701453322        1.33283299416074        0.12540350607143
C           12.07516358394547        2.57163258797750        0.43599237734840
C           13.04575029806430        3.45978889557474        0.76523021529925
C           14.30386392162994        2.77346349741299        0.65035625509836
N           14.08004790946213        1.48308203134193        0.26436806883210
C           15.55274314161078        3.33474496931516        0.92475620271726
C           16.77108432807911        2.65820694019456        0.84482766830500
C           18.05672828019701        3.25237277811128        1.08005067181259
C           18.98649723835412        2.28636841742576        0.87068240813294
N           16.93922869254458        1.34550287883440        0.49162376256927
C           18.27755005748537        1.09803330782995        0.50061242787162
C           18.89451043868186       -0.12023893662992        0.16887344689335
C           18.22098486447101       -1.29247066751569       -0.21338406787288
C           18.87080009497862       -2.52143712609897       -0.55804233977407
C           17.89381883025683       -3.41452302784460       -0.85794172631179
C           16.63861108404134       -2.73691414563459       -0.69485140820667
C           15.38629096380211       -3.31018593788855       -0.92289376463302
C           15.35048230104095       -4.74704504512691       -1.29731437058388
C           14.86038953185678       -5.14128163220894       -2.54020663756801
C           14.82927992725565       -6.48742069780184       -2.89325761884161
C           14.28878217126309       -6.90069789299143       -4.23571944930209
C           15.28588176630249       -7.43987548399399       -1.98907427149006
C           15.77684111952573       -7.06149968431528       -0.74164815581361
C           16.28262238656432       -8.10461780663357        0.21803982900637
C           15.80978214291746       -5.71421333794959       -0.40305172838754
C           14.16643587929435       -2.63735481796671       -0.82513015401701
C           12.87415839069589       -3.23317060010968       -1.03058519601439
C           11.95069278292072       -2.25746983419122       -0.84496978170360
C           12.66850936202394       -1.05983365642550       -0.51356745220488
N           14.00923399697667       -1.31968822957692       -0.50328857951933
N           16.87171360715833       -1.44327914797905       -0.31016156252679
C           15.59104858609223        4.76447669960135        1.32563994739390
C           15.17748522612781        5.75439305983658        0.43541315676885
C           15.22089445823935        7.09545004294159        0.80057296411587
C           14.80138923481952        8.16312689134572       -0.17359759835908
C           15.67890038343251        7.44279450062476        2.06826099119260
C           16.09258219002081        6.46603918102554        2.96882570083132
C           16.56471334348775        6.85017732782694        4.34523182837033
C           16.04744195467029        5.12801971240639        2.59140542808908
H           10.99424597287219        0.20692445102303       -0.29458481145378
H           11.00785720782084        2.72598420533661        0.40855748605433
H           12.92763327135826        4.48709310674763        1.07061857661595
H           18.22315527060728        4.28099481521214        1.35626922858493
H           20.05903333702194        2.36368761256749        0.95086594036479
H           19.93873144252778       -2.67073267893707       -0.56924649676146
H           18.00850640957356       -4.43852562853192       -1.17488868682708
H           14.51767705392137       -4.38905809455527       -3.24237376038496
H           14.61665348440173       -7.90715186572565       -4.49568281274268
H           13.19665036851364       -6.89029582776782       -4.21652882879823
H           14.61853080005785       -6.21035569095251       -5.01292486512664
H           15.26144181307793       -8.49108349757816       -2.25752592102266
H           16.37354751588665       -7.69743806169150        1.22494233228468
H           15.60973593433384       -8.96262345447486        0.24412483123220
H           17.26633516128196       -8.45721122686394       -0.09980207117240
H           16.17990178755763       -5.40680702017609        0.56894633323687
H           12.70267615931990       -4.26910583011510       -1.27543156461023
H           10.87669633890722       -2.33010683119636       -0.91547301446661
H           14.83626466987798        5.47196444279600       -0.55458423182123
H           14.32778764331515        8.99692640541949        0.34541516719954
H           14.10508694719566        7.76478630668858       -0.91167943581480
H           15.67655531056961        8.54692788156018       -0.70296593885522
H           15.71465793806744        8.48825545646474        2.35711873208426
H           15.71680904541147        6.88133274246082        5.03338119527020
H           17.02960766425323        7.83627476511673        4.33523100648988
H           17.28365910150942        6.12427801807385        4.72566679189108
H           16.35653535450473        4.35680685761062        3.28852939482740
Cu          28.92311783563014        0.01391508056813       -0.02442320366876
C           32.31955392404686        0.19245223453239       -0.21914527706682
C           31.67087725994354       -0.48329439200358       -1.24198448895918
C           32.32966166439919       -1.12793941776869       -2.34201499269393
C           31.36199982912663       -1.69288098507063       -3.10603628433143
C           30.10158166303857       -1.39106355570120       -2.48368694434498
N           30.32107510820731       -0.65971747107643       -1.35182030400711
C           28.85448993129728       -1.81074044863706       -2.95113477659933
C           27.63386430466609       -1.54608636986375       -2.32792789567547
C           26.35014452752520       -1.93731615020316       -2.83804362125380
C           25.41730607427503       -1.47039558596746       -1.97010664439579
N           27.46156704784066       -0.84396136217348       -1.16452083633896
C           26.12251137765393       -0.78622517451510       -0.92782901551413
C           25.50200004222043       -0.13353332851307        0.15087609495261
C           26.17192183414677        0.55955404120736        1.17308975075870
C           25.51803392796316        1.22858847824204        2.25756567094652
C           26.49179796384460        1.76893892268853        3.03331301641241
C           27.74921260678804        1.42950480890915        2.42912893019895
C           28.99936437734870        1.81356779173973        2.91781946438617
C           29.03022700214902        2.57314222068893        4.19363978527341
C           29.52233661948047        3.87585963843197        4.22901406483845
C           29.54940749638325        4.58924306496197        5.42404302080581
C           30.09545174223377        5.99149775144398        5.45062067275484
C           29.08462894692433        3.98713539222664        6.58792976728347
C           28.59158594895036        2.68448972471391        6.56915428175552
C           28.07816864305943        2.05392886054335        7.83552966557112
C           28.56447897715401        1.98405572828624        5.36938085003534
C           30.22119289117482        1.53698474129095        2.30041206608273
C           31.51148235896117        1.90501112368439        2.81707282280268
C           32.43786001562251        1.45698559432882        1.93371419170171
C           31.72393314664062        0.80132078786822        0.87553835626695
N           30.38255841003812        0.86019791637690        1.12545503119741
N           27.52048937596728        0.69988163322112        1.29282235274159
C           28.82106764688083       -2.59449821653172       -4.21253063933969
C           29.23592131221902       -2.01509847787731       -5.41068687109160
C           29.19701999349562       -2.74045412345698       -6.59647080859762
C           29.61700669759171       -2.10212918972060       -7.89304487475357
C           28.74298469331719       -4.05609927042351       -6.57682191519010
C           28.32836291123822       -4.64915998039285       -5.38830453449204
C           27.86102524381027       -6.07965460206690       -5.37347603568219
C           28.36826053472988       -3.91265599307769       -4.20902145218076
H           33.40236795869014        0.23907913664694       -0.27443574642170
H           33.39753809760649       -1.14445104216497       -2.49397922316330
H           31.48336631986502       -2.27340649071049       -4.00650289766947
H           26.18720978154602       -2.48682464081227       -3.75104703117547
H           24.34499858091108       -1.56963169366096       -2.02545183202080
H           24.44976067011605        1.27605528728366        2.39687996795961
H           26.37322975625733        2.35738824759701        3.92875485122896
H           29.87010566318499        4.34064499863065        3.31284484384215
H           29.76858639452906        6.52108202621629        6.34544997609552
H           31.18748132505617        5.96545972446625        5.44742653087272
H           29.76933506586408        6.54885720127002        4.57177073919064
H           29.10499700993309        4.53757957917612        7.52296727692264
H           27.98430918726105        0.97384416860221        7.72361524222240
H           28.74817225077391        2.26500843171176        8.66991041088095
H           27.09469634909198        2.46033952125183        8.08176416231226
H           28.19392965420856        0.96510095719812        5.34306695044829
H           31.68001440863729        2.43008536063844        3.74356412707332
H           33.51147145724233        1.54860805290080        1.98546367927380
H           29.57462691054540       -0.98478181718155       -5.41524359542168
H           30.09522560166221       -2.83169836707945       -8.54721713325430
H           30.30939872354456       -1.27911667039083       -7.71553261609441
H           28.74135200913437       -1.70504326178213       -8.41171002409520
H           28.71111918019704       -4.62567060734281       -7.50001391517065
H           28.71108508491055       -6.74623684291088       -5.21057911443885
H           27.39790222109078       -6.34688004267992       -6.32359172028676
H           27.14194952685266       -6.24482040032216       -4.57086383388575
H           28.05794286428271       -4.36721642403653       -3.27448225139417
C           21.52264532998664       -0.17313100575398        0.21997366072640
C           20.30166903313633       -0.15920367633831        0.20382239780703
C           22.87403024048815       -0.17517297518642        0.21571147634360
C           24.09490263035704       -0.16050383701918        0.19743599465639

          :  Hamiltonian                  GFN1-xTB          :
         :: total energy            -224.311365274388 Eh    ::
         :: gradient norm              0.000262842808 Eh/a0 ::
         :: HOMO-LUMO gap              0.000056208842 eV    ::
         :: SCC energy              -227.854434895157 Eh    ::
         :: repulsion energy           3.662107763590 Eh    ::

    * Orbital Energies and Occupations

         #    Occupation            Energy/Eh            Energy/eV
      -------------------------------------------------------------
         1        2.0000           -0.7600031             -20.6807
       ...           ...                  ...                  ...
       198        2.0000           -0.4079539             -11.1010
       199        2.0000           -0.4079419             -11.1007
       200        2.0000           -0.4048024             -11.0152
       201        2.0000           -0.4047968             -11.0151
       202        2.0000           -0.4044960             -11.0069
       203        2.0000           -0.4044819             -11.0065
       204        2.0000           -0.4044767             -11.0064
       205        2.0000           -0.4044120             -11.0046
       206        2.0000           -0.3914947             -10.6531
       207        2.0000           -0.3914899             -10.6530
       208        2.0000           -0.3863411             -10.5129
       209        2.0000           -0.3772582             -10.2657
       210        1.0005           -0.3518981              -9.5756 (HOMO)
       211        0.9995           -0.3518960              -9.5756 (LUMO)
       212                         -0.3324642              -9.0468
       213                         -0.3232638              -8.7965
       214                         -0.3232598              -8.7963
       215                         -0.3219888              -8.7618
       216                         -0.2924803              -7.9588
       217                         -0.2872507              -7.8165
       218                         -0.2562049              -6.9717
       219                         -0.2560081              -6.9663
       220                         -0.2558987              -6.9634
       221                         -0.2555926              -6.9550
       ...                                ...                  ...
       462                          1.5231866              41.4480
      -------------------------------------------------------------
                  HL-Gap            0.0000021 Eh            0.0001 eV

Wiberg/Mayer (AO) data.
largest (>0.10) Wiberg bond orders for each atom

     #   Z sym  total        # sym  WBO       # sym  WBO       # sym  WBO
 ---------------------------------------------------------------------------
     1  29 Cu   2.188 --    32 N    0.506     7 N    0.506    12 N    0.503
                            33 N    0.503
     2   6 C    3.930 --     3 C    1.361    31 C    1.361    42 H    0.971
     3   6 C    3.918 --     2 C    1.361     7 N    1.230     4 C    1.171
     4   6 C    3.955 --     5 C    1.655     3 C    1.171    43 H    0.976
     5   6 C    3.958 --     4 C    1.655     6 C    1.173    44 H    0.973
     6   6 C    3.913 --     8 C    1.321     7 N    1.238     5 C    1.173
     7   7 N    3.244 --     6 C    1.238     3 C    1.230     1 Cu   0.506
     8   6 C    3.935 --     9 C    1.327     6 C    1.321    34 C    1.023
     9   6 C    3.908 --     8 C    1.327    12 N    1.222    10 C    1.179
    10   6 C    3.955 --    11 C    1.643     9 C    1.179    45 H    0.973
    11   6 C    3.957 --    10 C    1.643    13 C    1.186    46 H    0.974
    12   7 N    3.249 --    13 C    1.255     9 C    1.222     1 Cu   0.503
    13   6 C    3.900 --    14 C    1.263    12 N    1.255    11 C    1.186
    14   6 C    3.939 --    15 C    1.264    13 C    1.263   138 C    1.178
    15   6 C    3.900 --    14 C    1.264    33 N    1.255    16 C    1.186
    16   6 C    3.957 --    17 C    1.643    15 C    1.186    47 H    0.974
    17   6 C    3.955 --    16 C    1.643    18 C    1.179    48 H    0.973
    18   6 C    3.909 --    19 C    1.327    33 N    1.223    17 C    1.179
    19   6 C    3.935 --    18 C    1.327    28 C    1.321    20 C    1.024
    20   6 C    3.988 --    21 C    1.403    27 C    1.392    19 C    1.024
                            24 C    0.103
    21   6 C    3.987 --    22 C    1.411    20 C    1.403    49 H    0.972
                            25 C    0.104
    22   6 C    3.988 --    24 C    1.422    21 C    1.411    23 C    1.020
                            27 C    0.103
    23   6 C    3.996 --    22 C    1.020    50 H    0.985    52 H    0.980
                            51 H    0.972
    24   6 C    3.989 --    22 C    1.422    25 C    1.409    53 H    0.972
                            20 C    0.103
    25   6 C    3.988 --    27 C    1.423    24 C    1.409    26 C    1.020
                            21 C    0.104
    26   6 C    3.996 --    25 C    1.020    54 H    0.985    55 H    0.980
                            56 H    0.972
    27   6 C    3.987 --    25 C    1.423    20 C    1.392    57 H    0.972
                            22 C    0.103
    28   6 C    3.913 --    19 C    1.321    32 N    1.238    29 C    1.173
    29   6 C    3.958 --    30 C    1.655    28 C    1.173    58 H    0.973
    30   6 C    3.955 --    29 C    1.655    31 C    1.171    59 H    0.976
    31   6 C    3.918 --     2 C    1.361    32 N    1.230    30 C    1.171
    32   7 N    3.244 --    28 C    1.238    31 C    1.230     1 Cu   0.506
    33   7 N    3.249 --    15 C    1.255    18 C    1.223     1 Cu   0.503
    34   6 C    3.988 --    41 C    1.398    35 C    1.397     8 C    1.023
                            38 C    0.103
    35   6 C    3.987 --    36 C    1.418    34 C    1.397    60 H    0.972
                            39 C    0.103
    36   6 C    3.988 --    35 C    1.418    38 C    1.414    37 C    1.020
                            41 C    0.104
    37   6 C    3.996 --    36 C    1.020    62 H    0.984    61 H    0.982
                            63 H    0.971
    38   6 C    3.989 --    39 C    1.417    36 C    1.414    64 H    0.972
                            34 C    0.103
    39   6 C    3.988 --    38 C    1.417    41 C    1.416    40 C    1.020
                            35 C    0.103
    40   6 C    3.996 --    39 C    1.020    67 H    0.983    66 H    0.983
                            65 H    0.971
    41   6 C    3.987 --    39 C    1.416    34 C    1.398    68 H    0.972
                            36 C    0.104
    42   1 H    1.002 --     2 C    0.971
    43   1 H    0.998 --     4 C    0.976
    44   1 H    1.005 --     5 C    0.973
    45   1 H    1.005 --    10 C    0.973
    46   1 H    1.002 --    11 C    0.974
    47   1 H    1.002 --    16 C    0.974
    48   1 H    1.005 --    17 C    0.973
    49   1 H    1.003 --    21 C    0.972
    50   1 H    1.004 --    23 C    0.985
    51   1 H    1.006 --    23 C    0.972
    52   1 H    1.005 --    23 C    0.980
    53   1 H    1.000 --    24 C    0.972
    54   1 H    1.004 --    26 C    0.985
    55   1 H    1.005 --    26 C    0.980
    56   1 H    1.006 --    26 C    0.972
    57   1 H    1.003 --    27 C    0.972
    58   1 H    1.005 --    29 C    0.973
    59   1 H    0.998 --    30 C    0.976
    60   1 H    1.003 --    35 C    0.972
    61   1 H    1.004 --    37 C    0.982
    62   1 H    1.004 --    37 C    0.984
    63   1 H    1.006 --    37 C    0.971
    64   1 H    1.000 --    38 C    0.972
    65   1 H    1.006 --    40 C    0.971
    66   1 H    1.004 --    40 C    0.983
    67   1 H    1.004 --    40 C    0.983
    68   1 H    1.003 --    41 C    0.972
    69  29 Cu   2.188 --   100 N    0.506    75 N    0.506    80 N    0.503
                           101 N    0.503
    70   6 C    3.930 --    71 C    1.361    99 C    1.361   110 H    0.971
    71   6 C    3.918 --    70 C    1.361    75 N    1.230    72 C    1.171
    72   6 C    3.955 --    73 C    1.655    71 C    1.171   111 H    0.976
    73   6 C    3.958 --    72 C    1.655    74 C    1.173   112 H    0.973
    74   6 C    3.913 --    76 C    1.321    75 N    1.238    73 C    1.173
    75   7 N    3.244 --    74 C    1.238    71 C    1.230    69 Cu   0.506
    76   6 C    3.935 --    77 C    1.327    74 C    1.321   102 C    1.023
    77   6 C    3.908 --    76 C    1.327    80 N    1.222    78 C    1.179
    78   6 C    3.955 --    79 C    1.644    77 C    1.179   113 H    0.973
    79   6 C    3.957 --    78 C    1.644    81 C    1.186   114 H    0.974
    80   7 N    3.249 --    81 C    1.255    77 C    1.222    69 Cu   0.503
    81   6 C    3.900 --    82 C    1.263    80 N    1.255    79 C    1.186
    82   6 C    3.939 --    83 C    1.264    81 C    1.263   140 C    1.178
    83   6 C    3.900 --    82 C    1.264   101 N    1.255    84 C    1.186
    84   6 C    3.957 --    85 C    1.643    83 C    1.186   115 H    0.974
    85   6 C    3.955 --    84 C    1.643    86 C    1.179   116 H    0.973
    86   6 C    3.909 --    87 C    1.327   101 N    1.223    85 C    1.179
    87   6 C    3.936 --    86 C    1.327    96 C    1.321    88 C    1.024
    88   6 C    3.988 --    89 C    1.403    95 C    1.391    87 C    1.024
                            92 C    0.103
    89   6 C    3.987 --    90 C    1.411    88 C    1.403   117 H    0.972
                            93 C    0.104
    90   6 C    3.988 --    92 C    1.422    89 C    1.411    91 C    1.020
                            95 C    0.103
    91   6 C    3.996 --    90 C    1.020   118 H    0.985   120 H    0.980
                           119 H    0.972
    92   6 C    3.989 --    90 C    1.422    93 C    1.409   121 H    0.972
                            88 C    0.103
    93   6 C    3.988 --    95 C    1.423    92 C    1.409    94 C    1.020
                            89 C    0.104
    94   6 C    3.996 --    93 C    1.020   122 H    0.985   123 H    0.980
                           124 H    0.972
    95   6 C    3.987 --    93 C    1.423    88 C    1.391   125 H    0.972
                            90 C    0.103
    96   6 C    3.913 --    87 C    1.321   100 N    1.238    97 C    1.173
    97   6 C    3.958 --    98 C    1.655    96 C    1.173   126 H    0.973
    98   6 C    3.955 --    97 C    1.655    99 C    1.171   127 H    0.976
    99   6 C    3.918 --    70 C    1.361   100 N    1.230    98 C    1.171
   100   7 N    3.244 --    96 C    1.238    99 C    1.230    69 Cu   0.506
   101   7 N    3.249 --    83 C    1.255    86 C    1.223    69 Cu   0.503
   102   6 C    3.988 --   109 C    1.399   103 C    1.397    76 C    1.023
                           106 C    0.103
   103   6 C    3.987 --   104 C    1.418   102 C    1.397   128 H    0.972
                           107 C    0.103
   104   6 C    3.988 --   103 C    1.418   106 C    1.414   105 C    1.020
                           109 C    0.104
   105   6 C    3.996 --   104 C    1.020   130 H    0.984   129 H    0.982
                           131 H    0.971
   106   6 C    3.989 --   107 C    1.417   104 C    1.414   132 H    0.972
                           102 C    0.103
   107   6 C    3.988 --   106 C    1.417   109 C    1.416   108 C    1.020
                           103 C    0.103
   108   6 C    3.996 --   107 C    1.020   135 H    0.983   134 H    0.983
                           133 H    0.971
   109   6 C    3.987 --   107 C    1.416   102 C    1.399   136 H    0.972
                           104 C    0.104
   110   1 H    1.002 --    70 C    0.971
   111   1 H    0.998 --    72 C    0.976
   112   1 H    1.005 --    73 C    0.973
   113   1 H    1.005 --    78 C    0.973
   114   1 H    1.002 --    79 C    0.974
   115   1 H    1.002 --    84 C    0.974
   116   1 H    1.005 --    85 C    0.973
   117   1 H    1.003 --    89 C    0.972
   118   1 H    1.004 --    91 C    0.985
   119   1 H    1.006 --    91 C    0.972
   120   1 H    1.005 --    91 C    0.980
   121   1 H    1.000 --    92 C    0.972
   122   1 H    1.004 --    94 C    0.985
   123   1 H    1.005 --    94 C    0.980
   124   1 H    1.006 --    94 C    0.972
   125   1 H    1.003 --    95 C    0.972
   126   1 H    1.005 --    97 C    0.973
   127   1 H    0.998 --    98 C    0.976
   128   1 H    1.003 --   103 C    0.972
   129   1 H    1.004 --   105 C    0.982
   130   1 H    1.004 --   105 C    0.984
   131   1 H    1.006 --   105 C    0.971
   132   1 H    1.000 --   106 C    0.972
   133   1 H    1.006 --   108 C    0.971
   134   1 H    1.004 --   108 C    0.983
   135   1 H    1.004 --   108 C    0.983
   136   1 H    1.003 --   109 C    0.972
   137   6 C    3.935 --   138 C    2.487   139 C    1.298
   138   6 C    3.924 --   137 C    2.487    14 C    1.178   140 C    0.199
   139   6 C    3.935 --   140 C    2.487   137 C    1.298
   140   6 C    3.924 --   139 C    2.487    82 C    1.178   138 C    0.199
 ---------------------------------------------------------------------------

           -------------------------------------------------
          | TOTAL ENERGY             -224.311365274388 Eh   |
          | GRADIENT NORM               0.000262842808 Eh/α |
          | HOMO-LUMO GAP               0.000056208842 eV   |
           -------------------------------------------------

 * finished run on 2022/07/30 at 07:03:51.848
