   * xtb version 6.5.1 (b24c23e) compiled by 'conda@728c89f4b128' on 2022-07-12
          program call               : xtb Cu_Ph_C2_3.xyz --gfn 1 --opt -T 48

   ID    Z sym.   atoms
    1   29 Cu     1, 57, 117
    2    6 C      2-6, 8-11, 13-29, 32-37, 58-62, 64-67, 69-85, 88-93,
                  113-116, 118-122, 124-127, 129-145, 148-153
    3    7 N      7, 12, 30, 31, 63, 68, 86, 87, 123, 128, 146, 147
    4    1 H      38-56, 94-112, 154-171

          :  Hamiltonian                  GFN1-xTB          :
 * total energy  :  -292.8401169 Eh     change        0.1762714E-09 Eh
 * total energy  :  -293.0123226 Eh     change       -0.1722057E+00 Eh
 * total energy  :  -293.1291820 Eh     change       -0.1168594E+00 Eh
 * total energy  :  -293.1877862 Eh     change       -0.5860421E-01 Eh
 * total energy  :  -293.2127306 Eh     change       -0.2494437E-01 Eh
 * total energy  :  -293.2303425 Eh     change       -0.1761192E-01 Eh
 * total energy  :  -293.2442691 Eh     change       -0.1392665E-01 Eh
 * total energy  :  -293.2555585 Eh     change       -0.1128938E-01 Eh
 * total energy  :  -293.2643338 Eh     change       -0.8775251E-02 Eh
 * total energy  :  -293.2712458 Eh     change       -0.6912002E-02 Eh
 * total energy  :  -293.3079183 Eh     change       -0.3651567E-04 Eh
 * total energy  :  -293.3079441 Eh     change       -0.2581632E-04 Eh
 * total energy  :  -293.3079730 Eh     change       -0.2895872E-04 Eh
 * total energy  :  -293.3079924 Eh     change       -0.1933895E-04 Eh
 * total energy  :  -293.3080134 Eh     change       -0.2104299E-04 Eh
 * total energy  :  -293.3080249 Eh     change       -0.1144306E-04 Eh
 * total energy  :  -293.3080341 Eh     change       -0.9289817E-05 Eh
 * total energy  :  -293.3080423 Eh     change       -0.8147992E-05 Eh
 * total energy  :  -293.3080469 Eh     change       -0.4593968E-05 Eh
   *** GEOMETRY OPTIMIZATION CONVERGED AFTER 70 ITERATIONS ***

 final structure:
================
171
 xtb: 6.5.1 (b24c23e)
Cu          31.39331009149459       -0.01199500851040       -0.00678729254764
C           27.98441357058699       -0.04392571661959        0.01223801248157
C           28.62070096594027       -1.27569814657340       -0.03073361849526
C           27.94888660956878       -2.54352741918034       -0.01343580128692
C           28.90880239800804       -3.50009249689966       -0.06848038665296
C           30.17603590006177       -2.82412989252767       -0.13291818492047
N           29.97015275902153       -1.47512659404786       -0.09470903636591
C           31.42103046479749       -3.45152671131418       -0.21922601123426
C           32.65186124931379       -2.79200471991789       -0.23873848879007
C           33.92158993338012       -3.43505470005153       -0.42156610892329
C           34.86890982350982       -2.46451366195343       -0.37178560715804
N           32.84623576592881       -1.44294182619963       -0.10033055435798
C           34.18884009499396       -1.22325663462792       -0.15747358867253
C           34.83023516525062        0.02097815739759       -0.01540909495314
C           34.16840934336570        1.25455984364659        0.12237889824567
C           34.82995280219837        2.51744742663494        0.25398923041852
C           33.86531483252450        3.47042512834403        0.30193726116032
C           32.60246497809549        2.79401355967942        0.21713956599461
C           31.35838068539316        3.42686643846054        0.20473396121535
C           31.34286734210334        4.91056531970299        0.28336313355882
C           30.87068012431260        5.66542821070772       -0.79087499178566
C           30.86109533352178        7.05055695695286       -0.72382941818400
C           31.31690362364546        7.69715149315551        0.41705218800235
C           31.78369565928757        6.95258397239829        1.49162184559121
C           31.79949971692185        5.56711200222817        1.42623196631318
C           30.12566804135132        2.77603261820020        0.12257119200002
C           28.84392352717384        3.42679102174444        0.15226168450139
C           27.90118845339125        2.45327966597400        0.10082083578873
C           28.59743555621914        1.19967213100156        0.04385034180630
N           29.94445430522221        1.42471493317090        0.05763649378011
N           32.82040413327142        1.44547540464586        0.10983601155572
C           31.44014525206076       -4.93378966058414       -0.29230739786606
C           30.82661884682311       -5.60278778318571       -1.35196543096073
C           30.84900433878525       -6.98822376314831       -1.41358898963466
C           31.47882280731739       -7.72161356910546       -0.41738459383695
C           32.08940101919192       -7.06352640817380        0.64182454317293
C           32.07338138285278       -5.67849740238745        0.70416569075003
H           26.89949073298220       -0.05482234920431        0.03340224011659
H           26.87926803041386       -2.67151649590675        0.04265428293513
H           28.77731425254257       -4.57013449185893       -0.05553517984560
H           34.06544386599835       -4.49054585179940       -0.58678764702238
H           35.93487774267921       -2.57261471402389       -0.48531698860315
H           35.89784537180594        2.65172313949415        0.30127557329396
H           33.99444793640397        4.53769084740184        0.38088930736353
H           30.52448396748851        5.16132591881544       -1.68640169723080
H           30.49731855713803        7.62771248050532       -1.56677903319905
H           31.30797722455828        8.78004522554292        0.46847889024242
H           32.13721186256834        7.45293379636509        2.38642072959696
H           32.15437288373123        4.98672617701527        2.27065282736683
H           28.69256592733019        4.49232578886973        0.21731806623451
H           26.82778822759069        2.56014476541206        0.10576713701263
H           30.34574845804270       -5.03139356388646       -2.13817598557827
H           30.37319384050910       -7.49741006881139       -2.24442828245049
H           31.49414506018616       -8.80452782147345       -0.46620574879518
H           32.58003278384135       -7.63181891187212        1.42435249001596
H           32.54061078025806       -5.16614501729620        1.53794993936697
Cu          53.22477487909471        0.05860961745811        0.01457629027144
C           56.63383859867893        0.09089958634815        0.03807501112846
C           55.99677944984620        1.32298376866950        0.04365570104523
C           56.66796246208694        2.58947523911328        0.11056622667563
C           55.70767522879899        3.54703850285338        0.09145322326954
C           54.44077336171334        2.87351035767776        0.00047211047671
N           54.64718215688915        1.52414087306835       -0.01343695164011
C           53.19573239689931        3.50376867402775       -0.06075537880550
C           51.96478692041160        2.84565401029621       -0.10331508547036
C           50.69454540484317        3.49536215115771       -0.25669247026304
C           49.74742109618010        2.52346248646366       -0.24315242958130
N           51.77082885168872        1.49211602044665       -0.01851328258602
C           50.42814842158414        1.27461859684696       -0.08146378779546
C           49.78783307645001        0.02499716441531        0.00890837436455
C           50.45073872021330       -1.21280846495348        0.09293098455727
C           49.78961163062735       -2.48048226975834        0.16917622081112
C           50.75442295595739       -3.43445273123516        0.17207221789252
C           52.01706123631860       -2.75467681077431        0.11609315459592
C           53.26119486815604       -3.38612679874183        0.07431952779620
C           53.27693784335891       -4.87188411212046        0.08220694918732
C           53.74914693561691       -5.57390157594750       -1.02727066502203
C           53.75837351331126       -6.96066087852844       -1.02746845871568
C           53.30229761606540       -7.66164684300136        0.08067968344599
C           52.83561445955990       -6.96990921355339        1.19008031203507
C           52.82011479522232       -5.58291443613550        1.19192911345891
C           54.49385916649553       -2.73202324374858        0.02327504135518
C           55.77578104752805       -3.38312162442514        0.02675475114040
C           56.71823558064627       -2.40798612739444        0.02060873088740
C           56.02158103825145       -1.15330553022468        0.01690857897502
N           54.67467357825965       -1.37917427975417        0.01842579976136
N           51.79878644564320       -1.40262569007859        0.07017614161860
C           53.17739039475227        4.98777959293785       -0.07776919544044
C           53.78909578634216        5.69560099573032       -1.11292728208079
C           53.76810933278707        7.08244315316105       -1.12217813807924
C           53.14161553568118        7.77830724459921       -0.09744878610898
C           52.53299675771101        7.08133086104762        0.93781879526952
C           52.54755605149260        5.69495564899584        0.94779201534436
H           57.71872157861837        0.10168070294521        0.06119492166276
H           57.73747183167779        2.71575520502530        0.17228559920917
H           55.83858838783429        4.61585272605829        0.14554294651484
H           50.55023950873414        4.55664043503711       -0.37884423494550
H           48.68112212706226        2.63583259597245       -0.34899149790740
H           48.72184578506653       -2.61699298397136        0.21257278723059
H           50.62544585226588       -4.50421125239270        0.20270843435623
H           54.09557631976212       -5.02703204795851       -1.89724485611712
H           54.12198631236724       -7.49641351746576       -1.89739824334566
H           53.31089566746720       -8.74576464490337        0.07950485546208
H           52.48187692206068       -7.51299812383304        2.05950460152313
H           52.46528445853028       -5.04399430970149        2.06342335286040
H           55.92717698156120       -4.45048585227959        0.04505832504125
H           57.79167502427839       -2.51457809748432        0.02328050661899
H           54.26763570867337        5.15377699650701       -1.92115773043779
H           54.24254401291763        7.62215952993707       -1.93432730290368
H           53.12731807191219        8.86231922102707       -0.10526049589488
H           52.04518254654824        7.62026442476796        1.74256156516626
H           52.08203969356330        5.15183518810393        1.76285673140691
C           36.24036551733754        0.03014517977389       -0.01790322104443
C           37.45804442346152        0.03205448493251       -0.00763066518720
C           47.15998599771721        0.01171163203137        0.01385734307319
C           48.37768736196971        0.01450596610783        0.00630158319551
Cu          42.30874833441096        0.02175766113306        0.02178157821098
C           38.86729071614787        0.03002911553089        0.00331590853289
C           39.51957235773044       -1.21217502940236        0.11463856212052
C           38.85695403874119       -2.46337869260673        0.32224993887538
C           39.81253412943207       -3.42789284171731        0.30663258289320
C           41.06779763920289       -2.76987803590734        0.08703555384855
N           40.86000913176272       -1.41921237460037       -0.00377292329781
C           42.30065246820856       -3.41477631403300       -0.03608204268022
C           43.53614870466102       -2.77184678283768       -0.14236318621540
C           44.78708120935906       -3.42891789166661       -0.38848916683697
C           45.74694272937946       -2.46870890266630       -0.38115356275717
N           43.75103190322635       -1.42589609357095       -0.01069614147198
C           45.09187787932176       -1.22151049191587       -0.13073813171944
C           45.75069984374080        0.01278819791604        0.02004033793149
C           45.09766645382032        1.24915935639830        0.17972555451248
C           45.75938303681768        2.49090735840868        0.44096279355291
C           44.80376676853560        3.45511795414005        0.46179925351641
C           43.54935845717103        2.80662861863424        0.21096224423247
C           42.31714527090917        3.45592679005640        0.10974499046263
C           42.31852512971203        4.93847118245255        0.15653394042340
C           41.61045169747126        5.61426248181921        1.15172847752215
C           41.61513477535221        7.00007039492274        1.19790294688592
C           42.31964224414197        7.72790981781713        0.24841821771232
C           43.02351595342978        7.06345486319826       -0.74677381629973
C           43.02706786453025        5.67746194016099       -0.79204949443120
C           41.08251844329901        2.81828072457841       -0.03124849428725
C           39.83276618543767        3.48564470098293       -0.25391990392861
C           38.87285637037564        2.52622834673797       -0.29266320556307
C           39.52676338138363        1.26921494363820       -0.09337161089467
N           40.86726071052585        1.46782188389155        0.04077247999098
N           43.75766311638017        1.46074272543220        0.06505503678083
C           42.29827724136611       -4.89766141870954       -0.05725539602319
C           41.58742145253751       -5.59094474801577       -1.03834396778892
C           41.59031601696449       -6.97741688612703       -1.05875700040834
C           42.29573999579630       -7.68850366041830       -0.09733836591189
C           43.00245498029575       -7.00667344939219        0.88412443574928
C           43.00788206713425       -5.62020088988611        0.90346997951287
H           37.79754326605855       -2.58162416995895        0.47906107123275
H           39.68343840225578       -4.48844488684878        0.45043287570532
H           44.90977745185331       -4.48529621973721       -0.56476738861901
H           46.80503406056155       -2.58720606722042       -0.54607500977957
H           46.81836369870640        2.60206699181948        0.60562722583432
H           44.93161604751510        4.50902976395023        0.64897408894767
H           41.06940522231584        5.04695743180705        1.90093860183128
H           41.06684897281730        7.51421981108499        1.97953769693064
H           42.32004393613759        8.81145878469824        0.28404353968337
H           43.57228680914198        7.62750569868371       -1.49282011353045
H           43.56737070168423        5.16043619398916       -1.57727973637417
H           39.71087088279399        4.54880256988335       -0.38412080540918
H           37.81538197406975        2.65175947971175       -0.45654075798340
H           41.04626611838977       -5.03703416931033       -1.79737982957481
H           41.04050055863541       -7.50540560995212       -1.82997742987672
H           42.29488666906418       -8.77252276889334       -0.11307792315176
H           43.55160472236966       -7.55756215089305        1.63967132097538
H           43.55048671745298       -5.08934663288909        1.67780364065982

          :  Hamiltonian                  GFN1-xTB          :
         :: total energy            -293.308046891657 Eh    ::
         :: gradient norm              0.000869074581 Eh/a0 ::
         :: HOMO-LUMO gap              0.004408508663 eV    ::
         :: SCC energy              -297.946294249714 Eh    ::
         :: repulsion energy           4.799121055655 Eh    ::

    * Orbital Energies and Occupations

         #    Occupation            Energy/Eh            Energy/eV
      -------------------------------------------------------------
         1        2.0000           -0.7628855             -20.7592
       ...           ...                  ...                  ...
       263        2.0000           -0.4069347             -11.0733
       264        2.0000           -0.4068932             -11.0721
       265        2.0000           -0.4068640             -11.0713
       266        2.0000           -0.4068502             -11.0710
       267        2.0000           -0.4067633             -11.0686
       268        2.0000           -0.3955840             -10.7644
       269        2.0000           -0.3946178             -10.7381
       270        2.0000           -0.3941834             -10.7263
       271        2.0000           -0.3941827             -10.7263
       272        2.0000           -0.3861192             -10.5068
       273        2.0000           -0.3761965             -10.2368
       274        1.0595           -0.3544086              -9.6439
       275        1.0081           -0.3542986              -9.6410 (HOMO)
       276        0.9325           -0.3541366              -9.6365 (LUMO)
       277        0.0000           -0.3408696              -9.2755
       278                         -0.3288906              -8.9496
       279                         -0.3270880              -8.9005
       280                         -0.3262786              -8.8785
       281                         -0.3262743              -8.8784
       282                         -0.3175136              -8.6400
       283                         -0.2982070              -8.1146
       284                         -0.2896133              -7.8808
       285                         -0.2854643              -7.7679
       286                         -0.2637938              -7.1782
       ...                                ...                  ...
       587                          1.3376965              36.4006
      -------------------------------------------------------------
                  HL-Gap            0.0001620 Eh            0.0044 eV

Wiberg/Mayer (AO) data.
largest (>0.10) Wiberg bond orders for each atom

     #   Z sym  total        # sym  WBO       # sym  WBO       # sym  WBO
 ---------------------------------------------------------------------------
     1  29 Cu   2.183 --    30 N    0.505     7 N    0.504    12 N    0.502
                            31 N    0.502
     2   6 C    3.928 --    29 C    1.361     3 C    1.360    38 H    0.971
     3   6 C    3.918 --     2 C    1.360     7 N    1.230     4 C    1.171
     4   6 C    3.955 --     5 C    1.655     3 C    1.171    39 H    0.976
     5   6 C    3.958 --     4 C    1.655     6 C    1.173    40 H    0.973
     6   6 C    3.914 --     8 C    1.319     7 N    1.239     5 C    1.173
     7   7 N    3.242 --     6 C    1.239     3 C    1.230     1 Cu   0.504
     8   6 C    3.934 --     9 C    1.325     6 C    1.319    32 C    1.028
     9   6 C    3.909 --     8 C    1.325    12 N    1.222    10 C    1.180
    10   6 C    3.954 --    11 C    1.640     9 C    1.180    41 H    0.973
    11   6 C    3.957 --    10 C    1.640    13 C    1.188    42 H    0.968
    12   7 N    3.247 --    13 C    1.256     9 C    1.222     1 Cu   0.502
    13   6 C    3.901 --    14 C    1.261    12 N    1.256    11 C    1.188
    14   6 C    3.939 --    15 C    1.262    13 C    1.261   113 C    1.180
    15   6 C    3.901 --    14 C    1.262    31 N    1.257    16 C    1.187
    16   6 C    3.957 --    17 C    1.642    15 C    1.187    43 H    0.967
    17   6 C    3.954 --    16 C    1.642    18 C    1.180    44 H    0.973
    18   6 C    3.909 --    19 C    1.328    31 N    1.221    17 C    1.180
    19   6 C    3.933 --    18 C    1.328    26 C    1.321    20 C    1.022
    20   6 C    3.988 --    25 C    1.398    21 C    1.397    19 C    1.022
                            23 C    0.109
    21   6 C    3.988 --    22 C    1.447    20 C    1.397    45 H    0.973
                            24 C    0.110
    22   6 C    3.995 --    21 C    1.447    23 C    1.438    46 H    0.973
                            25 C    0.110
    23   6 C    3.991 --    24 C    1.439    22 C    1.438    47 H    0.974
                            20 C    0.109
    24   6 C    3.995 --    25 C    1.446    23 C    1.439    48 H    0.973
                            21 C    0.110
    25   6 C    3.989 --    24 C    1.446    20 C    1.398    49 H    0.973
                            22 C    0.110
    26   6 C    3.913 --    19 C    1.321    30 N    1.239    27 C    1.172
    27   6 C    3.958 --    28 C    1.656    26 C    1.172    50 H    0.973
    28   6 C    3.955 --    27 C    1.656    29 C    1.170    51 H    0.976
    29   6 C    3.917 --     2 C    1.361    30 N    1.230    28 C    1.170
    30   7 N    3.243 --    26 C    1.239    29 C    1.230     1 Cu   0.505
    31   7 N    3.246 --    15 C    1.257    18 C    1.221     1 Cu   0.502
    32   6 C    3.988 --    33 C    1.396    37 C    1.394     8 C    1.028
                            35 C    0.108
    33   6 C    3.988 --    34 C    1.447    32 C    1.396    52 H    0.973
                            36 C    0.109
    34   6 C    3.995 --    33 C    1.447    35 C    1.438    53 H    0.973
                            37 C    0.110
    35   6 C    3.990 --    34 C    1.438    36 C    1.437    54 H    0.974
                            32 C    0.108
    36   6 C    3.995 --    37 C    1.448    35 C    1.437    55 H    0.973
                            33 C    0.109
    37   6 C    3.988 --    36 C    1.448    32 C    1.394    56 H    0.973
                            34 C    0.110
    38   1 H    1.002 --     2 C    0.971
    39   1 H    0.998 --     4 C    0.976
    40   1 H    1.005 --     5 C    0.973
    41   1 H    1.005 --    10 C    0.973
    42   1 H    1.007 --    11 C    0.968
    43   1 H    1.007 --    16 C    0.967
    44   1 H    1.005 --    17 C    0.973
    45   1 H    1.005 --    21 C    0.973
    46   1 H    1.003 --    22 C    0.973
    47   1 H    1.003 --    23 C    0.974
    48   1 H    1.003 --    24 C    0.973
    49   1 H    1.005 --    25 C    0.973
    50   1 H    1.005 --    27 C    0.973
    51   1 H    0.998 --    28 C    0.976
    52   1 H    1.005 --    33 C    0.973
    53   1 H    1.003 --    34 C    0.973
    54   1 H    1.003 --    35 C    0.974
    55   1 H    1.003 --    36 C    0.973
    56   1 H    1.005 --    37 C    0.973
    57  29 Cu   2.183 --    86 N    0.504    63 N    0.504    68 N    0.502
                            87 N    0.502
    58   6 C    3.928 --    85 C    1.361    59 C    1.361    94 H    0.971
    59   6 C    3.918 --    58 C    1.361    63 N    1.230    60 C    1.171
    60   6 C    3.955 --    61 C    1.655    59 C    1.171    95 H    0.976
    61   6 C    3.958 --    60 C    1.655    62 C    1.173    96 H    0.973
    62   6 C    3.914 --    64 C    1.319    63 N    1.239    61 C    1.173
    63   7 N    3.242 --    62 C    1.239    59 C    1.230    57 Cu   0.504
    64   6 C    3.934 --    65 C    1.325    62 C    1.319    88 C    1.028
    65   6 C    3.909 --    64 C    1.325    68 N    1.222    66 C    1.180
    66   6 C    3.954 --    67 C    1.640    65 C    1.180    97 H    0.973
    67   6 C    3.957 --    66 C    1.640    69 C    1.188    98 H    0.968
    68   7 N    3.246 --    69 C    1.256    65 C    1.222    57 Cu   0.502
    69   6 C    3.901 --    70 C    1.261    68 N    1.256    67 C    1.188
    70   6 C    3.939 --    71 C    1.262    69 C    1.261   116 C    1.180
    71   6 C    3.901 --    70 C    1.262    87 N    1.257    72 C    1.187
    72   6 C    3.957 --    73 C    1.642    71 C    1.187    99 H    0.967
    73   6 C    3.954 --    72 C    1.642    74 C    1.180   100 H    0.973
    74   6 C    3.909 --    75 C    1.328    87 N    1.221    73 C    1.180
    75   6 C    3.933 --    74 C    1.328    82 C    1.321    76 C    1.022
    76   6 C    3.988 --    81 C    1.398    77 C    1.397    75 C    1.022
                            79 C    0.109
    77   6 C    3.988 --    78 C    1.447    76 C    1.397   101 H    0.973
                            80 C    0.110
    78   6 C    3.995 --    77 C    1.447    79 C    1.438   102 H    0.973
                            81 C    0.110
    79   6 C    3.991 --    80 C    1.438    78 C    1.438   103 H    0.974
                            76 C    0.109
    80   6 C    3.995 --    81 C    1.446    79 C    1.438   104 H    0.973
                            77 C    0.110
    81   6 C    3.989 --    80 C    1.446    76 C    1.398   105 H    0.973
                            78 C    0.110
    82   6 C    3.913 --    75 C    1.321    86 N    1.239    83 C    1.172
    83   6 C    3.958 --    84 C    1.656    82 C    1.172   106 H    0.974
    84   6 C    3.955 --    83 C    1.656    85 C    1.170   107 H    0.976
    85   6 C    3.917 --    58 C    1.361    86 N    1.230    84 C    1.170
    86   7 N    3.243 --    82 C    1.239    85 C    1.230    57 Cu   0.504
    87   7 N    3.247 --    71 C    1.257    74 C    1.221    57 Cu   0.502
    88   6 C    3.988 --    89 C    1.396    93 C    1.394    64 C    1.028
                            91 C    0.108
    89   6 C    3.988 --    90 C    1.447    88 C    1.396   108 H    0.973
                            92 C    0.109
    90   6 C    3.995 --    89 C    1.447    91 C    1.438   109 H    0.973
                            93 C    0.110
    91   6 C    3.990 --    90 C    1.438    92 C    1.437   110 H    0.974
                            88 C    0.108
    92   6 C    3.995 --    93 C    1.448    91 C    1.437   111 H    0.973
                            89 C    0.109
    93   6 C    3.988 --    92 C    1.448    88 C    1.394   112 H    0.973
                            90 C    0.110
    94   1 H    1.002 --    58 C    0.971
    95   1 H    0.998 --    60 C    0.976
    96   1 H    1.005 --    61 C    0.973
    97   1 H    1.005 --    66 C    0.973
    98   1 H    1.007 --    67 C    0.968
    99   1 H    1.007 --    72 C    0.967
   100   1 H    1.005 --    73 C    0.973
   101   1 H    1.004 --    77 C    0.973
   102   1 H    1.003 --    78 C    0.973
   103   1 H    1.003 --    79 C    0.974
   104   1 H    1.003 --    80 C    0.973
   105   1 H    1.005 --    81 C    0.973
   106   1 H    1.005 --    83 C    0.974
   107   1 H    0.998 --    84 C    0.976
   108   1 H    1.005 --    89 C    0.973
   109   1 H    1.003 --    90 C    0.973
   110   1 H    1.003 --    91 C    0.974
   111   1 H    1.003 --    92 C    0.973
   112   1 H    1.005 --    93 C    0.973
   113   6 C    3.932 --   114 C    2.575    14 C    1.180
   114   6 C    3.936 --   113 C    2.575   118 C    1.182
   115   6 C    3.936 --   116 C    2.576   130 C    1.182
   116   6 C    3.932 --   115 C    2.576    70 C    1.180
   117  29 Cu   2.175 --   146 N    0.499   147 N    0.499   123 N    0.499
                           128 N    0.499
   118   6 C    3.926 --   145 C    1.259   119 C    1.258   114 C    1.182
   119   6 C    3.903 --   118 C    1.258   123 N    1.257   120 C    1.191
   120   6 C    3.955 --   121 C    1.636   119 C    1.191   154 H    0.968
   121   6 C    3.955 --   120 C    1.636   122 C    1.183   155 H    0.973
   122   6 C    3.908 --   124 C    1.321   123 N    1.223   121 C    1.183
   123   7 N    3.238 --   119 C    1.257   122 C    1.223   117 Cu   0.499
   124   6 C    3.928 --   122 C    1.321   125 C    1.320   148 C    1.031
   125   6 C    3.908 --   124 C    1.320   128 N    1.223   126 C    1.183
   126   6 C    3.955 --   127 C    1.637   125 C    1.183   156 H    0.974
   127   6 C    3.955 --   126 C    1.637   129 C    1.190   157 H    0.967
   128   7 N    3.238 --   129 C    1.257   125 C    1.223   117 Cu   0.499
   129   6 C    3.903 --   130 C    1.259   128 N    1.257   127 C    1.190
   130   6 C    3.926 --   129 C    1.259   131 C    1.258   115 C    1.182
   131   6 C    3.903 --   130 C    1.258   147 N    1.258   132 C    1.190
   132   6 C    3.955 --   133 C    1.637   131 C    1.190   158 H    0.968
   133   6 C    3.955 --   132 C    1.637   134 C    1.183   159 H    0.974
   134   6 C    3.908 --   135 C    1.321   147 N    1.222   133 C    1.183
   135   6 C    3.928 --   134 C    1.321   142 C    1.320   136 C    1.031
   136   6 C    3.988 --   141 C    1.394   137 C    1.393   135 C    1.031
                           139 C    0.107
   137   6 C    3.987 --   138 C    1.448   136 C    1.393   160 H    0.973
                           140 C    0.109
   138   6 C    3.995 --   137 C    1.448   139 C    1.437   161 H    0.973
                           141 C    0.109
   139   6 C    3.989 --   140 C    1.437   138 C    1.437   162 H    0.974
                           136 C    0.107
   140   6 C    3.995 --   141 C    1.448   139 C    1.437   163 H    0.973
                           137 C    0.109
   141   6 C    3.987 --   140 C    1.448   136 C    1.394   164 H    0.973
                           138 C    0.109
   142   6 C    3.908 --   135 C    1.320   146 N    1.223   143 C    1.183
   143   6 C    3.955 --   144 C    1.636   142 C    1.183   165 H    0.974
   144   6 C    3.955 --   143 C    1.636   145 C    1.190   166 H    0.967
   145   6 C    3.903 --   118 C    1.259   146 N    1.256   144 C    1.190
   146   7 N    3.238 --   145 C    1.256   142 C    1.223   117 Cu   0.499
   147   7 N    3.238 --   131 C    1.258   134 C    1.222   117 Cu   0.499
   148   6 C    3.988 --   149 C    1.393   153 C    1.393   124 C    1.031
                           151 C    0.107
   149   6 C    3.987 --   150 C    1.448   148 C    1.393   167 H    0.973
                           152 C    0.109
   150   6 C    3.995 --   149 C    1.448   151 C    1.437   168 H    0.973
                           153 C    0.109
   151   6 C    3.989 --   150 C    1.437   152 C    1.437   169 H    0.974
                           148 C    0.107
   152   6 C    3.995 --   153 C    1.448   151 C    1.437   170 H    0.973
                           149 C    0.109
   153   6 C    3.987 --   152 C    1.448   148 C    1.393   171 H    0.973
                           150 C    0.109
   154   1 H    1.006 --   120 C    0.968
   155   1 H    1.005 --   121 C    0.973
   156   1 H    1.005 --   126 C    0.974
   157   1 H    1.006 --   127 C    0.967
   158   1 H    1.006 --   132 C    0.968
   159   1 H    1.005 --   133 C    0.974
   160   1 H    1.005 --   137 C    0.973
   161   1 H    1.003 --   138 C    0.973
   162   1 H    1.003 --   139 C    0.974
   163   1 H    1.003 --   140 C    0.973
   164   1 H    1.005 --   141 C    0.973
   165   1 H    1.005 --   143 C    0.974
   166   1 H    1.006 --   144 C    0.967
   167   1 H    1.005 --   149 C    0.973
   168   1 H    1.003 --   150 C    0.973
   169   1 H    1.003 --   151 C    0.974
   170   1 H    1.003 --   152 C    0.973
   171   1 H    1.005 --   153 C    0.973
 ---------------------------------------------------------------------------

           -------------------------------------------------
          | TOTAL ENERGY             -293.308046891657 Eh   |
          | GRADIENT NORM               0.000869074581 Eh/α |
          | HOMO-LUMO GAP               0.004408508663 eV   |
           -------------------------------------------------

 * finished run on 2022/07/30 at 08:36:29.250
