   * xtb version 6.4.1 (bd6e46d) compiled by 'conda@4901f00b25ba' on 2021-06-10
          program call               : xtb Co_TPP.xyz --gfn 2 --opt
          number of atoms            :                    77
          number of electrons        :                   233
          charge                     :                     0
          spin                       :                   0.5

   ID    Z sym.   atoms
    1   27 Co     1
    2    6 C      2-23, 25-34, 36-47
    3    7 N      24, 35, 48, 49
    4    1 H      50-77

          :  Hamiltonian                  GFN2-xTB          :
 * total energy  :  -123.8435557 Eh     change       -0.2768346E-08 Eh
 * total energy  :  -123.8873703 Eh     change       -0.4381459E-01 Eh
 * total energy  :  -123.9109506 Eh     change       -0.2358030E-01 Eh
 * total energy  :  -123.9175733 Eh     change       -0.6622686E-02 Eh
 * total energy  :  -123.9210127 Eh     change       -0.3439467E-02 Eh
 * total energy  :  -123.9222072 Eh     change       -0.1194484E-02 Eh
 * total energy  :  -123.9228049 Eh     change       -0.5976870E-03 Eh
 * total energy  :  -123.9231705 Eh     change       -0.3655878E-03 Eh
 * total energy  :  -123.9235045 Eh     change       -0.3339760E-03 Eh
 * total energy  :  -123.9238369 Eh     change       -0.3324419E-03 Eh
 * total energy  :  -123.9250467 Eh     change       -0.1476590E-04 Eh
 * total energy  :  -123.9250537 Eh     change       -0.7000982E-05 Eh
 * total energy  :  -123.9250719 Eh     change       -0.1823697E-04 Eh
 * total energy  :  -123.9250839 Eh     change       -0.1195606E-04 Eh
 * total energy  :  -123.9251019 Eh     change       -0.1800147E-04 Eh
 * total energy  :  -123.9251113 Eh     change       -0.9371020E-05 Eh
 * total energy  :  -123.9251173 Eh     change       -0.5987010E-05 Eh
 * total energy  :  -123.9251226 Eh     change       -0.5337555E-05 Eh
 * total energy  :  -123.9251271 Eh     change       -0.4472973E-05 Eh
   *** GEOMETRY OPTIMIZATION CONVERGED AFTER 31 ITERATIONS ***

 final structure:
================
77
 xtb: 6.4.1 (bd6e46d)
Co       -0.08845454457866    0.17158069325496    0.01508270536173
C        -3.46011954907910    0.63740568444807    0.09995170717819
C        -4.92224193016056    0.83488243880025    0.14203143110867
C        -5.55113620387961    1.65772848134395   -0.78749262826316
C        -6.92219778668669    1.83497998160172   -0.75068997240662
C        -7.68063831765932    1.19997532604689    0.21862376497458
C        -7.06175728289273    0.38273162769012    1.14979314661964
C        -5.69188748150426    0.19708514962711    1.11032597486448
C        -2.95842195392443   -0.63790273429961   -0.11917415963418
C        -3.78768825403101   -1.77182814388709   -0.39759021085455
C        -2.97128226000207   -2.84859396444078   -0.42949750721299
C        -1.64851781967337   -2.36682361234171   -0.16594557762054
C        -0.55407807586523   -3.20123986792167    0.01331220233247
C        -0.75622135274920   -4.66311956825519    0.00900124341643
C        -0.12340150416526   -5.46050975489512   -0.94003874916839
C        -0.31754188633719   -6.82975650542347   -0.94564182427347
C        -1.13915632533766   -7.42041406297834    0.00000521005292
C        -1.76900258935539   -6.63441580668465    0.95062762642641
C        -1.58244417894458   -5.26415018022480    0.95413288264164
C         0.72436124027900   -2.69593195480246    0.20471765754207
C         1.86216225778946   -3.51881131041063    0.48650892895659
C         2.93888402223418   -2.70166074191767    0.48783261550351
C         2.45323688721423   -1.38473349993522    0.20286610322270
N         1.08932577984331   -1.38219513962024    0.08778933090784
C         3.28433959625156   -0.29338093236827   -0.00743892613084
C         4.74686749290072   -0.49074582977137   -0.01110416192339
C         5.34392804274359   -1.33543402639746   -0.94228409625856
C         6.71530223291155   -1.51384129307675   -0.94760443641254
C         7.50652205337328   -0.85722513494145   -0.01973059584782
C         6.91983531797683   -0.01753322573102    0.91242094464484
C         5.54947056549127    0.16835400592372    0.91548787589533
C         2.77536863397741    0.97977067559597   -0.22381328061273
C         3.59401696599396    2.11008306170936   -0.54508068805876
C         2.77597937322105    3.18584038264495   -0.56641736501084
N         1.46270450604841    1.34690812216744   -0.10174555817422
C         1.46294368441559    2.70751672209249   -0.25250129570578
C         0.37463362468228    3.54440520846817   -0.04939493171568
C         0.57286328849713    5.00617358192399   -0.08950597826632
C         1.43258782423158    5.62868247091317    0.81073068718874
C         1.61536412993291    6.99891004551529    0.77103083726776
C         0.94793838062727    7.76343145848230   -0.17140729110388
C         0.09217980182619    7.15141917197510   -1.07209365930237
C        -0.09802566983724    5.78229913949572   -1.03009120379366
C        -0.89585939419633    3.04170189017425    0.19553482796448
C        -2.02328501961293    3.86791565467030    0.50746056283496
C        -3.09891633366379    3.05069016723416    0.55720159726518
C        -2.62284442195888    1.73063874062178    0.27138613181283
N        -1.26376807166140    1.72663644539386    0.10879386813376
N        -1.64251788387719   -1.00429884358755   -0.03517606204314
H        -4.95822898738897    2.14682261708599   -1.54673867231606
H        -7.40103580842037    2.47008875380010   -1.48168261693242
H        -8.75094355614205    1.34124097897049    0.24800822740105
H        -7.64877506156990   -0.11211026854926    1.90978686133336
H        -5.20618730756656   -0.43622275174189    1.83848283474307
H        -4.84758259807641   -1.73157125516757   -0.55537004869858
H        -3.22383382507847   -3.87327280819271   -0.61932296370071
H         0.51195820471339   -4.99686866678796   -1.68067948951560
H         0.17352039820924   -7.43839361255203   -1.69093329884378
H        -1.28801182400067   -8.49008292565484   -0.00368025185459
H        -2.40788031093449   -7.09095733941153    1.69253617294025
H        -2.06753140768106   -4.64991348332692    1.69886905366539
H         1.82488177945337   -4.57519861512792    0.66689015208622
H         3.96602570493017   -2.95040871819571    0.66931735929580
H         4.72570815308995   -1.84088679335564   -1.66997433919194
H         7.16866078249565   -2.16701966192244   -1.67897678271717
H         8.57712139740682   -0.99922375583801   -0.02324259308107
H         7.53257621740784    0.49454494579516    1.63998654960668
H         5.08919464184132    0.81844501433180    1.64539716324843
H         4.64820274320880    2.06839197645993   -0.73694843588431
H         3.02163072265612    4.20760821252201   -0.77949571504278
H         1.94712605981089    5.03133520253746    1.54942240787557
H         2.28103802400817    7.47218781180346    1.47810736956137
H         1.09407854149603    8.83299074770392   -0.20366842783992
H        -0.42879382992342    7.74325078782009   -1.81060241772712
H        -0.76022818900182    5.30198028770204   -1.73579911940147
H        -1.98008816036438    4.92640016834914    0.67376695613660
H        -4.11927011540765    3.30111795704030    0.77184136053059

          :  Hamiltonian                  GFN2-xTB          :
         :: total energy            -123.925127085130 Eh    ::
         :: gradient norm              0.000327209408 Eh/a0 ::
         :: HOMO-LUMO gap              1.355585721611 eV    ::
         :: SCC energy              -126.162676649965 Eh    ::
         :: -> dispersion             -0.120572669345 Eh    ::
         :: repulsion energy           2.238134208009 Eh    ::

    * Orbital Energies and Occupations

         #    Occupation            Energy/Eh            Energy/eV
      -------------------------------------------------------------
         1        2.0000           -0.6632341             -18.0475
       ...           ...                  ...                  ...
       105        2.0000           -0.4035616             -10.9815
       106        2.0000           -0.3980031             -10.8302
       107        2.0000           -0.3979621             -10.8291
       108        2.0000           -0.3959562             -10.7745
       109        2.0000           -0.3959118             -10.7733
       110        2.0000           -0.3958631             -10.7720
       111        2.0000           -0.3951407             -10.7523
       112        2.0000           -0.3622705              -9.8579
       113        2.0000           -0.3537465              -9.6259
       114        1.8555           -0.3415560              -9.2942
       115        1.8527           -0.3415349              -9.2936
       116        1.8065           -0.3412226              -9.2851
       117        1.4854           -0.3398112              -9.2467 (HOMO)
       118                         -0.2899943              -7.8911 (LUMO)
       119                         -0.2899610              -7.8902
       120                         -0.2539183              -6.9095
       121                         -0.2531031              -6.8873
       122                         -0.2261722              -6.1545
       123                         -0.2246162              -6.1121
       124                         -0.2246043              -6.1118
       125                         -0.2245780              -6.1111
       126                         -0.2243650              -6.1053
       127                         -0.2238389              -6.0910
       128                         -0.2238179              -6.0904
       ...                                ...                  ...
       229                          0.9020688              24.5465
      -------------------------------------------------------------
                  HL-Gap            0.0498169 Eh            1.3556 eV

     #   Z          covCN         q      C6AA      α(0)
     1  27 Co       3.085     0.089   141.106    24.337
     2   6 C        2.964    -0.009    28.246     8.718
     3   6 C        2.981     0.016    27.638     8.624
     4   6 C        2.924    -0.031    28.774     8.797
     5   6 C        2.919    -0.029    28.726     8.789
     6   6 C        2.920    -0.031    28.768     8.796
     7   6 C        2.919    -0.029    28.726     8.789
     8   6 C        2.925    -0.031    28.773     8.797
     9   6 C        3.177     0.067    26.108     8.343
    10   6 C        3.021    -0.053    29.283     8.876
    11   6 C        3.021    -0.053    29.283     8.876
    12   6 C        3.177     0.067    26.109     8.344
    13   6 C        2.964    -0.009    28.248     8.718
    14   6 C        2.981     0.016    27.640     8.624
    15   6 C        2.924    -0.031    28.774     8.797
    16   6 C        2.919    -0.029    28.727     8.789
    17   6 C        2.920    -0.031    28.768     8.796
    18   6 C        2.919    -0.029    28.727     8.789
    19   6 C        2.924    -0.031    28.774     8.797
    20   6 C        3.176     0.067    26.111     8.344
    21   6 C        3.021    -0.053    29.284     8.877
    22   6 C        3.021    -0.053    29.284     8.877
    23   6 C        3.176     0.067    26.111     8.344
    24   7 N        2.638    -0.134    23.906     7.262
    25   6 C        2.964    -0.009    28.248     8.718
    26   6 C        2.981     0.016    27.640     8.624
    27   6 C        2.924    -0.031    28.775     8.797
    28   6 C        2.919    -0.029    28.727     8.789
    29   6 C        2.920    -0.031    28.768     8.796
    30   6 C        2.919    -0.029    28.726     8.789
    31   6 C        2.924    -0.031    28.773     8.797
    32   6 C        3.176     0.067    26.110     8.344
    33   6 C        3.021    -0.053    29.284     8.877
    34   6 C        3.021    -0.053    29.284     8.877
    35   7 N        2.639    -0.134    23.904     7.261
    36   6 C        3.176     0.067    26.112     8.344
    37   6 C        2.964    -0.009    28.247     8.718
    38   6 C        2.981     0.016    27.640     8.624
    39   6 C        2.924    -0.031    28.775     8.797
    40   6 C        2.919    -0.029    28.727     8.789
    41   6 C        2.920    -0.031    28.768     8.796
    42   6 C        2.919    -0.029    28.726     8.789
    43   6 C        2.925    -0.031    28.773     8.797
    44   6 C        3.177     0.067    26.108     8.344
    45   6 C        3.021    -0.053    29.282     8.876
    46   6 C        3.021    -0.053    29.282     8.876
    47   6 C        3.177     0.067    26.108     8.344
    48   7 N        2.638    -0.134    23.908     7.262
    49   7 N        2.639    -0.134    23.903     7.261
    50   1 H        0.926     0.033     2.541     2.493
    51   1 H        0.926     0.032     2.555     2.499
    52   1 H        0.926     0.031     2.566     2.505
    53   1 H        0.926     0.032     2.554     2.499
    54   1 H        0.926     0.033     2.541     2.493
    55   1 H        0.926     0.032     2.561     2.502
    56   1 H        0.926     0.032     2.557     2.501
    57   1 H        0.926     0.033     2.540     2.492
    58   1 H        0.926     0.032     2.555     2.499
    59   1 H        0.926     0.031     2.566     2.505
    60   1 H        0.926     0.032     2.555     2.499
    61   1 H        0.926     0.033     2.540     2.492
    62   1 H        0.926     0.032     2.559     2.502
    63   1 H        0.926     0.032     2.557     2.500
    64   1 H        0.926     0.033     2.540     2.492
    65   1 H        0.926     0.032     2.555     2.500
    66   1 H        0.926     0.031     2.566     2.505
    67   1 H        0.926     0.032     2.555     2.499
    68   1 H        0.926     0.033     2.540     2.492
    69   1 H        0.926     0.032     2.560     2.502
    70   1 H        0.926     0.032     2.556     2.500
    71   1 H        0.926     0.033     2.539     2.492
    72   1 H        0.926     0.032     2.555     2.500
    73   1 H        0.926     0.031     2.566     2.505
    74   1 H        0.926     0.032     2.555     2.499
    75   1 H        0.926     0.033     2.540     2.492
    76   1 H        0.926     0.032     2.560     2.502
    77   1 H        0.926     0.032     2.559     2.501

Wiberg/Mayer (AO) data.
largest (>0.10) Wiberg bond orders for each atom

     #   Z sym  total        # sym  WBO       # sym  WBO       # sym  WBO
 ---------------------------------------------------------------------------
     1  27 Co   3.353 --    49 N    0.727    35 N    0.727    24 N    0.727
                            48 N    0.726
     2   6 C    3.937 --    47 C    1.315     9 C    1.314     3 C    1.026
     3   6 C    3.987 --     4 C    1.393     8 C    1.393     2 C    1.026
                             6 C    0.108
     4   6 C    3.984 --     5 C    1.448     3 C    1.393    50 H    0.970
                             7 C    0.109
     5   6 C    3.991 --     4 C    1.448     6 C    1.436    51 H    0.970
                             8 C    0.109
     6   6 C    3.986 --     5 C    1.436     7 C    1.436    52 H    0.971
                             3 C    0.108
     7   6 C    3.991 --     8 C    1.448     6 C    1.436    53 H    0.970
                             4 C    0.109
     8   6 C    3.984 --     7 C    1.448     3 C    1.393    54 H    0.970
                             5 C    0.109
     9   6 C    3.934 --     2 C    1.314    49 N    1.237    10 C    1.177
    10   6 C    3.957 --    11 C    1.644     9 C    1.177    55 H    0.970
    11   6 C    3.957 --    10 C    1.644    12 C    1.177    56 H    0.970
    12   6 C    3.934 --    13 C    1.315    49 N    1.237    11 C    1.177
    13   6 C    3.937 --    12 C    1.315    20 C    1.314    14 C    1.027
    14   6 C    3.987 --    15 C    1.393    19 C    1.393    13 C    1.027
                            17 C    0.108
    15   6 C    3.984 --    16 C    1.448    14 C    1.393    57 H    0.970
                            18 C    0.109
    16   6 C    3.991 --    15 C    1.448    17 C    1.436    58 H    0.970
                            19 C    0.109
    17   6 C    3.986 --    16 C    1.436    18 C    1.436    59 H    0.972
                            14 C    0.108
    18   6 C    3.991 --    19 C    1.448    17 C    1.436    60 H    0.970
                            15 C    0.109
    19   6 C    3.984 --    18 C    1.448    14 C    1.393    61 H    0.970
                            16 C    0.109
    20   6 C    3.934 --    13 C    1.314    24 N    1.238    21 C    1.177
    21   6 C    3.957 --    22 C    1.644    20 C    1.177    62 H    0.970
    22   6 C    3.957 --    21 C    1.644    23 C    1.177    63 H    0.970
    23   6 C    3.934 --    25 C    1.315    24 N    1.237    22 C    1.177
    24   7 N    3.507 --    20 C    1.238    23 C    1.237     1 Co   0.727
    25   6 C    3.937 --    23 C    1.315    32 C    1.314    26 C    1.027
    26   6 C    3.987 --    27 C    1.393    31 C    1.393    25 C    1.027
                            29 C    0.108
    27   6 C    3.984 --    28 C    1.448    26 C    1.393    64 H    0.970
                            30 C    0.109
    28   6 C    3.991 --    27 C    1.448    29 C    1.436    65 H    0.970
                            31 C    0.109
    29   6 C    3.986 --    28 C    1.436    30 C    1.436    66 H    0.972
                            26 C    0.108
    30   6 C    3.991 --    31 C    1.448    29 C    1.436    67 H    0.970
                            27 C    0.109
    31   6 C    3.984 --    30 C    1.448    26 C    1.393    68 H    0.970
                            28 C    0.109
    32   6 C    3.934 --    25 C    1.314    35 N    1.238    33 C    1.178
    33   6 C    3.957 --    34 C    1.644    32 C    1.178    69 H    0.970
    34   6 C    3.957 --    33 C    1.644    36 C    1.177    70 H    0.970
    35   7 N    3.507 --    32 C    1.238    36 C    1.236     1 Co   0.727
    36   6 C    3.934 --    37 C    1.315    35 N    1.236    34 C    1.177
    37   6 C    3.937 --    36 C    1.315    44 C    1.313    38 C    1.027
    38   6 C    3.987 --    39 C    1.393    43 C    1.393    37 C    1.027
                            41 C    0.108
    39   6 C    3.984 --    40 C    1.448    38 C    1.393    71 H    0.970
                            42 C    0.109
    40   6 C    3.991 --    39 C    1.448    41 C    1.436    72 H    0.970
                            43 C    0.109
    41   6 C    3.986 --    40 C    1.436    42 C    1.436    73 H    0.972
                            38 C    0.108
    42   6 C    3.991 --    43 C    1.448    41 C    1.436    74 H    0.970
                            39 C    0.109
    43   6 C    3.984 --    42 C    1.448    38 C    1.393    75 H    0.970
                            40 C    0.109
    44   6 C    3.934 --    37 C    1.313    48 N    1.238    45 C    1.178
    45   6 C    3.957 --    46 C    1.643    44 C    1.178    76 H    0.970
    46   6 C    3.957 --    45 C    1.643    47 C    1.177    77 H    0.970
    47   6 C    3.934 --     2 C    1.315    48 N    1.236    46 C    1.177
    48   7 N    3.506 --    44 C    1.238    47 C    1.236     1 Co   0.726
    49   7 N    3.507 --     9 C    1.237    12 C    1.237     1 Co   0.727
    50   1 H    0.999 --     4 C    0.970
    51   1 H    0.998 --     5 C    0.970
    52   1 H    0.999 --     6 C    0.971
    53   1 H    0.998 --     7 C    0.970
    54   1 H    0.999 --     8 C    0.970
    55   1 H    0.998 --    10 C    0.970
    56   1 H    0.998 --    11 C    0.970
    57   1 H    0.999 --    15 C    0.970
    58   1 H    0.998 --    16 C    0.970
    59   1 H    0.999 --    17 C    0.972
    60   1 H    0.998 --    18 C    0.970
    61   1 H    0.999 --    19 C    0.970
    62   1 H    0.998 --    21 C    0.970
    63   1 H    0.998 --    22 C    0.970
    64   1 H    0.999 --    27 C    0.970
    65   1 H    0.998 --    28 C    0.970
    66   1 H    0.999 --    29 C    0.972
    67   1 H    0.998 --    30 C    0.970
    68   1 H    0.999 --    31 C    0.970
    69   1 H    0.998 --    33 C    0.970
    70   1 H    0.998 --    34 C    0.970
    71   1 H    0.999 --    39 C    0.970
    72   1 H    0.998 --    40 C    0.970
    73   1 H    0.999 --    41 C    0.972
    74   1 H    0.998 --    42 C    0.970
    75   1 H    0.999 --    43 C    0.970
    76   1 H    0.998 --    45 C    0.970
    77   1 H    0.998 --    46 C    0.970
 ---------------------------------------------------------------------------

molecular dipole:
                 x           y           z       tot (Debye)
 q only:        0.000      -0.000      -0.002
   full:       -0.001      -0.000      -0.004       0.010

           -------------------------------------------------
          | TOTAL ENERGY             -123.925127085130 Eh   |
          | GRADIENT NORM               0.000327209408 Eh/α |
          | HOMO-LUMO GAP               1.355585721611 eV   |
           -------------------------------------------------

 * finished run on 2022/07/26 at 11:21:45.727
