   * xtb version 6.5.1 (b24c23e) compiled by 'conda@728c89f4b128' on 2022-07-12
          program call               : xtb Ni_NMA_C8_2.xyz --gfn 1 --opt -T 48

   ID    Z sym.   atoms
    1   28 Ni     1, 67
    2    6 C      2-6, 8-12, 14-19, 21-26, 28-32, 34-40, 68-72, 74-78, 80-85,
                  87-92, 94-98, 100-106, 133-140
    3    7 N      7, 13, 20, 27, 33, 41, 73, 79, 86, 93, 99, 107
    4    1 H      42-66, 108-132

          :  Hamiltonian                  GFN1-xTB          :
 * total energy  :  -222.3337596 Eh     change        0.4927955E-08 Eh
 * total energy  :  -230.9592522 Eh     change       -0.8625493E+01 Eh
 * total energy  :  -231.9950633 Eh     change       -0.1035811E+01 Eh
 * total energy  :  -232.5567215 Eh     change       -0.5616581E+00 Eh
 * total energy  :  -232.8744806 Eh     change       -0.3177591E+00 Eh
 * total energy  :  -233.0405320 Eh     change       -0.1660514E+00 Eh
 * total energy  :  -233.1531498 Eh     change       -0.1126178E+00 Eh
 * total energy  :  -233.2428052 Eh     change       -0.8965536E-01 Eh
 * total energy  :  -233.3102026 Eh     change       -0.6739745E-01 Eh
 * total energy  :  -233.3648934 Eh     change       -0.5469079E-01 Eh
 * total energy  :  -234.0464862 Eh     change       -0.2552841E-04 Eh
 * total energy  :  -234.0465103 Eh     change       -0.2413153E-04 Eh
 * total energy  :  -234.0465333 Eh     change       -0.2294074E-04 Eh
 * total energy  :  -234.0465542 Eh     change       -0.2096710E-04 Eh
 * total energy  :  -234.0465709 Eh     change       -0.1660774E-04 Eh
 * total energy  :  -234.0465825 Eh     change       -0.1168072E-04 Eh
 * total energy  :  -234.0465903 Eh     change       -0.7803386E-05 Eh
 * total energy  :  -234.0465959 Eh     change       -0.5593777E-05 Eh
 * total energy  :  -234.0466001 Eh     change       -0.4203860E-05 Eh
   *** GEOMETRY OPTIMIZATION CONVERGED AFTER 89 ITERATIONS ***

 final structure:
================
140
 xtb: 6.5.1 (b24c23e)
Ni          15.05041559561150        0.02893858091401       -0.00079953061476
C           11.66301458424295        0.09441406798860       -0.06878792916949
C           12.30945932557926        0.90088402214123        0.84537047864307
C           11.63187528205883        1.72721596299226        1.79621899429779
C           12.58550420471424        2.44529701957941        2.43598701339114
C           13.84418634412230        2.06931882231491        1.86286518901863
N           13.66755107174774        1.08789443026823        0.91973027882412
C           15.05541077265958        2.67551057909559        2.17746031059951
C           15.06414923353242        3.81048407599737        3.12727640873312
C           14.32861369109868        4.97025899196787        2.86755430522685
C           14.34321664593932        6.02962439595430        3.75491358927753
C           15.08586652458025        5.95582068152007        4.93998497263408
N           15.10847625412161        7.06230520469342        5.77526482296967
C           15.44139773367915        6.89748238081856        7.18379540964788
C           15.82721862376416        4.79994299786206        5.20207591510758
C           15.81378223510553        3.74710206813198        4.30346496236200
C           16.26128481081484        2.25369836126651        1.63061833311269
C           17.51504620943579        2.90251941611243        1.86644257657958
C           18.46700335572764        2.14675135433665        1.26681747751286
N           16.44042702993355        1.13561611788965        0.84720412746566
C           17.79231441298515        1.04494867316952        0.65955739285053
C           18.45796904046439       -0.02142004548831        0.04745472416227
C           17.77850369598396       -1.07277613665454       -0.57567176495011
C           18.43662705841345       -2.20079465815973       -1.15205581079635
C           17.47909487759603       -2.93660645928353       -1.76751089150678
C           16.23962645158834       -2.24685272641058       -1.57643933338402
N           16.43025099271797       -1.12598646693388       -0.79945695570372
C           15.03956889868298       -2.63171782201419       -2.16203127227950
C           15.04028935806205       -3.77555324056092       -3.10091539596600
C           15.83928475024114       -3.75594780915829       -4.24585955141943
C           15.84493442180744       -4.81777070453511       -5.13387585054872
C           15.04465589752416       -5.93846813169678       -4.89297289662220
N           15.05397053320887       -7.05300844380540       -5.71755833190307
C           15.45143590067989       -6.91638692417285       -7.11230539033756
C           14.25138661459972       -5.96855644577854       -3.73916980543736
C           14.24585620886382       -4.90056667431789       -2.86215820893474
C           13.84121374126697       -1.97648562569075       -1.90014602461362
C           12.59334261304812       -2.30530813269786       -2.52362970929415
C           11.64389981738850       -1.54413518406778       -1.92897835146081
C           12.31406385530044       -0.73993550837110       -0.95423096641033
N           13.66541805209897       -0.98190807121657       -0.97082088694020
H           10.57960302832652        0.11618660996592       -0.09137543653658
H           10.56343355949209        1.74095313210001        1.94275700934151
H           12.45982768933131        3.16521825335266        3.22840181148409
H           13.75772354240277        5.04683448220069        1.94861328839244
H           13.77771679072299        6.92913371099662        3.53533394776022
H           14.31477567756701        7.67576792765294        5.63523200005858
H           16.49309100664109        6.62868509081894        7.29043870676170
H           14.82230171537621        6.12665663804823        7.65692140272280
H           15.27316929859724        7.85155495051147        7.68333395885618
H           16.41779666339662        4.71588992644383        6.10602450121898
H           16.37963219997017        2.84897457435430        4.52631636605291
H           17.64069129424454        3.82221015928271        2.41410898396207
H           19.53252504663954        2.30725266949311        1.23183918127446
H           19.49545416495977       -2.39247311763907       -1.08512715687065
H           17.59224657098374       -3.86726012524298       -2.29910266311179
H           16.45092102474648       -2.88456885736137       -4.45346858138233
H           16.47525289409886       -4.76819027725746       -6.01323637417853
H           14.22998671758140       -7.63118370713681       -5.60533620202434
H           14.88919645522458       -6.12156435707208       -7.61577970203389
H           15.25887980331898       -7.86588139545770       -7.61178141440169
H           16.51814720051908       -6.69801688709856       -7.17744844597016
H           13.63910436185484       -6.84083102771461       -3.53573045646123
H           13.63491923587356       -4.94346783296504       -1.96706017599045
H           12.47172268523740       -3.02472502012768       -3.31715333043660
H           10.58290927869644       -1.51551856615358       -2.12053120782994
Ni          33.60665754403395       -0.00746121628983       -0.03023211198784
C           36.99395525467396        0.05015186680209       -0.11108209813886
C           36.34896171879330       -1.01918463673766       -0.69803449291994
C           37.02805299882181       -2.12668433457169       -1.29662244933805
C           36.07531759477798       -2.91027233030432       -1.85577691749593
C           34.81569724518879       -2.27091662692047       -1.61353950054653
N           34.99093903699326       -1.13529188460652       -0.86280850435702
C           33.60495333301819       -2.71237997928774       -2.13577631748606
C           33.59768202678773       -3.88698250377730       -3.03609566381780
C           34.33393447376774       -3.88551261770606       -4.22417490052696
C           34.32043117731581       -4.98211078558018       -5.06507601462310
C           33.57798250151332       -6.12300719032566       -4.73569784105626
N           33.55632734018351       -7.17902348551912       -5.63389904091707
C           33.22285521200045       -8.51790501841186       -5.16682731444779
C           32.83587037028638       -6.12766726127893       -3.55095234360627
C           32.84839316023176       -5.02156656525009       -2.71874854339310
C           32.39833984155849       -2.08774463618810       -1.84415390225779
C           31.14522814556002       -2.46092252951097       -2.42632429640556
C           30.19236326815308       -1.71077124406951       -1.82115069880695
N           32.21791670614483       -1.07837438278654       -0.92515791279093
C           30.86586880948398       -0.87607822795644       -0.87901230433137
C           30.19901302495920       -0.04540913377611        0.02666103176471
C           30.87724867045991        0.79273220187612        0.91703005552222
C           30.21773735118276        1.60106512949000        1.89140046330259
C           31.17437250856222        2.36230222308856        2.47656340510566
C           32.41474771821272        2.02549376214237        1.84678457488209
N           32.22546193037542        1.02284523664500        0.92198025288862
C           33.61432831281294        2.68113359824442        2.09628309644636
C           33.61208141414968        3.84692877213507        3.00784272204576
C           32.81417041672417        4.96024931096465        2.73675676868978
C           32.80703613586726        6.05881290409954        3.57888212561264
C           33.60451277002761        6.06816448167813        4.72707542716317
N           33.59327686883177        7.11614418337868        5.63480071857391
C           33.19828732184374        8.44781113497063        5.19596206841744
C           34.39672421509917        4.94849755159630        5.01025860551249
C           34.40394093150663        3.85939557597183        4.15958343447182
C           34.81331367522723        2.28380160086709        1.51450284823086
C           36.06043078853200        2.96513277262139        1.70032142906569
C           37.01054744248335        2.22117709070895        1.08533429490377
C           36.34162410873653        1.09449435826439        0.51162177769700
N           34.99028329380644        1.16118417248222        0.74501186872957
H           38.07730440974935        0.06955012527475       -0.13842530465152
H           38.09678663791730       -2.27064078340105       -1.27901268308181
H           36.20221337253474       -3.84117393058786       -2.38429238982433
H           34.90448081334429       -3.00493180087442       -4.49855236436435
H           34.88652872407381       -4.96323798927803       -5.99043565804370
H           34.35040783521186       -7.17571980439131       -6.26263125406129
H           32.16994595711312       -8.56441385227212       -4.88580726123260
H           33.83849709628743       -8.81050772986575       -4.30853565166860
H           33.39548967935623       -9.21360416466584       -5.98797047670215
H           32.24535013974666       -6.99189482115300       -3.27278110334086
H           32.28196573776442       -5.04396256523012       -1.79401240046267
H           31.02053091811786       -3.19697021122716       -3.20363098267127
H           29.12698810455341       -1.71250700190615       -1.98631013274972
H           29.15861430148362        1.57742836308517        2.09150932036573
H           31.06011036076263        3.08412142876887        3.26868330693148
H           32.20462368023332        4.97269732248919        1.83964807403337
H           32.17773193965046        6.90639713502742        3.33679098464671
H           34.41573449055592        7.13225403989384        6.22569230367419
H           33.76587353869867        8.76662745833765        4.31418174569461
H           33.38575521790193        9.14170608493925        6.01540786667037
H           32.13300213022722        8.46383191006776        4.96221707164861
H           35.00688479993696        4.94027344586465        5.90735730067408
H           35.01415115549585        2.99513189157835        4.39830087520233
H           36.18106927736054        3.89556583090428        2.23113736183715
H           38.07127552503296        2.40336033199785        1.01545220808721
C           19.86178426360450       -0.03744660304619        0.05877162908166
C           21.08605303812474       -0.04931296366129        0.06284929824577
C           22.42892889820187       -0.05762743235631        0.06545876511867
C           23.65941249990090       -0.06226217293412        0.06488986068944
C           24.99757112932242       -0.06469321756094        0.06256146887029
C           26.22802800421200       -0.06400738636052        0.05826629588135
C           27.57090543668198       -0.06120845683870        0.05085848842947
C           28.79519660177766       -0.05439776583467        0.04377620225313

          :  Hamiltonian                  GFN1-xTB          :
         :: total energy            -234.046600134302 Eh    ::
         :: gradient norm              0.000233757887 Eh/a0 ::
         :: HOMO-LUMO gap              1.147887011507 eV    ::
         :: SCC energy              -237.808616451693 Eh    ::
         :: repulsion energy           3.880193625844 Eh    ::

    * Orbital Energies and Occupations

         #    Occupation            Energy/Eh            Energy/eV
      -------------------------------------------------------------
         1        2.0000           -0.7781870             -21.1755
       ...           ...                  ...                  ...
       205        2.0000           -0.3908961             -10.6368
       206        2.0000           -0.3896630             -10.6033
       207        2.0000           -0.3896603             -10.6032
       208        2.0000           -0.3894060             -10.5963
       209        2.0000           -0.3894024             -10.5962
       210        2.0000           -0.3884157             -10.5693
       211        2.0000           -0.3884122             -10.5692
       212        2.0000           -0.3873104             -10.5393
       213        2.0000           -0.3873060             -10.5391
       214        2.0000           -0.3872715             -10.5382
       215        2.0000           -0.3872672             -10.5381
       216        2.0000           -0.3801307             -10.3439
       217        2.0000           -0.3737935             -10.1714 (HOMO)
       218                         -0.3316095              -9.0236 (LUMO)
       219                         -0.3218778              -8.7587
       220                         -0.3199695              -8.7068
       221                         -0.3199683              -8.7068
       222                         -0.3186894              -8.6720
       223                         -0.3186553              -8.6711
       224                         -0.2945680              -8.0156
       225                         -0.2927044              -7.9649
       226                         -0.2849471              -7.7538
       227                         -0.2673974              -7.2763
       228                         -0.2558112              -6.9610
       ...                                ...                  ...
       470                          1.6139844              43.9188
      -------------------------------------------------------------
                  HL-Gap            0.0421841 Eh            1.1479 eV

Wiberg/Mayer (AO) data.
largest (>0.10) Wiberg bond orders for each atom

     #   Z sym  total        # sym  WBO       # sym  WBO       # sym  WBO
 ---------------------------------------------------------------------------
     1  28 Ni   3.020 --     7 N    0.664    41 N    0.664    20 N    0.662
                            27 N    0.662
     2   6 C    3.932 --    40 C    1.363     3 C    1.363    42 H    0.970
     3   6 C    3.925 --     2 C    1.363     7 N    1.212     4 C    1.178
     4   6 C    3.959 --     5 C    1.644     3 C    1.178    43 H    0.975
     5   6 C    3.963 --     4 C    1.644     6 C    1.180    44 H    0.973
     6   6 C    3.918 --     8 C    1.317     7 N    1.222     5 C    1.180
     7   7 N    3.400 --     6 C    1.222     3 C    1.212     1 Ni   0.664
     8   6 C    3.939 --    17 C    1.325     6 C    1.317     9 C    1.035
     9   6 C    3.987 --    16 C    1.383    10 C    1.374     8 C    1.035
    10   6 C    3.988 --    11 C    1.477     9 C    1.374    45 H    0.972
    11   6 C    3.989 --    10 C    1.477    12 C    1.344    46 H    0.971
    12   6 C    3.952 --    15 C    1.353    11 C    1.344    13 N    1.111
    13   7 N    3.181 --    12 C    1.111    14 C    0.971    47 H    0.931
    14   6 C    3.968 --    50 H    0.990    48 H    0.986    49 H    0.984
                            13 N    0.971
    15   6 C    3.990 --    16 C    1.465    12 C    1.353    51 H    0.970
    16   6 C    3.988 --    15 C    1.465     9 C    1.383    52 H    0.972
    17   6 C    3.914 --     8 C    1.325    20 N    1.205    18 C    1.186
    18   6 C    3.959 --    19 C    1.632    17 C    1.186    53 H    0.973
    19   6 C    3.961 --    18 C    1.632    21 C    1.194    54 H    0.973
    20   7 N    3.404 --    21 C    1.238    17 C    1.205     1 Ni   0.662
    21   6 C    3.904 --    22 C    1.261    20 N    1.238    19 C    1.194
    22   6 C    3.942 --    21 C    1.261    23 C    1.260   133 C    1.188
    23   6 C    3.904 --    22 C    1.260    27 N    1.238    24 C    1.194
    24   6 C    3.961 --    25 C    1.632    23 C    1.194    55 H    0.973
    25   6 C    3.959 --    24 C    1.632    26 C    1.186    56 H    0.973
    26   6 C    3.913 --    28 C    1.326    27 N    1.205    25 C    1.186
    27   7 N    3.404 --    23 C    1.238    26 C    1.205     1 Ni   0.662
    28   6 C    3.939 --    26 C    1.326    37 C    1.317    29 C    1.035
    29   6 C    3.987 --    30 C    1.383    36 C    1.373    28 C    1.035
    30   6 C    3.988 --    31 C    1.465    29 C    1.383    57 H    0.972
    31   6 C    3.990 --    30 C    1.465    32 C    1.352    58 H    0.970
    32   6 C    3.952 --    31 C    1.352    35 C    1.344    33 N    1.111
    33   7 N    3.181 --    32 C    1.111    34 C    0.971    59 H    0.931
    34   6 C    3.968 --    61 H    0.990    62 H    0.986    60 H    0.984
                            33 N    0.971
    35   6 C    3.989 --    36 C    1.477    32 C    1.344    63 H    0.971
    36   6 C    3.988 --    35 C    1.477    29 C    1.373    64 H    0.972
    37   6 C    3.918 --    28 C    1.317    41 N    1.222    38 C    1.180
    38   6 C    3.963 --    39 C    1.644    37 C    1.180    65 H    0.973
    39   6 C    3.959 --    38 C    1.644    40 C    1.178    66 H    0.975
    40   6 C    3.925 --     2 C    1.363    41 N    1.211    39 C    1.178
    41   7 N    3.400 --    37 C    1.222    40 C    1.211     1 Ni   0.664
    42   1 H    1.001 --     2 C    0.970
    43   1 H    0.998 --     4 C    0.975
    44   1 H    1.005 --     5 C    0.973
    45   1 H    1.005 --    10 C    0.972
    46   1 H    0.999 --    11 C    0.971
    47   1 H    0.966 --    13 N    0.931
    48   1 H    1.012 --    14 C    0.986
    49   1 H    1.003 --    14 C    0.984
    50   1 H    1.007 --    14 C    0.990
    51   1 H    1.001 --    15 C    0.970
    52   1 H    1.005 --    16 C    0.972
    53   1 H    1.005 --    18 C    0.973
    54   1 H    1.002 --    19 C    0.973
    55   1 H    1.002 --    24 C    0.973
    56   1 H    1.005 --    25 C    0.973
    57   1 H    1.005 --    30 C    0.972
    58   1 H    1.001 --    31 C    0.970
    59   1 H    0.966 --    33 N    0.931
    60   1 H    1.003 --    34 C    0.984
    61   1 H    1.007 --    34 C    0.990
    62   1 H    1.012 --    34 C    0.986
    63   1 H    0.999 --    35 C    0.971
    64   1 H    1.005 --    36 C    0.972
    65   1 H    1.005 --    38 C    0.973
    66   1 H    0.998 --    39 C    0.975
    67  28 Ni   3.020 --   107 N    0.664    73 N    0.664    93 N    0.662
                            86 N    0.662
    68   6 C    3.932 --   106 C    1.363    69 C    1.363   108 H    0.970
    69   6 C    3.925 --    68 C    1.363    73 N    1.212    70 C    1.178
    70   6 C    3.959 --    71 C    1.644    69 C    1.178   109 H    0.975
    71   6 C    3.963 --    70 C    1.644    72 C    1.180   110 H    0.973
    72   6 C    3.918 --    74 C    1.317    73 N    1.222    71 C    1.180
    73   7 N    3.400 --    72 C    1.222    69 C    1.212    67 Ni   0.664
    74   6 C    3.939 --    83 C    1.325    72 C    1.317    75 C    1.035
    75   6 C    3.987 --    82 C    1.383    76 C    1.374    74 C    1.035
    76   6 C    3.988 --    77 C    1.477    75 C    1.374   111 H    0.972
    77   6 C    3.989 --    76 C    1.477    78 C    1.344   112 H    0.971
    78   6 C    3.952 --    81 C    1.353    77 C    1.344    79 N    1.111
    79   7 N    3.181 --    78 C    1.111    80 C    0.971   113 H    0.931
    80   6 C    3.968 --   116 H    0.990   114 H    0.986   115 H    0.984
                            79 N    0.971
    81   6 C    3.990 --    82 C    1.465    78 C    1.353   117 H    0.970
    82   6 C    3.988 --    81 C    1.465    75 C    1.383   118 H    0.972
    83   6 C    3.913 --    74 C    1.325    86 N    1.205    84 C    1.186
    84   6 C    3.959 --    85 C    1.632    83 C    1.186   119 H    0.973
    85   6 C    3.961 --    84 C    1.632    87 C    1.194   120 H    0.973
    86   7 N    3.404 --    87 C    1.238    83 C    1.205    67 Ni   0.662
    87   6 C    3.904 --    88 C    1.260    86 N    1.238    85 C    1.194
    88   6 C    3.942 --    87 C    1.260    89 C    1.260   140 C    1.188
    89   6 C    3.904 --    88 C    1.260    93 N    1.238    90 C    1.194
    90   6 C    3.961 --    91 C    1.632    89 C    1.194   121 H    0.973
    91   6 C    3.959 --    90 C    1.632    92 C    1.186   122 H    0.973
    92   6 C    3.913 --    94 C    1.326    93 N    1.205    91 C    1.186
    93   7 N    3.404 --    89 C    1.238    92 C    1.205    67 Ni   0.662
    94   6 C    3.939 --    92 C    1.326   103 C    1.317    95 C    1.035
    95   6 C    3.987 --    96 C    1.383   102 C    1.373    94 C    1.035
    96   6 C    3.988 --    97 C    1.465    95 C    1.383   123 H    0.972
    97   6 C    3.990 --    96 C    1.465    98 C    1.352   124 H    0.970
    98   6 C    3.952 --    97 C    1.352   101 C    1.344    99 N    1.111
    99   7 N    3.181 --    98 C    1.111   100 C    0.971   125 H    0.931
   100   6 C    3.968 --   127 H    0.990   128 H    0.986   126 H    0.984
                            99 N    0.971
   101   6 C    3.989 --   102 C    1.477    98 C    1.344   129 H    0.971
   102   6 C    3.988 --   101 C    1.477    95 C    1.373   130 H    0.972
   103   6 C    3.918 --    94 C    1.317   107 N    1.222   104 C    1.180
   104   6 C    3.963 --   105 C    1.644   103 C    1.180   131 H    0.973
   105   6 C    3.959 --   104 C    1.644   106 C    1.178   132 H    0.975
   106   6 C    3.925 --    68 C    1.363   107 N    1.211   105 C    1.178
   107   7 N    3.400 --   103 C    1.222   106 C    1.211    67 Ni   0.664
   108   1 H    1.001 --    68 C    0.970
   109   1 H    0.998 --    70 C    0.975
   110   1 H    1.005 --    71 C    0.973
   111   1 H    1.005 --    76 C    0.972
   112   1 H    0.999 --    77 C    0.971
   113   1 H    0.966 --    79 N    0.931
   114   1 H    1.012 --    80 C    0.986
   115   1 H    1.003 --    80 C    0.984
   116   1 H    1.007 --    80 C    0.990
   117   1 H    1.001 --    81 C    0.970
   118   1 H    1.005 --    82 C    0.972
   119   1 H    1.005 --    84 C    0.973
   120   1 H    1.002 --    85 C    0.973
   121   1 H    1.002 --    90 C    0.973
   122   1 H    1.005 --    91 C    0.973
   123   1 H    1.005 --    96 C    0.972
   124   1 H    1.001 --    97 C    0.970
   125   1 H    0.966 --    99 N    0.931
   126   1 H    1.003 --   100 C    0.984
   127   1 H    1.007 --   100 C    0.990
   128   1 H    1.012 --   100 C    0.986
   129   1 H    0.999 --   101 C    0.971
   130   1 H    1.005 --   102 C    0.972
   131   1 H    1.005 --   104 C    0.973
   132   1 H    0.998 --   105 C    0.975
   133   6 C    3.878 --   134 C    2.443    22 C    1.188   136 C    0.187
   134   6 C    3.937 --   133 C    2.443   135 C    1.342
   135   6 C    3.894 --   136 C    2.339   134 C    1.342   138 C    0.183
   136   6 C    3.927 --   135 C    2.339   137 C    1.367   133 C    0.187
   137   6 C    3.927 --   138 C    2.339   136 C    1.367   140 C    0.187
   138   6 C    3.894 --   137 C    2.339   139 C    1.342   135 C    0.183
   139   6 C    3.937 --   140 C    2.443   138 C    1.342
   140   6 C    3.878 --   139 C    2.443    88 C    1.188   137 C    0.187
 ---------------------------------------------------------------------------

           -------------------------------------------------
          | TOTAL ENERGY             -234.046600134302 Eh   |
          | GRADIENT NORM               0.000233757887 Eh/α |
          | HOMO-LUMO GAP               1.147887011507 eV   |
           -------------------------------------------------

 * finished run on 2022/07/30 at 03:34:25.817
