   * xtb version 6.5.1 (b24c23e) compiled by 'conda@728c89f4b128' on 2022-07-12
          program call               : xtb Cu_H_C4_2.xyz --gfn 1 --opt -T 48

   ID    Z sym.   atoms
    1   29 Cu     1, 37
    2    6 C      2-6, 8-11, 13-18, 20-24, 38-42, 44-47, 49-54, 56-60, 73-76
    3    7 N      7, 12, 19, 25, 43, 48, 55, 61
    4    1 H      26-36, 62-72
########################################################################
[WARNING] Please study the warnings concerning your input carefully
-1- prog_main_parseArguments: Unknown option '-T' provided
########################################################################

          :  Hamiltonian                  GFN1-xTB          :
 * total energy  :  -139.1154093 Eh     change       -0.1031708E-10 Eh
 * total energy  :  -139.2496707 Eh     change       -0.1342613E+00 Eh
 * total energy  :  -139.2883507 Eh     change       -0.3868001E-01 Eh
 * total energy  :  -139.3118874 Eh     change       -0.2353674E-01 Eh
 * total energy  :  -139.3182352 Eh     change       -0.6347787E-02 Eh
 * total energy  :  -139.3199584 Eh     change       -0.1723130E-02 Eh
 * total energy  :  -139.3234361 Eh     change       -0.3477701E-02 Eh
 * total energy  :  -139.3246828 Eh     change       -0.1246781E-02 Eh
 * total energy  :  -139.3258619 Eh     change       -0.1179025E-02 Eh
 * total energy  :  -139.3265067 Eh     change       -0.6448124E-03 Eh
 * total energy  :  -139.3268477 Eh     change       -0.3409853E-03 Eh
 * total energy  :  -139.3270340 Eh     change       -0.1863212E-03 Eh
 * total energy  :  -139.3271296 Eh     change       -0.9566703E-04 Eh
 * total energy  :  -139.3272003 Eh     change       -0.7061733E-04 Eh
 * total energy  :  -139.3272210 Eh     change       -0.2076700E-04 Eh
 * total energy  :  -139.3272279 Eh     change       -0.6897442E-05 Eh
 * total energy  :  -139.3272329 Eh     change       -0.4977761E-05 Eh
   *** GEOMETRY OPTIMIZATION CONVERGED AFTER 17 ITERATIONS ***

 final structure:
================
76
 xtb: 6.5.1 (b24c23e)
Cu           7.78219165445564       -0.02269729951291       -0.00964887181362
C            4.35893761844570       -0.04886614883516       -0.04540909731452
C            5.00393481078031       -0.91474712544862       -0.91729689827493
C            4.34607394973920       -1.81329281521972       -1.82647316508601
C            5.31795975471921       -2.48006909416574       -2.49733231193680
C            6.57743365445391       -1.99578726227268       -2.00249855588811
N            6.35571510294537       -1.04739936021972       -1.04688739570046
C            7.82327067658322       -2.43194486547584       -2.43016486151384
C            9.05338644214159       -1.98974338210516       -1.96671039380579
C           10.32552870417724       -2.46817249162095       -2.42785070300017
C           11.27676000626469       -1.79379767986233       -1.73331710393759
N            9.24813988380578       -1.03645676229699       -1.00430201548753
C           10.59150207017595       -0.89886694996498       -0.84542295720838
C           11.22542193543913       -0.00928297937802        0.03917812763217
C           10.56004565130866        0.87973208436644        0.90060982063177
C           11.21250881210644        1.78755878422808        1.79988772852250
C           10.23657643977933        2.46154372987793        2.45976662936457
C            8.98182385573117        1.96842682144521        1.96726870861964
N            9.21142254052239        1.00876793061554        1.01910270415896
C            7.73564788751908        2.40104861561014        2.39608925254329
C            6.50558406108670        1.94418702829377        1.94501913111663
C            5.22870535073165        2.41047995778399        2.41176272168666
C            4.28136951950381        1.72193436054615        1.72779103148006
C            4.97176336969875        0.82979518667858        0.83672173506337
N            6.31838242039068        0.98590905440212        0.99182097846998
H            3.27394588018264       -0.05871149780476       -0.05563188817571
H            3.27615255040864       -1.90898425353453       -1.92632022293488
H            5.20907156947593       -3.23498702084554       -3.26030704034373
H            7.83729694585947       -3.19565779362279       -3.20107186925539
H           10.45932843381710       -3.22316504637969       -3.18655510872753
H           12.34891774859952       -1.88361993352374       -1.80740166267239
H           12.28151656886710        1.88596178077793        1.90376115759854
H           10.34257475046391        3.22491148921559        3.21447686564072
H            7.72222620193477        3.17158012710676        3.16021388413814
H            5.09178146193330        3.16857254926562        3.16707868060367
H            3.20825830555064        1.79954400987337        1.80698492114262
Cu          21.27746575353655        0.02430328086282        0.00785654301155
C           24.70070031765644        0.06654150743207       -0.00130133303195
C           24.05614157933648        1.29398257869026       -0.06358945383633
C           24.71444737166347        2.57020097885021       -0.13200853598899
C           23.74289310585004        3.51521548114757       -0.17919038333633
C           22.48316983752649        2.82446992729877       -0.13839209420450
N           22.70443317240899        1.47979641470429       -0.06999700449628
C           21.23755436379857        3.43535446513248       -0.16078568887586
C           20.00723234085177        2.79677068417955       -0.11528228398533
C           18.73530332205487        3.46141016916408       -0.13428157914103
C           17.78377018705522        2.49549248824772       -0.07407703707510
N           19.81205416329642        1.44407243241909       -0.04499148416965
C           18.46862860834609        1.23578115454953       -0.02015584902026
C           17.83422003187195       -0.01730619122540        0.03561791053339
C           18.49914504262046       -1.25482841549822        0.07505159189073
C           17.84626991349841       -2.53123746452254        0.13023099857694
C           18.82189053566453       -3.47416799230230        0.16487344095294
C           20.07686699893071       -2.77842411642191        0.13185929750644
N           19.84771295224796       -1.43044833229110        0.07584666565867
C           21.32283973111898       -3.38743293590038        0.15786555175900
C           22.55310555048402       -2.74636463184201        0.13114407869887
C           23.82976928890913       -3.40581367777691        0.16241983445673
C           24.77742870630763       -2.43656848576254        0.11927547653763
C           24.08745560174118       -1.17679662731454        0.06033606578143
N           22.74076793916327       -1.39617834885197        0.07034720359930
H           25.78569784112946        0.08029821670567       -0.00272890107454
H           25.78441441365038        2.70778519467262       -0.14193684631441
H           23.85215536390525        4.58701780664815       -0.23567768689596
H           21.22390007478866        4.51904533435640       -0.21711302475099
H           18.60186527492960        4.53048669773979       -0.18736688187500
H           16.71163741907202        2.61207100708836       -0.06822520484787
H           16.77722817197246       -2.67364196013932        0.14108301224497
H           18.71553391624196       -4.54665301661076        0.20985058112756
H           21.33590199565572       -4.47158879408618        0.20497385397730
H           23.96632441688316       -4.47488965703847        0.21126109522381
H           25.85050120886156       -2.54765223928377        0.12538580850848
C           13.85397758601396       -0.02264885364665        0.06016208927100
C           12.63328630669876       -0.00776253832290        0.05731807958540
C           15.20559514356041       -0.02572553435192        0.05871005156787
C           16.42641086109980       -0.03007675469633        0.04932908711555

          :  Hamiltonian                  GFN1-xTB          :
         :: total energy            -139.327232902391 Eh    ::
         :: gradient norm              0.000609662166 Eh/a0 ::
         :: HOMO-LUMO gap              0.000027678387 eV    ::
         :: SCC energy              -141.466172810459 Eh    ::
         :: repulsion energy           2.203285310577 Eh    ::

    * Orbital Energies and Occupations

         #    Occupation            Energy/Eh            Energy/eV
      -------------------------------------------------------------
         1        2.0000           -0.7631613             -20.7667
       ...           ...                  ...                  ...
       118        2.0000           -0.4101987             -11.1621
       119        2.0000           -0.4101881             -11.1618
       120        2.0000           -0.4070672             -11.0769
       121        2.0000           -0.4070669             -11.0769
       122        2.0000           -0.4070442             -11.0762
       123        2.0000           -0.4070441             -11.0762
       124        2.0000           -0.4068655             -11.0714
       125        2.0000           -0.4068101             -11.0699
       126        2.0000           -0.3945256             -10.7356
       127        2.0000           -0.3945252             -10.7356
       128        2.0000           -0.3919837             -10.6664
       129        2.0000           -0.3831276             -10.4254
       130        1.0003           -0.3540107              -9.6331 (HOMO)
       131        0.9997           -0.3540097              -9.6331 (LUMO)
       132                         -0.3351819              -9.1208
       133                         -0.3265474              -8.8858
       134                         -0.3265473              -8.8858
       135                         -0.3256070              -8.8602
       136                         -0.2944497              -8.0124
       137                         -0.2895162              -7.8781
       138                         -0.2523461              -6.8667
       139                         -0.2402245              -6.5368
       140                         -0.2253205              -6.1313
       141                         -0.2253183              -6.1312
       ...                                ...                  ...
       270                          1.5212610              41.3956
      -------------------------------------------------------------
                  HL-Gap            0.0000010 Eh            0.0000 eV

Wiberg/Mayer (AO) data.
largest (>0.10) Wiberg bond orders for each atom

     #   Z sym  total        # sym  WBO       # sym  WBO       # sym  WBO
 ---------------------------------------------------------------------------
     1  29 Cu   2.189 --     7 N    0.506    25 N    0.506    19 N    0.503
                            12 N    0.503
     2   6 C    3.936 --    24 C    1.362     3 C    1.362    26 H    0.972
     3   6 C    3.917 --     2 C    1.362     7 N    1.235     4 C    1.165
     4   6 C    3.955 --     5 C    1.663     3 C    1.165    27 H    0.976
     5   6 C    3.957 --     4 C    1.663     6 C    1.166    28 H    0.976
     6   6 C    3.915 --     8 C    1.361     7 N    1.234     5 C    1.166
     7   7 N    3.248 --     3 C    1.235     6 C    1.234     1 Cu   0.506
     8   6 C    3.941 --     9 C    1.367     6 C    1.361    29 H    0.971
     9   6 C    3.910 --     8 C    1.367    12 N    1.219    10 C    1.173
    10   6 C    3.955 --    11 C    1.651     9 C    1.173    30 H    0.976
    11   6 C    3.957 --    10 C    1.651    13 C    1.180    31 H    0.974
    12   7 N    3.252 --    13 C    1.259     9 C    1.219     1 Cu   0.503
    13   6 C    3.900 --    14 C    1.265    12 N    1.259    11 C    1.180
    14   6 C    3.945 --    15 C    1.266    13 C    1.265    74 C    1.176
    15   6 C    3.900 --    14 C    1.266    19 N    1.259    16 C    1.180
    16   6 C    3.957 --    17 C    1.650    15 C    1.180    32 H    0.974
    17   6 C    3.955 --    16 C    1.650    18 C    1.173    33 H    0.976
    18   6 C    3.910 --    20 C    1.367    19 N    1.219    17 C    1.173
    19   7 N    3.252 --    15 C    1.259    18 C    1.219     1 Cu   0.503
    20   6 C    3.941 --    18 C    1.367    21 C    1.361    34 H    0.971
    21   6 C    3.915 --    20 C    1.361    25 N    1.234    22 C    1.166
    22   6 C    3.957 --    23 C    1.663    21 C    1.166    35 H    0.976
    23   6 C    3.955 --    22 C    1.663    24 C    1.166    36 H    0.976
    24   6 C    3.917 --     2 C    1.362    25 N    1.235    23 C    1.166
    25   7 N    3.248 --    24 C    1.235    21 C    1.234     1 Cu   0.506
    26   1 H    1.001 --     2 C    0.972
    27   1 H    0.998 --     4 C    0.976
    28   1 H    0.998 --     5 C    0.976
    29   1 H    1.002 --     8 C    0.971
    30   1 H    0.998 --    10 C    0.976
    31   1 H    1.002 --    11 C    0.974
    32   1 H    1.002 --    16 C    0.974
    33   1 H    0.998 --    17 C    0.976
    34   1 H    1.002 --    20 C    0.971
    35   1 H    0.998 --    22 C    0.976
    36   1 H    0.998 --    23 C    0.976
    37  29 Cu   2.188 --    43 N    0.506    61 N    0.506    55 N    0.503
                            48 N    0.503
    38   6 C    3.936 --    60 C    1.362    39 C    1.362    62 H    0.972
    39   6 C    3.917 --    38 C    1.362    43 N    1.235    40 C    1.165
    40   6 C    3.955 --    41 C    1.663    39 C    1.165    63 H    0.976
    41   6 C    3.957 --    40 C    1.663    42 C    1.166    64 H    0.976
    42   6 C    3.915 --    44 C    1.361    43 N    1.234    41 C    1.166
    43   7 N    3.248 --    39 C    1.235    42 C    1.234    37 Cu   0.506
    44   6 C    3.941 --    45 C    1.367    42 C    1.361    65 H    0.971
    45   6 C    3.910 --    44 C    1.367    48 N    1.219    46 C    1.173
    46   6 C    3.955 --    47 C    1.651    45 C    1.173    66 H    0.976
    47   6 C    3.957 --    46 C    1.651    49 C    1.180    67 H    0.974
    48   7 N    3.252 --    49 C    1.259    45 C    1.219    37 Cu   0.503
    49   6 C    3.900 --    50 C    1.265    48 N    1.259    47 C    1.180
    50   6 C    3.945 --    51 C    1.266    49 C    1.265    76 C    1.177
    51   6 C    3.900 --    50 C    1.266    55 N    1.259    52 C    1.180
    52   6 C    3.957 --    53 C    1.650    51 C    1.180    68 H    0.974
    53   6 C    3.955 --    52 C    1.650    54 C    1.173    69 H    0.976
    54   6 C    3.910 --    56 C    1.367    55 N    1.219    53 C    1.173
    55   7 N    3.252 --    51 C    1.259    54 C    1.219    37 Cu   0.503
    56   6 C    3.941 --    54 C    1.367    57 C    1.361    70 H    0.971
    57   6 C    3.915 --    56 C    1.361    61 N    1.234    58 C    1.166
    58   6 C    3.957 --    59 C    1.663    57 C    1.166    71 H    0.976
    59   6 C    3.955 --    58 C    1.663    60 C    1.166    72 H    0.976
    60   6 C    3.917 --    38 C    1.362    61 N    1.235    59 C    1.166
    61   7 N    3.248 --    60 C    1.235    57 C    1.234    37 Cu   0.506
    62   1 H    1.001 --    38 C    0.972
    63   1 H    0.998 --    40 C    0.976
    64   1 H    0.998 --    41 C    0.976
    65   1 H    1.002 --    44 C    0.971
    66   1 H    0.998 --    46 C    0.976
    67   1 H    1.002 --    47 C    0.974
    68   1 H    1.002 --    52 C    0.974
    69   1 H    0.998 --    53 C    0.976
    70   1 H    1.002 --    56 C    0.971
    71   1 H    0.998 --    58 C    0.976
    72   1 H    0.998 --    59 C    0.976
    73   6 C    3.937 --    74 C    2.490    75 C    1.296
    74   6 C    3.923 --    73 C    2.490    14 C    1.176    76 C    0.199
    75   6 C    3.937 --    76 C    2.490    73 C    1.296
    76   6 C    3.924 --    75 C    2.490    50 C    1.177    74 C    0.199
 ---------------------------------------------------------------------------

           -------------------------------------------------
          | TOTAL ENERGY             -139.327232902391 Eh   |
          | GRADIENT NORM               0.000609662166 Eh/α |
          | HOMO-LUMO GAP               0.000027678387 eV   |
           -------------------------------------------------

 * finished run on 2022/07/30 at 04:15:07.070
