   * xtb version 6.5.1 (b24c23e) compiled by 'conda@728c89f4b128' on 2022-07-12
          program call               : xtb Zn_m-CP_C4_2.xyz --gfn 1 --opt -T 48

   ID    Z sym.   atoms
    1   30 Zn     1, 63
    2    6 C      2-6, 8-12, 15-20, 22-27, 29-35, 38-42, 64-68, 70-74, 77-82,
                  84-89, 91-97, 100-104, 125-128
    3    7 N      7, 21, 28, 43, 69, 83, 90, 105
    4    8 O      13, 14, 36, 37, 75, 76, 98, 99
    5    1 H      44-62, 106-124
########################################################################
[WARNING] Please study the warnings concerning your input carefully
-1- prog_main_parseArguments: Unknown option '-T' provided
########################################################################

          :  Hamiltonian                  GFN1-xTB          :
 * total energy  :  -235.9931543 Eh     change       -0.3103850E-08 Eh
 * total energy  :  -237.1015610 Eh     change       -0.1108407E+01 Eh
 * total energy  :  -237.2329313 Eh     change       -0.1313702E+00 Eh
 * total energy  :  -237.3042337 Eh     change       -0.7130245E-01 Eh
 * total energy  :  -237.3295919 Eh     change       -0.2535821E-01 Eh
 * total energy  :  -237.3425564 Eh     change       -0.1296448E-01 Eh
 * total energy  :  -237.3501157 Eh     change       -0.7559319E-02 Eh
 * total energy  :  -237.3555957 Eh     change       -0.5480018E-02 Eh
 * total energy  :  -237.3597066 Eh     change       -0.4110854E-02 Eh
 * total energy  :  -237.3626800 Eh     change       -0.2973413E-02 Eh
 * total energy  :  -237.3726945 Eh     change       -0.2903473E-04 Eh
 * total energy  :  -237.3727083 Eh     change       -0.1377119E-04 Eh
 * total energy  :  -237.3727209 Eh     change       -0.1256894E-04 Eh
 * total energy  :  -237.3727366 Eh     change       -0.1573405E-04 Eh
 * total energy  :  -237.3727460 Eh     change       -0.9361756E-05 Eh
 * total energy  :  -237.3727597 Eh     change       -0.1368466E-04 Eh
 * total energy  :  -237.3727670 Eh     change       -0.7305372E-05 Eh
 * total energy  :  -237.3727725 Eh     change       -0.5541261E-05 Eh
 * total energy  :  -237.3727770 Eh     change       -0.4530421E-05 Eh
   *** GEOMETRY OPTIMIZATION CONVERGED AFTER 40 ITERATIONS ***

 final structure:
================
128
 xtb: 6.5.1 (b24c23e)
Zn          15.73353199686603        0.02045666232687        0.00688538117914
C           12.32785996976534        0.00944809065781        0.16965104821828
C           12.94994241058632        1.24468976391837        0.30326237771118
C           12.26834593586840        2.49693997329616        0.47840298919995
C           13.22061273252772        3.45826272491690        0.56764452284483
C           14.49770199963092        2.80295442518823        0.45876843251848
N           14.29756583232540        1.46422136930266        0.28980476219396
C           15.74452129159628        3.43849290556998        0.49499364537689
C           15.74848210926112        4.90786615035445        0.70824132060317
C           15.22828623969047        5.45387142456229        1.87827895739864
C           15.23139053523017        6.83385357834963        2.07832873502421
C           14.66366715812883        7.35332988646560        3.34734691385875
O           14.71387854349864        8.68954307363136        3.45061440765407
O           14.19643392191265        6.66276447790729        4.21679915193786
C           15.75613951696274        7.68070723598278        1.10197895077539
C           16.27373712312579        7.13994266070106       -0.06452761858739
C           16.27227586309198        5.76616179224173       -0.26156634435188
C           16.98709767878454        2.81074061817288        0.35332366309720
C           18.26349692929044        3.46378514297423        0.44934407062080
C           19.21445898599258        2.51149905220994        0.27140765578416
N           17.18735708931034        1.47469690536453        0.13140885543966
C           18.53028398070121        1.26745962049683        0.07363637036538
C           19.16700836814256        0.02933659631606       -0.14523316119490
C           18.51928306077606       -1.21063702565548       -0.31696075506568
C           19.19015762057577       -2.45070952464092       -0.57442991435820
C           18.23224159685259       -3.40796069101609       -0.67103057867206
C           16.96571551894589       -2.76215891145206       -0.46266961916851
N           17.17729772588675       -1.42444252792360       -0.26125204581235
C           15.71942518951874       -3.39816332616193       -0.48486464424048
C           15.71026527019955       -4.86899698689987       -0.68868808842152
C           16.33111898183055       -5.71667275224358        0.23150509032790
C           16.31600803786179       -7.09260043969103        0.04891666493962
C           15.68217689444512       -7.64003451360561       -1.05386729132370
C           15.05866295541155       -6.80386790324860       -1.98145481532943
C           14.38677469191334       -7.42874087743477       -3.14780700027673
O           13.80191878733508       -6.54407545214721       -3.96935428883610
O           14.35280021115154       -8.61436218511185       -3.35814181546314
C           15.07386199631210       -5.42263892617046       -1.79772981952515
C           14.47772756398093       -2.77054387159101       -0.32781071790224
C           13.20090061770990       -3.43483297029138       -0.30556929048821
C           12.25533360265855       -2.47940860438870       -0.12532517142082
C           12.94206659657426       -1.22204150556582       -0.02395187863597
N           14.28560169984265       -1.43229560905240       -0.14578383042345
H           11.24362166353408        0.00565754951099        0.22416922033840
H           11.19677120803750        2.61382870302094        0.51965016248030
H           13.07557968131423        4.51993868201469        0.68746806882579
H           14.82847124801356        4.81030045498511        2.65431774967440
H           14.32614140926638        8.94694033082478        4.30277221752890
H           15.75634764462380        8.75267821036271        1.25800850711061
H           16.68036885514450        7.79226528338355       -0.82914431469481
H           16.66717977191437        5.35112484485447       -1.18222083068681
H           18.41217408626835        4.51397276074993        0.64288181958952
H           20.28608454639826        2.63201979254079        0.27912941891790
H           20.25771194917105       -2.56567400433204       -0.67513801696036
H           18.36937331903643       -4.45724304099328       -0.87738819518693
H           16.81464296290596       -5.29133459803521        1.10388499682236
H           16.79874610606937       -7.73764409330333        0.77424449753299
H           15.65900494602643       -8.71246166500941       -1.21103937415591
H           13.38635375467154       -7.03045528204227       -4.69974934705028
H           14.60137438219145       -4.77508405793542       -2.52684262311556
H           13.05194858624080       -4.49821928446666       -0.40379786917138
H           11.18600090722215       -2.60430519594826       -0.05735790862761
Zn          29.20563298930813       -0.02119006589328       -0.00022715377373
C           32.61129660091181       -0.06347021528574        0.15809783767620
C           31.98956115826367       -1.27496389127559       -0.11821712184883
C           32.67135689502371       -2.51596383160795       -0.35995249848699
C           31.71927351745214       -3.45390577446438       -0.58959997177162
C           30.44209804054041       -2.79885531600984       -0.48016167552460
N           30.64199429631919       -1.47817419311524       -0.20351587003794
C           29.19533409176428       -3.41136673152320       -0.65433278025978
C           29.19158844399335       -4.86992633539219       -0.93204186121629
C           29.71181295713846       -5.76749559997864       -0.00388871147975
C           29.70890621958015       -7.13729083988868       -0.26462327220966
C           30.27626697396128       -8.04196708963836        0.76601591477936
O           30.22723759648127       -9.33890078106789        0.42747877739204
O           30.74386840183170       -7.67252111317526        1.81282757179063
C           29.18433612941174       -7.61966118972019       -1.46376798027468
C           28.66666440520741       -6.72821826613960       -2.39027330976903
C           28.66802629365585       -5.36523397392241       -2.12874674084707
C           27.95273989717269       -2.77175472212553       -0.58413100488796
C           26.67636651885665       -3.42028764620479       -0.70744057625028
C           25.72532208615515       -2.46231172779514       -0.56405582215084
N           27.75230203199911       -1.43658084284563       -0.35688584789543
C           26.40936407775789       -1.22196516272779       -0.34387605911531
C           25.77218614397466        0.01939169568793       -0.14602723818759
C           26.41932625720374        1.24782800354156        0.09613581118171
C           25.74830677830613        2.50406566247761        0.25695703118887
C           26.70620742001493        3.44073895969598        0.47669644546009
C           27.97283453214769        2.76243843445438        0.46298650151012
N           27.76131977318914        1.43199983561925        0.21787356684550
C           29.21907317276413        3.37098093886844        0.64921530259098
C           29.22783889720995        4.82782350578363        0.93639847094325
C           28.60612983462606        5.32845561968111        2.08255714638709
C           28.62038875649770        6.68862209963136        2.35903657212975
C           29.25424015090681        7.56629486392000        1.49560644759601
C           29.87858171725352        7.07896333556491        0.34623225756883
C           30.55037362044742        8.05060177724493       -0.55203747872952
O           31.13500145226207        7.48285143041102       -1.61764207315096
O           30.58435910396824        9.23987874358656       -0.36354409647156
C           29.86423909286749        5.71338416616625        0.06908493024928
C           30.46085992640135        2.72656340057305        0.59323421029144
C           31.73749092352476        3.34742941424758        0.83131926818075
C           32.68323517216903        2.38556259448928        0.69043845204231
C           31.99678213404762        1.16380434198612        0.37605324542116
N           30.65320029838844        1.40213063210555        0.32893922074233
H           33.69551309475338       -0.07744003779581        0.21142300913328
H           33.74292600098646       -2.63995635940226       -0.35799397670774
H           31.86457066366974       -4.49670772587774       -0.82198266435576
H           30.11130361208355       -5.41204104506420        0.93969228631617
H           30.61541033767128       -9.86004646693396        1.14893860295073
H           29.18418634352971       -8.68393387235962       -1.66567862614070
H           28.26009986548390       -7.09570245361751       -3.32578331044739
H           28.27327688181888       -4.67282077522413       -2.86396130462617
H           26.52779735001784       -4.47593959711555       -0.86854073012095
H           24.65367470972934       -2.57850361577220       -0.59633458646836
H           24.68071829711569        2.64548229750400        0.19983049591423
H           26.56903877077416        4.50010353067635        0.62285671206672
H           28.12254669009882        4.64139996767317        2.76802191641155
H           28.13691194870911        7.06136514182398        3.25487880249077
H           29.27673205730159        8.63130991993080        1.69705281968954
H           31.55052827057348        8.18109050613225       -2.14917808959953
H           30.33735130859567        5.33946759325631       -0.83120633382892
H           31.88618013824559        4.38471883883427        1.08536904046296
H           33.75251597470096        2.48159939768938        0.79582555305467
C           21.79464808050013        0.03810729513216       -0.20089360473623
C           20.57256944538934        0.03015508986545       -0.18453630568623
C           23.14450747964980        0.03500649764191       -0.19892309179943
C           24.36650603755026        0.03092981038109       -0.18281790835188

          :  Hamiltonian                  GFN1-xTB          :
         :: total energy            -237.372777030058 Eh    ::
         :: gradient norm              0.000641337837 Eh/a0 ::
         :: HOMO-LUMO gap              1.105660709657 eV    ::
         :: SCC energy              -240.823421564601 Eh    ::
         :: repulsion energy           3.564037244853 Eh    ::

    * Orbital Energies and Occupations

         #    Occupation            Energy/Eh            Energy/eV
      -------------------------------------------------------------
         1        2.0000           -0.8323295             -22.6488
       ...           ...                  ...                  ...
       197        2.0000           -0.4269319             -11.6174
       198        2.0000           -0.4269222             -11.6171
       199        2.0000           -0.4268447             -11.6150
       200        2.0000           -0.4262611             -11.5992
       201        2.0000           -0.4261641             -11.5965
       202        2.0000           -0.4260584             -11.5936
       203        2.0000           -0.4260165             -11.5925
       204        2.0000           -0.4245962             -11.5539
       205        2.0000           -0.4232927             -11.5184
       206        2.0000           -0.3986468             -10.8477
       207        2.0000           -0.3986449             -10.8477
       208        2.0000           -0.3944196             -10.7327
       209        2.0000           -0.3819214             -10.3926 (HOMO)
       210                         -0.3412891              -9.2869 (LUMO)
       211                         -0.3322842              -9.0419
       212                         -0.3322794              -9.0418
       213                         -0.3272568              -8.9051
       214                         -0.3104896              -8.4489
       215                         -0.3101089              -8.4385
       216                         -0.3094117              -8.4195
       217                         -0.3093750              -8.4185
       218                         -0.3005098              -8.1773
       219                         -0.2938087              -7.9949
       220                         -0.2742504              -7.4627
       ...                                ...                  ...
       436                          1.5146053              41.2145
      -------------------------------------------------------------
                  HL-Gap            0.0406323 Eh            1.1057 eV

Wiberg/Mayer (AO) data.
largest (>0.10) Wiberg bond orders for each atom

     #   Z sym  total        # sym  WBO       # sym  WBO       # sym  WBO
 ---------------------------------------------------------------------------
     1  30 Zn   1.995 --     7 N    0.460    43 N    0.459    28 N    0.455
                            21 N    0.455
     2   6 C    3.928 --     3 C    1.358    42 C    1.357    44 H    0.971
     3   6 C    3.921 --     2 C    1.358     7 N    1.233     4 C    1.169
     4   6 C    3.961 --     5 C    1.661     3 C    1.169    45 H    0.975
     5   6 C    3.963 --     4 C    1.661     6 C    1.170    46 H    0.973
     6   6 C    3.919 --     8 C    1.316     7 N    1.244     5 C    1.170
     7   7 N    3.294 --     6 C    1.244     3 C    1.233     1 Zn   0.460
     8   6 C    3.932 --    18 C    1.322     6 C    1.316     9 C    1.027
     9   6 C    3.988 --    10 C    1.408    17 C    1.388     8 C    1.027
                            15 C    0.102
    10   6 C    3.984 --     9 C    1.408    11 C    1.396    47 H    0.968
                            16 C    0.104
    11   6 C    3.988 --    10 C    1.396    15 C    1.390    12 C    1.006
    12   6 C    3.836 --    14 O    1.691    13 O    1.089    11 C    1.006
    13   8 O    2.098 --    12 C    1.089    48 H    0.838    14 O    0.129
    14   8 O    1.960 --    12 C    1.691    13 O    0.129
    15   6 C    3.987 --    16 C    1.448    11 C    1.390    49 H    0.971
                             9 C    0.102
    16   6 C    3.994 --    15 C    1.448    17 C    1.441    50 H    0.972
                            10 C    0.104
    17   6 C    3.987 --    16 C    1.441     9 C    1.388    51 H    0.973
    18   6 C    3.914 --     8 C    1.322    21 N    1.227    19 C    1.179
    19   6 C    3.959 --    20 C    1.646    18 C    1.179    52 H    0.973
    20   6 C    3.962 --    19 C    1.646    22 C    1.186    53 H    0.974
    21   7 N    3.297 --    22 C    1.262    18 C    1.227     1 Zn   0.455
    22   6 C    3.902 --    21 N    1.262    23 C    1.255    20 C    1.186
    23   6 C    3.939 --    22 C    1.255    24 C    1.255   126 C    1.189
    24   6 C    3.902 --    28 N    1.262    23 C    1.255    25 C    1.187
    25   6 C    3.962 --    26 C    1.645    24 C    1.187    54 H    0.974
    26   6 C    3.959 --    25 C    1.645    27 C    1.179    55 H    0.973
    27   6 C    3.914 --    29 C    1.322    28 N    1.227    26 C    1.179
    28   7 N    3.297 --    24 C    1.262    27 C    1.227     1 Zn   0.455
    29   6 C    3.932 --    27 C    1.322    39 C    1.315    30 C    1.027
    30   6 C    3.988 --    38 C    1.406    31 C    1.389    29 C    1.027
                            33 C    0.102
    31   6 C    3.987 --    32 C    1.439    30 C    1.389    56 H    0.973
    32   6 C    3.994 --    33 C    1.451    31 C    1.439    57 H    0.972
                            38 C    0.104
    33   6 C    3.985 --    32 C    1.451    34 C    1.387    58 H    0.969
                            30 C    0.102
    34   6 C    3.988 --    38 C    1.399    33 C    1.387    35 C    1.006
    35   6 C    3.835 --    37 O    1.692    36 O    1.089    34 C    1.006
    36   8 O    2.098 --    35 C    1.089    59 H    0.838    37 O    0.129
    37   8 O    1.960 --    35 C    1.692    36 O    0.129
    38   6 C    3.985 --    30 C    1.406    34 C    1.399    60 H    0.969
                            32 C    0.104
    39   6 C    3.919 --    29 C    1.315    43 N    1.244    40 C    1.171
    40   6 C    3.963 --    41 C    1.660    39 C    1.171    61 H    0.973
    41   6 C    3.960 --    40 C    1.660    42 C    1.170    62 H    0.975
    42   6 C    3.921 --     2 C    1.357    43 N    1.233    41 C    1.170
    43   7 N    3.294 --    39 C    1.244    42 C    1.233     1 Zn   0.459
    44   1 H    1.001 --     2 C    0.971
    45   1 H    0.998 --     4 C    0.975
    46   1 H    1.004 --     5 C    0.973
    47   1 H    1.007 --    10 C    0.968
    48   1 H    0.873 --    13 O    0.838
    49   1 H    1.005 --    15 C    0.971
    50   1 H    1.002 --    16 C    0.972
    51   1 H    1.005 --    17 C    0.973
    52   1 H    1.004 --    19 C    0.973
    53   1 H    1.002 --    20 C    0.974
    54   1 H    1.002 --    25 C    0.974
    55   1 H    1.004 --    26 C    0.973
    56   1 H    1.005 --    31 C    0.973
    57   1 H    1.002 --    32 C    0.972
    58   1 H    1.005 --    33 C    0.969
    59   1 H    0.873 --    36 O    0.838
    60   1 H    1.008 --    38 C    0.969
    61   1 H    1.004 --    40 C    0.973
    62   1 H    0.998 --    41 C    0.975
    63  30 Zn   1.995 --    69 N    0.460   105 N    0.460    83 N    0.455
                            90 N    0.455
    64   6 C    3.928 --    65 C    1.358   104 C    1.357   106 H    0.971
    65   6 C    3.921 --    64 C    1.358    69 N    1.233    66 C    1.169
    66   6 C    3.961 --    67 C    1.661    65 C    1.169   107 H    0.975
    67   6 C    3.963 --    66 C    1.661    68 C    1.170   108 H    0.973
    68   6 C    3.919 --    70 C    1.316    69 N    1.244    67 C    1.170
    69   7 N    3.294 --    68 C    1.244    65 C    1.233    63 Zn   0.460
    70   6 C    3.932 --    80 C    1.322    68 C    1.316    71 C    1.027
    71   6 C    3.988 --    72 C    1.408    79 C    1.388    70 C    1.027
                            77 C    0.102
    72   6 C    3.984 --    71 C    1.408    73 C    1.396   109 H    0.968
                            78 C    0.104
    73   6 C    3.988 --    72 C    1.396    77 C    1.390    74 C    1.006
    74   6 C    3.836 --    76 O    1.692    75 O    1.089    73 C    1.006
    75   8 O    2.098 --    74 C    1.089   110 H    0.838    76 O    0.129
    76   8 O    1.961 --    74 C    1.692    75 O    0.129
    77   6 C    3.987 --    78 C    1.448    73 C    1.390   111 H    0.971
                            71 C    0.102
    78   6 C    3.994 --    77 C    1.448    79 C    1.441   112 H    0.972
                            72 C    0.104
    79   6 C    3.987 --    78 C    1.441    71 C    1.388   113 H    0.973
    80   6 C    3.914 --    70 C    1.322    83 N    1.227    81 C    1.179
    81   6 C    3.959 --    82 C    1.646    80 C    1.179   114 H    0.973
    82   6 C    3.962 --    81 C    1.646    84 C    1.186   115 H    0.974
    83   7 N    3.297 --    84 C    1.262    80 C    1.227    63 Zn   0.455
    84   6 C    3.902 --    83 N    1.262    85 C    1.255    82 C    1.186
    85   6 C    3.939 --    84 C    1.255    86 C    1.254   128 C    1.189
    86   6 C    3.902 --    90 N    1.262    85 C    1.254    87 C    1.187
    87   6 C    3.962 --    88 C    1.645    86 C    1.187   116 H    0.974
    88   6 C    3.959 --    87 C    1.645    89 C    1.179   117 H    0.973
    89   6 C    3.914 --    91 C    1.322    90 N    1.227    88 C    1.179
    90   7 N    3.296 --    86 C    1.262    89 C    1.227    63 Zn   0.455
    91   6 C    3.932 --    89 C    1.322   101 C    1.315    92 C    1.027
    92   6 C    3.988 --   100 C    1.406    93 C    1.389    91 C    1.027
                            95 C    0.102
    93   6 C    3.987 --    94 C    1.439    92 C    1.389   118 H    0.973
    94   6 C    3.994 --    95 C    1.451    93 C    1.439   119 H    0.972
                           100 C    0.104
    95   6 C    3.985 --    94 C    1.451    96 C    1.387   120 H    0.969
                            92 C    0.102
    96   6 C    3.988 --   100 C    1.399    95 C    1.387    97 C    1.006
    97   6 C    3.835 --    99 O    1.692    98 O    1.089    96 C    1.006
    98   8 O    2.098 --    97 C    1.089   121 H    0.839    99 O    0.129
    99   8 O    1.960 --    97 C    1.692    98 O    0.129
   100   6 C    3.985 --    92 C    1.406    96 C    1.399   122 H    0.969
                            94 C    0.104
   101   6 C    3.919 --    91 C    1.315   105 N    1.244   102 C    1.171
   102   6 C    3.963 --   103 C    1.660   101 C    1.171   123 H    0.973
   103   6 C    3.960 --   102 C    1.660   104 C    1.170   124 H    0.975
   104   6 C    3.921 --    64 C    1.357   105 N    1.233   103 C    1.170
   105   7 N    3.294 --   101 C    1.244   104 C    1.233    63 Zn   0.460
   106   1 H    1.001 --    64 C    0.971
   107   1 H    0.998 --    66 C    0.975
   108   1 H    1.004 --    67 C    0.973
   109   1 H    1.007 --    72 C    0.968
   110   1 H    0.873 --    75 O    0.838
   111   1 H    1.005 --    77 C    0.971
   112   1 H    1.002 --    78 C    0.972
   113   1 H    1.005 --    79 C    0.973
   114   1 H    1.004 --    81 C    0.973
   115   1 H    1.002 --    82 C    0.974
   116   1 H    1.002 --    87 C    0.974
   117   1 H    1.004 --    88 C    0.973
   118   1 H    1.005 --    93 C    0.973
   119   1 H    1.002 --    94 C    0.972
   120   1 H    1.005 --    95 C    0.969
   121   1 H    0.873 --    98 O    0.839
   122   1 H    1.008 --   100 C    0.969
   123   1 H    1.004 --   102 C    0.973
   124   1 H    0.998 --   103 C    0.975
   125   6 C    3.935 --   126 C    2.476   127 C    1.308
   126   6 C    3.926 --   125 C    2.476    23 C    1.189   128 C    0.199
   127   6 C    3.935 --   128 C    2.476   125 C    1.308
   128   6 C    3.926 --   127 C    2.476    85 C    1.189   126 C    0.199
 ---------------------------------------------------------------------------

           -------------------------------------------------
          | TOTAL ENERGY             -237.372777030058 Eh   |
          | GRADIENT NORM               0.000641337837 Eh/α |
          | HOMO-LUMO GAP               1.105660709657 eV   |
           -------------------------------------------------

 * finished run on 2022/07/30 at 10:15:56.037
