   * xtb version 6.5.1 (b24c23e) compiled by 'conda@728c89f4b128' on 2022-07-12
          program call               : xtb Fe_Ph_C2_3.xyz --gfn 1 --opt -T 48

   ID    Z sym.   atoms
    1   26 Fe     1, 57, 117
    2    6 C      2-6, 8-11, 13-29, 32-37, 58-62, 64-67, 69-85, 88-93,
                  113-116, 118-122, 124-127, 129-145, 148-153
    3    7 N      7, 12, 30, 31, 63, 68, 86, 87, 123, 128, 146, 147
    4    1 H      38-56, 94-112, 154-171

          :  Hamiltonian                  GFN1-xTB          :
 * total energy  :  -288.3275245 Eh     change       -0.7259018E-08 Eh
 * total energy  :  -288.4838914 Eh     change       -0.1563669E+00 Eh
 * total energy  :  -288.5946823 Eh     change       -0.1107909E+00 Eh
 * total energy  :  -288.6517918 Eh     change       -0.5710952E-01 Eh
 * total energy  :  -288.6773570 Eh     change       -0.2556518E-01 Eh
 * total energy  :  -288.6974682 Eh     change       -0.2011129E-01 Eh
 * total energy  :  -288.7129109 Eh     change       -0.1544263E-01 Eh
 * total energy  :  -288.7255854 Eh     change       -0.1267452E-01 Eh
 * total energy  :  -288.7358424 Eh     change       -0.1025703E-01 Eh
 * total energy  :  -288.7437209 Eh     change       -0.7878460E-02 Eh
 * total energy  :  -288.7845787 Eh     change       -0.1540125E-04 Eh
 * total energy  :  -288.7845905 Eh     change       -0.1179249E-04 Eh
 * total energy  :  -288.7846005 Eh     change       -0.1000544E-04 Eh
 * total energy  :  -288.7846104 Eh     change       -0.9929748E-05 Eh
 * total energy  :  -288.7846198 Eh     change       -0.9404788E-05 Eh
 * total energy  :  -288.7846285 Eh     change       -0.8731728E-05 Eh
 * total energy  :  -288.7846369 Eh     change       -0.8359604E-05 Eh
 * total energy  :  -288.7846434 Eh     change       -0.6516399E-05 Eh
 * total energy  :  -288.7846453 Eh     change       -0.1911318E-05 Eh
   *** GEOMETRY OPTIMIZATION CONVERGED AFTER 68 ITERATIONS ***

 final structure:
================
171
 xtb: 6.5.1 (b24c23e)
Fe          31.45918415962242       -0.02729578760685        0.00311886119182
C           28.07266328688304       -0.03193536341747        0.00050741926009
C           28.71913715396247       -1.23155714497148       -0.21755805177092
C           28.04027680527497       -2.47275369557252       -0.43934750620842
C           28.99212307147591       -3.43515804778757       -0.47115513065250
C           30.25252370096817       -2.77915034483696       -0.27368977104751
N           30.07338876553821       -1.42826923424230       -0.14926132220295
C           31.45905930745353       -3.44895113714543       -0.09916692727680
C           32.66210398154786       -2.79234345175418        0.11553955458305
C           33.91725045034528       -3.45923220934388        0.29594793772737
C           34.86981585779999       -2.49655686460281        0.32792456764107
N           32.85087687773149       -1.43134309421129        0.06175443688162
C           34.19812326244626       -1.24697838158152        0.15404250809344
C           34.86825644084869       -0.02500966771826        0.00831956965808
C           34.19487148221016        1.19501253443170       -0.14009856921176
C           34.85983101199495        2.44118911332772       -0.35731152035118
C           33.90486321317454        3.40226607335523       -0.33286091294675
C           32.65789567852181        2.73839244273894       -0.09510563960160
C           31.45218891598870        3.39604745953641        0.10571818180870
C           31.45050517419329        4.87693246661649        0.14875795504432
C           30.70625148215716        5.61179984720826       -0.77533224131204
C           30.71004127478840        6.99783611957084       -0.73428147666168
C           31.45018252448937        7.66594081810829        0.23178445389254
C           32.19087546386829        6.94189909777713        1.15618298458531
C           32.19503034034754        5.55590006312735        1.11454745585312
C           30.24536699966154        2.72167205845449        0.26578482674345
C           28.98950605933505        3.36655865399387        0.51969830274717
C           28.03936654190396        2.40231917440760        0.48034924221001
C           28.71725647852925        1.16906346230704        0.21678094209749
N           30.06973501293451        1.37153334842796        0.13058099930148
N           32.84877784212454        1.37853594422934       -0.03051679182552
C           31.45864771153369       -4.93244144038493       -0.14172346551358
C           31.18099280452440       -5.60209661203517       -1.33340540529764
C           31.18856493221049       -6.98836239152924       -1.37479670549283
C           31.46643203146565       -7.71949455894982       -0.22787482120179
C           31.73902757449330       -7.05903599074572        0.96233348968024
C           31.73848022028848       -5.67277368830506        1.00679225174057
H           26.98843153745214       -0.03398611302533        0.00743562005101
H           26.97153842061459       -2.57589568290016       -0.54084716723836
H           28.86417748400235       -4.49787847860389       -0.59866840906230
H           34.04465614239412       -4.52660388664617        0.37376988882986
H           35.93439375966221       -2.61027159195041        0.45049858780554
H           35.91994859596502        2.55301196560381       -0.51536292604140
H           34.02363382020070        4.46462011957252       -0.47048069574346
H           30.13819854600183        5.09173028542388       -1.53859420905103
H           30.13286401200681        7.55897160984646       -1.46081402315638
H           31.44983669979096        8.74956406402526        0.26411532082939
H           32.76838079406432        7.45898938995518        1.91445910892172
H           32.76436137554939        4.99127705495234        1.84449974670545
H           28.86411584059492        4.42096587390655        0.70539221651722
H           26.97365128980355        2.49821296355621        0.61514989235842
H           30.97403536409206       -5.03127246168830       -2.23173029031157
H           30.97759226412437       -7.49977965913453       -2.30742774375390
H           31.47078016587302       -8.80307589930943       -0.26169417579847
H           31.95339038718492       -7.62591165218805        1.86153942910579
H           31.94169097650119       -5.15755655701518        1.93894325678634
Fe          53.15760626238365        0.06502568307397        0.01918641989580
C           56.54393279275524        0.05526788531919        0.03746234946206
C           55.90381477828324        1.26564486719564       -0.13515332801980
C           56.58926283950329        2.51166691103801       -0.30257481027489
C           55.64146853669445        3.47855926662709       -0.30399764934932
C           54.37697623532961        2.82071935697201       -0.14164179966759
N           54.54989220420817        1.46524438587606       -0.06911646179518
C           53.17223643701786        3.48846260612692        0.05296848051232
C           51.96579067370740        2.82896419839542        0.23808184072136
C           50.71288652581432        3.49329296596872        0.44211014750858
C           49.75678243766014        2.53363149460453        0.43758471475723
N           51.77190156859196        1.47172727672630        0.13210051229234
C           50.42391451277139        1.28903712688787        0.21683082931505
C           49.74861954544755        0.07674236123919        0.02249658703885
C           50.41672277987904       -1.13876903383809       -0.17808762215193
C           49.74670635892947       -2.37111473932348       -0.45122384193389
C           50.69791368148629       -3.33598883966158       -0.47193295798774
C           51.94758022545376       -2.68872084001907       -0.20437592747601
C           53.15034207317548       -3.35991664825261       -0.03256708660928
C           53.14621774782781       -4.84114057115109       -0.05868841268715
C           53.89242395958802       -5.53511258071517       -1.01237705487714
C           53.88251549104374       -6.92152271956294       -1.03664989550968
C           53.13411464543774       -7.63105721240953       -0.10718719308063
C           52.39173568913379       -6.94799518219615        0.84658652489125
C           52.39395727905804       -5.56158967536954        0.87042293971380
C           54.35922111658005       -2.69853472655380        0.16273176635556
C           55.61109601686988       -3.35952408089040        0.39391952907978
C           56.56487521789946       -2.39817232651232        0.40641672466560
C           55.89322369799692       -1.15138784462028        0.19588660453623
N           54.54060001855912       -1.34431439927601        0.09149200828180
N           51.76209695848924       -1.33242863024368       -0.07769256970421
C           53.18052466370317        4.97226861095566        0.07102454178916
C           53.47720019696666        5.68929673575369       -1.08811618631660
C           53.48050947681312        7.07610242130948       -1.07112626364870
C           53.19424928450412        7.76062155120455        0.10219549906079
C           52.90186336769742        7.05290866258840        1.26011428004512
C           52.89189601585544        5.66607528069988        1.24619706935283
H           57.62808250676568        0.05252498985148        0.05239148624393
H           57.65913546769629        2.61426555138677       -0.39189128920466
H           55.77492793532493        4.54485101885280       -0.38868136320390
H           50.58905823181748        4.55746156487002        0.55941572856861
H           48.69252007841300        2.64650663659152        0.56365016879782
H           48.68612379191596       -2.47163570528194       -0.61354839505698
H           50.57467741503929       -4.39033885951007       -0.65843765265789
H           54.46685183100898       -4.98236421504126       -1.74738152400459
H           54.46130254888469       -7.45043623823956       -1.78572601929031
H           53.12934437629912       -8.71498601547431       -0.12618633908095
H           51.80785540879913       -7.49756420305113        1.57661022326042
H           51.82350226595116       -5.02945667601907        1.62353607094725
H           55.73152271105226       -4.42194788869041        0.53077345956430
H           57.62930851271399       -2.50431503672100        0.54363949895013
H           53.69058852546173        5.15525884381661       -2.00731691969920
H           53.70721734507892        7.62456772392799       -1.97867623555075
H           53.19937550865567        8.84465592291157        0.11425371263003
H           52.68073165837949        7.58312799951258        2.17979975390591
H           52.67401386257023        5.11380520360358        2.15348631676254
C           36.27125377333418       -0.02078958770864        0.00822117274042
C           37.49075550589573       -0.01254106437530        0.01165277165319
C           47.12608990888258        0.06869875497150        0.02555875921571
C           48.34560761684136        0.07849739050589        0.02189130891914
Fe          42.30824559702043        0.02918575440991        0.03587476274666
C           38.89303063298302       -0.00053756754393        0.01584464281788
C           39.57766390328692       -1.20441793958217       -0.20225564190059
C           38.92150721062076       -2.44740572860394       -0.45724609016421
C           39.88557734643034       -3.39995907276928       -0.47694787743601
C           41.12978759075230       -2.73078872886653       -0.24541838760960
N           40.92627907042192       -1.37839475899254       -0.11329954426426
C           42.33834365710741       -3.38522718422001       -0.04333062642177
C           43.53560776861742       -2.71827340682829        0.18475788595949
C           44.79165127043084       -3.37402049603701        0.38898291235363
C           45.73904025096306       -2.40471765821398        0.40451538437303
N           43.71557184878517       -1.35875640019999        0.10268559590714
C           45.06084488476409       -1.16446769413267        0.19865681032189
C           45.72378966295005        0.05921846343826        0.02815176985607
C           45.04025099938463        1.27176296445342       -0.13903762525115
C           45.69722475322308        2.52478194906607       -0.33650213253049
C           44.73304454769290        3.47727136159028       -0.31845693084293
C           43.48807944290699        2.79849401677909       -0.12170960648431
C           42.27832880616879        3.44361196522145        0.10142856822077
C           42.26449503019621        4.92722188685364        0.13253847119615
C           42.00115792637418        5.60573866419899        1.32232883547640
C           41.98973966586907        6.99240416553621        1.34814421128354
C           42.23438882860631        7.71435735648741        0.18796135139564
C           42.49468657662982        7.04461120260356       -0.99979378707886
C           42.51329051718733        5.65815455221617       -1.02906315490953
C           41.08005463123261        2.76791668686626        0.29492438056146
C           39.82337415082461        3.41482592722684        0.52208245447430
C           38.87595426820062        2.44580758052940        0.49456121709776
C           39.55488023169817        1.21505626118960        0.23957130581673
N           40.90048849033673        1.41300341628182        0.15581714862562
N           43.69122827492248        1.44171031302830       -0.04770771117241
C           42.35276103465289       -4.86856898622744       -0.07572342420450
C           42.09886348509302       -5.54931234116260       -1.26643548287154
C           42.11911180095122       -6.93568771405274       -1.29703898399826
C           42.38685336703115       -7.65565765415329       -0.14075123524301
C           42.63658201332279       -6.98399832438771        1.04818735110095
C           42.62282243025393       -5.59755182711886        1.08236386065287
H           37.85932855935822       -2.56521383353345       -0.59524081496766
H           39.77095447667537       -4.46194292002540       -0.62002312663054
H           44.92512861048687       -4.43844563604224        0.49191501572208
H           46.80325356257324       -2.50934918908646        0.53728712578502
H           46.75999100625839        2.64856411818729       -0.46439247145197
H           44.84764140826480        4.54455310960625       -0.41445180074781
H           41.81982225241926        5.04219610183095        2.23067917126335
H           41.78912026884943        7.51121213497533        2.27893796282666
H           42.22238081801138        8.79816473975945        0.20944431969517
H           42.68376851230590        7.60418557300069       -1.90912573577178
H           42.70629305322351        5.13511360985472       -1.95897627964449
H           39.69011016061648        4.47415987984953        0.66867282410942
H           37.81127349425751        2.54483688128275        0.62805556738170
H           41.90091223443026       -4.98706031436747       -2.17209197907536
H           41.92573696378981       -7.45576185435076       -2.22863078233162
H           42.40079691503094       -8.73935283503499       -0.16619521879447
H           42.84325945531656       -7.54210843279615        1.95457747007526
H           42.80764381216735       -5.07361176158445        2.01342696229968

          :  Hamiltonian                  GFN1-xTB          :
         :: total energy            -288.784645327717 Eh    ::
         :: gradient norm              0.000363474964 Eh/a0 ::
         :: HOMO-LUMO gap              0.048714936662 eV    ::
         :: SCC energy              -293.475412890045 Eh    ::
         :: repulsion energy           4.852523554203 Eh    ::

    * Orbital Energies and Occupations

         #    Occupation            Energy/Eh            Energy/eV
      -------------------------------------------------------------
         1        2.0000           -0.7714168             -20.9913
       ...           ...                  ...                  ...
       258        2.0000           -0.3962884             -10.7836
       259        2.0000           -0.3962759             -10.7832
       260        1.9999           -0.3915079             -10.6535
       261        1.9931           -0.3870936             -10.5334
       262        1.9926           -0.3870281             -10.5316
       263        1.9924           -0.3870027             -10.5309
       264        1.9708           -0.3857102             -10.4957
       265        1.9622           -0.3854608             -10.4889
       266        1.9590           -0.3853804             -10.4867
       267        1.9579           -0.3853554             -10.4861
       268        1.9564           -0.3853214             -10.4851
       269        1.9564           -0.3853209             -10.4851
       270        1.1961           -0.3820848             -10.3971 (HOMO)
       271        0.3687           -0.3802946             -10.3483 (LUMO)
       272        0.3474           -0.3802256             -10.3465
       273        0.3470           -0.3802243             -10.3464
       274                         -0.3437796              -9.3547
       275                         -0.3310322              -9.0078
       276                         -0.3293539              -8.9622
       277                         -0.3270537              -8.8996
       278                         -0.3270130              -8.8985
       279                         -0.3201681              -8.7122
       280                         -0.3010455              -8.1919
       281                         -0.2999120              -8.1610
       ...                                ...                  ...
       587                          1.3306584              36.2091
      -------------------------------------------------------------
                  HL-Gap            0.0017902 Eh            0.0487 eV

Wiberg/Mayer (AO) data.
largest (>0.10) Wiberg bond orders for each atom

     #   Z sym  total        # sym  WBO       # sym  WBO       # sym  WBO
 ---------------------------------------------------------------------------
     1  26 Fe   3.101 --    30 N    0.662     7 N    0.662    31 N    0.655
                            12 N    0.655
     2   6 C    3.914 --     3 C    1.363    29 C    1.362    38 H    0.970
     3   6 C    3.926 --     2 C    1.363     7 N    1.209     4 C    1.173
     4   6 C    3.959 --     5 C    1.650     3 C    1.173    39 H    0.975
     5   6 C    3.962 --     4 C    1.650     6 C    1.175    40 H    0.973
     6   6 C    3.920 --     8 C    1.313     7 N    1.225     5 C    1.175
     7   7 N    3.375 --     6 C    1.225     3 C    1.209     1 Fe   0.662
     8   6 C    3.917 --     9 C    1.337     6 C    1.313    32 C    1.021
     9   6 C    3.919 --     8 C    1.337    12 N    1.198    10 C    1.179
    10   6 C    3.957 --    11 C    1.638     9 C    1.179    41 H    0.973
    11   6 C    3.961 --    10 C    1.638    13 C    1.188    42 H    0.969
    12   7 N    3.374 --    13 C    1.248     9 C    1.198     1 Fe   0.655
    13   6 C    3.909 --    14 C    1.250    12 N    1.248    11 C    1.188
    14   6 C    3.915 --    13 C    1.250    15 C    1.249   113 C    1.200
    15   6 C    3.909 --    14 C    1.249    31 N    1.247    16 C    1.190
    16   6 C    3.961 --    17 C    1.636    15 C    1.190    43 H    0.969
    17   6 C    3.957 --    16 C    1.636    18 C    1.180    44 H    0.973
    18   6 C    3.919 --    19 C    1.333    31 N    1.199    17 C    1.180
    19   6 C    3.918 --    18 C    1.333    26 C    1.310    20 C    1.030
    20   6 C    3.988 --    21 C    1.393    25 C    1.393    19 C    1.030
                            23 C    0.107
    21   6 C    3.987 --    22 C    1.448    20 C    1.393    45 H    0.973
                            24 C    0.109
    22   6 C    3.995 --    21 C    1.448    23 C    1.437    46 H    0.973
                            25 C    0.109
    23   6 C    3.989 --    24 C    1.437    22 C    1.437    47 H    0.974
                            20 C    0.107
    24   6 C    3.995 --    25 C    1.448    23 C    1.437    48 H    0.973
                            21 C    0.109
    25   6 C    3.987 --    24 C    1.448    20 C    1.393    49 H    0.973
                            22 C    0.109
    26   6 C    3.921 --    19 C    1.310    30 N    1.226    27 C    1.176
    27   6 C    3.962 --    28 C    1.648    26 C    1.176    50 H    0.973
    28   6 C    3.959 --    27 C    1.648    29 C    1.174    51 H    0.975
    29   6 C    3.926 --     2 C    1.362    30 N    1.209    28 C    1.174
    30   7 N    3.374 --    26 C    1.226    29 C    1.209     1 Fe   0.662
    31   7 N    3.374 --    15 C    1.247    18 C    1.199     1 Fe   0.655
    32   6 C    3.988 --    37 C    1.397    33 C    1.397     8 C    1.021
                            35 C    0.109
    33   6 C    3.988 --    34 C    1.446    32 C    1.397    52 H    0.973
                            36 C    0.110
    34   6 C    3.995 --    33 C    1.446    35 C    1.438    53 H    0.973
                            37 C    0.110
    35   6 C    3.991 --    36 C    1.438    34 C    1.438    54 H    0.974
                            32 C    0.109
    36   6 C    3.995 --    37 C    1.446    35 C    1.438    55 H    0.973
                            33 C    0.110
    37   6 C    3.988 --    36 C    1.446    32 C    1.397    56 H    0.973
                            34 C    0.110
    38   1 H    1.001 --     2 C    0.970
    39   1 H    0.998 --     4 C    0.975
    40   1 H    1.005 --     5 C    0.973
    41   1 H    1.005 --    10 C    0.973
    42   1 H    1.005 --    11 C    0.969
    43   1 H    1.005 --    16 C    0.969
    44   1 H    1.004 --    17 C    0.973
    45   1 H    1.005 --    21 C    0.973
    46   1 H    1.002 --    22 C    0.973
    47   1 H    1.003 --    23 C    0.974
    48   1 H    1.003 --    24 C    0.973
    49   1 H    1.005 --    25 C    0.973
    50   1 H    1.004 --    27 C    0.973
    51   1 H    0.998 --    28 C    0.975
    52   1 H    1.004 --    33 C    0.973
    53   1 H    1.002 --    34 C    0.973
    54   1 H    1.003 --    35 C    0.974
    55   1 H    1.003 --    36 C    0.973
    56   1 H    1.004 --    37 C    0.973
    57  26 Fe   3.101 --    86 N    0.662    63 N    0.662    68 N    0.655
                            87 N    0.655
    58   6 C    3.914 --    59 C    1.363    85 C    1.362    94 H    0.970
    59   6 C    3.926 --    58 C    1.363    63 N    1.210    60 C    1.173
    60   6 C    3.959 --    61 C    1.650    59 C    1.173    95 H    0.975
    61   6 C    3.962 --    60 C    1.650    62 C    1.175    96 H    0.973
    62   6 C    3.920 --    64 C    1.313    63 N    1.225    61 C    1.175
    63   7 N    3.375 --    62 C    1.225    59 C    1.210    57 Fe   0.662
    64   6 C    3.917 --    65 C    1.337    62 C    1.313    88 C    1.021
    65   6 C    3.919 --    64 C    1.337    68 N    1.198    66 C    1.179
    66   6 C    3.957 --    67 C    1.638    65 C    1.179    97 H    0.973
    67   6 C    3.961 --    66 C    1.638    69 C    1.188    98 H    0.969
    68   7 N    3.374 --    69 C    1.248    65 C    1.198    57 Fe   0.655
    69   6 C    3.909 --    70 C    1.250    68 N    1.248    67 C    1.188
    70   6 C    3.915 --    69 C    1.250    71 C    1.249   116 C    1.200
    71   6 C    3.909 --    70 C    1.249    87 N    1.248    72 C    1.190
    72   6 C    3.961 --    73 C    1.635    71 C    1.190    99 H    0.969
    73   6 C    3.957 --    72 C    1.635    74 C    1.180   100 H    0.973
    74   6 C    3.919 --    75 C    1.333    87 N    1.199    73 C    1.180
    75   6 C    3.918 --    74 C    1.333    82 C    1.310    76 C    1.030
    76   6 C    3.988 --    77 C    1.393    81 C    1.393    75 C    1.030
                            79 C    0.107
    77   6 C    3.987 --    78 C    1.448    76 C    1.393   101 H    0.973
                            80 C    0.109
    78   6 C    3.995 --    77 C    1.448    79 C    1.437   102 H    0.973
                            81 C    0.109
    79   6 C    3.989 --    80 C    1.437    78 C    1.437   103 H    0.974
                            76 C    0.107
    80   6 C    3.995 --    81 C    1.448    79 C    1.437   104 H    0.973
                            77 C    0.109
    81   6 C    3.987 --    80 C    1.448    76 C    1.393   105 H    0.973
                            78 C    0.109
    82   6 C    3.921 --    75 C    1.310    86 N    1.226    83 C    1.176
    83   6 C    3.962 --    84 C    1.648    82 C    1.176   106 H    0.973
    84   6 C    3.959 --    83 C    1.648    85 C    1.174   107 H    0.975
    85   6 C    3.926 --    58 C    1.362    86 N    1.209    84 C    1.174
    86   7 N    3.374 --    82 C    1.226    85 C    1.209    57 Fe   0.662
    87   7 N    3.374 --    71 C    1.248    74 C    1.199    57 Fe   0.655
    88   6 C    3.988 --    89 C    1.397    93 C    1.397    64 C    1.021
                            91 C    0.109
    89   6 C    3.988 --    90 C    1.446    88 C    1.397   108 H    0.973
                            92 C    0.110
    90   6 C    3.995 --    89 C    1.446    91 C    1.438   109 H    0.973
                            93 C    0.110
    91   6 C    3.991 --    92 C    1.438    90 C    1.438   110 H    0.974
                            88 C    0.109
    92   6 C    3.995 --    93 C    1.446    91 C    1.438   111 H    0.973
                            89 C    0.110
    93   6 C    3.988 --    92 C    1.446    88 C    1.397   112 H    0.973
                            90 C    0.110
    94   1 H    1.001 --    58 C    0.970
    95   1 H    0.998 --    60 C    0.975
    96   1 H    1.005 --    61 C    0.973
    97   1 H    1.005 --    66 C    0.973
    98   1 H    1.005 --    67 C    0.969
    99   1 H    1.005 --    72 C    0.969
   100   1 H    1.004 --    73 C    0.973
   101   1 H    1.005 --    77 C    0.973
   102   1 H    1.002 --    78 C    0.973
   103   1 H    1.003 --    79 C    0.974
   104   1 H    1.003 --    80 C    0.973
   105   1 H    1.005 --    81 C    0.973
   106   1 H    1.004 --    83 C    0.973
   107   1 H    0.998 --    84 C    0.975
   108   1 H    1.004 --    89 C    0.973
   109   1 H    1.002 --    90 C    0.973
   110   1 H    1.003 --    91 C    0.974
   111   1 H    1.003 --    92 C    0.973
   112   1 H    1.004 --    93 C    0.973
   113   6 C    3.915 --   114 C    2.539    14 C    1.200
   114   6 C    3.921 --   113 C    2.539   118 C    1.204
   115   6 C    3.921 --   116 C    2.539   130 C    1.204
   116   6 C    3.915 --   115 C    2.539    70 C    1.200
   117  26 Fe   3.061 --   123 N    0.648   147 N    0.647   146 N    0.646
                           128 N    0.646
   118   6 C    3.900 --   119 C    1.246   145 C    1.246   114 C    1.204
   119   6 C    3.910 --   123 N    1.250   118 C    1.246   120 C    1.192
   120   6 C    3.960 --   121 C    1.632   119 C    1.192   154 H    0.969
   121   6 C    3.958 --   120 C    1.632   122 C    1.184   155 H    0.973
   122   6 C    3.916 --   124 C    1.324   123 N    1.203   121 C    1.184
   123   7 N    3.364 --   119 C    1.250   122 C    1.203   117 Fe   0.648
   124   6 C    3.908 --   122 C    1.324   125 C    1.323   148 C    1.021
   125   6 C    3.916 --   124 C    1.323   128 N    1.204   126 C    1.184
   126   6 C    3.958 --   127 C    1.632   125 C    1.184   156 H    0.973
   127   6 C    3.960 --   126 C    1.632   129 C    1.192   157 H    0.969
   128   7 N    3.363 --   129 C    1.250   125 C    1.204   117 Fe   0.646
   129   6 C    3.910 --   128 N    1.250   130 C    1.246   127 C    1.192
   130   6 C    3.900 --   131 C    1.246   129 C    1.246   115 C    1.204
   131   6 C    3.910 --   147 N    1.250   130 C    1.246   132 C    1.192
   132   6 C    3.960 --   133 C    1.633   131 C    1.192   158 H    0.969
   133   6 C    3.958 --   132 C    1.633   134 C    1.184   159 H    0.973
   134   6 C    3.916 --   135 C    1.324   147 N    1.204   133 C    1.184
   135   6 C    3.908 --   134 C    1.324   142 C    1.323   136 C    1.021
   136   6 C    3.988 --   137 C    1.397   141 C    1.397   135 C    1.021
                           139 C    0.109
   137   6 C    3.988 --   138 C    1.446   136 C    1.397   160 H    0.973
                           140 C    0.110
   138   6 C    3.995 --   137 C    1.446   139 C    1.438   161 H    0.973
                           141 C    0.110
   139   6 C    3.991 --   138 C    1.438   140 C    1.438   162 H    0.974
                           136 C    0.109
   140   6 C    3.995 --   141 C    1.446   139 C    1.438   163 H    0.973
                           137 C    0.110
   141   6 C    3.988 --   140 C    1.446   136 C    1.397   164 H    0.973
                           138 C    0.110
   142   6 C    3.916 --   135 C    1.323   146 N    1.204   143 C    1.184
   143   6 C    3.958 --   144 C    1.632   142 C    1.184   165 H    0.973
   144   6 C    3.960 --   143 C    1.632   145 C    1.192   166 H    0.969
   145   6 C    3.910 --   146 N    1.250   118 C    1.246   144 C    1.192
   146   7 N    3.363 --   145 C    1.250   142 C    1.204   117 Fe   0.646
   147   7 N    3.364 --   131 C    1.250   134 C    1.204   117 Fe   0.647
   148   6 C    3.988 --   153 C    1.397   149 C    1.397   124 C    1.021
                           151 C    0.109
   149   6 C    3.988 --   150 C    1.446   148 C    1.397   167 H    0.973
                           152 C    0.110
   150   6 C    3.995 --   149 C    1.446   151 C    1.438   168 H    0.973
                           153 C    0.110
   151   6 C    3.991 --   152 C    1.438   150 C    1.438   169 H    0.974
                           148 C    0.109
   152   6 C    3.995 --   153 C    1.446   151 C    1.438   170 H    0.973
                           149 C    0.110
   153   6 C    3.988 --   152 C    1.446   148 C    1.397   171 H    0.973
                           150 C    0.110
   154   1 H    1.005 --   120 C    0.969
   155   1 H    1.005 --   121 C    0.973
   156   1 H    1.005 --   126 C    0.973
   157   1 H    1.005 --   127 C    0.969
   158   1 H    1.005 --   132 C    0.969
   159   1 H    1.004 --   133 C    0.973
   160   1 H    1.004 --   137 C    0.973
   161   1 H    1.002 --   138 C    0.973
   162   1 H    1.003 --   139 C    0.974
   163   1 H    1.002 --   140 C    0.973
   164   1 H    1.004 --   141 C    0.973
   165   1 H    1.005 --   143 C    0.973
   166   1 H    1.005 --   144 C    0.969
   167   1 H    1.004 --   149 C    0.973
   168   1 H    1.002 --   150 C    0.973
   169   1 H    1.003 --   151 C    0.974
   170   1 H    1.002 --   152 C    0.973
   171   1 H    1.004 --   153 C    0.973
 ---------------------------------------------------------------------------

           -------------------------------------------------
          | TOTAL ENERGY             -288.784645327717 Eh   |
          | GRADIENT NORM               0.000363474964 Eh/α |
          | HOMO-LUMO GAP               0.048714936662 eV   |
           -------------------------------------------------

 * finished run on 2022/07/29 at 19:18:31.679
