   * xtb version 6.5.1 (b24c23e) compiled by 'conda@728c89f4b128' on 2022-07-12
          program call               : xtb Ni_Ph2Me_C2_2.xyz --gfn 1 --opt -T 48

   ID    Z sym.   atoms
    1   28 Ni     1, 69
    2    6 C      2-6, 8-11, 13-31, 34-41, 70-74, 76-79, 81-99, 102-109, 137,
                  138
    3    7 N      7, 12, 32, 33, 75, 80, 100, 101
    4    1 H      42-68, 110-136
########################################################################
[WARNING] Please study the warnings concerning your input carefully
-1- prog_main_parseArguments: Unknown option '-T' provided
########################################################################

          :  Hamiltonian                  GFN1-xTB          :
 * total energy  :  -219.0537613 Eh     change       -0.3284413E-09 Eh
 * total energy  :  -219.2852539 Eh     change       -0.2314925E+00 Eh
 * total energy  :  -219.3586402 Eh     change       -0.7338636E-01 Eh
 * total energy  :  -219.3850758 Eh     change       -0.2643556E-01 Eh
 * total energy  :  -219.3948806 Eh     change       -0.9804830E-02 Eh
 * total energy  :  -219.4008598 Eh     change       -0.5979230E-02 Eh
 * total energy  :  -219.4040665 Eh     change       -0.3206665E-02 Eh
 * total energy  :  -219.4059926 Eh     change       -0.1926139E-02 Eh
 * total energy  :  -219.4071566 Eh     change       -0.1163968E-02 Eh
 * total energy  :  -219.4079600 Eh     change       -0.8034089E-03 Eh
 * total energy  :  -219.4121406 Eh     change       -0.1815832E-04 Eh
 * total energy  :  -219.4121619 Eh     change       -0.2129520E-04 Eh
 * total energy  :  -219.4121895 Eh     change       -0.2767398E-04 Eh
 * total energy  :  -219.4122201 Eh     change       -0.3053507E-04 Eh
 * total energy  :  -219.4122449 Eh     change       -0.2478807E-04 Eh
 * total energy  :  -219.4122626 Eh     change       -0.1775298E-04 Eh
 * total energy  :  -219.4122681 Eh     change       -0.5437078E-05 Eh
 * total energy  :  -219.4122790 Eh     change       -0.1092584E-04 Eh
 * total energy  :  -219.4122822 Eh     change       -0.3262564E-05 Eh
   *** GEOMETRY OPTIMIZATION CONVERGED AFTER 70 ITERATIONS ***

 final structure:
================
138
 xtb: 6.5.1 (b24c23e)
Ni          16.77684598651763        0.15893440203603       -0.18753028733898
C           13.43279612903995        0.36015758951451       -0.71985804103486
C           14.08420508527062        1.48622919468729       -0.26101235537038
C           13.41296190651603        2.71274878888088        0.04455729950682
C           14.34093885485632        3.53993220439409        0.57979995782349
C           15.58688560986382        2.83080856694450        0.56737627846612
N           15.41699363555716        1.56849148996431        0.05474235922411
C           16.78693882975315        3.36449322360175        1.01709459180427
C           17.99377962767877        2.68491282038559        0.92041198787711
C           19.25796184094717        3.27370234945468        1.24393705966766
C           20.20896519600606        2.37328662753886        0.89842197412326
N           18.17007218356317        1.42226265136370        0.40204045102290
C           19.52493643694578        1.22985944574011        0.38407808953870
C           20.18200468899171        0.08482628491252       -0.06995365406343
C           19.50109981341663       -1.06887340151108       -0.46279371322535
C           20.16265743721829       -2.28912588372250       -0.79960061416208
C           19.19423938539964       -3.21407597436806       -1.00297509057672
C           17.94105227688159       -2.55060023984994       -0.80791026561111
C           16.71123241561027       -3.17105915035090       -0.98506774413509
C           16.69486660563719       -4.62637805092374       -1.27343455442303
C           16.23335026862048       -5.10112177537187       -2.49873360113508
C           16.22839155013965       -6.46641669121289       -2.77054407103882
C           15.71508484581654       -6.96709125441431       -4.09357770314217
C           16.68626734206079       -7.35512618366302       -1.80442860843667
C           17.15195312830230       -6.89512907093734       -0.57475994678324
C           17.66084547342490       -7.87143535034927        0.45114043094557
C           17.15667582838624       -5.52991631149866       -0.31619723470562
C           15.51059765761812       -2.47519008786357       -0.95306818388056
C           14.23320847988253       -3.06764099831432       -1.22292475472767
C           13.32413014474289       -2.06487888146372       -1.20485598667887
C           14.03966640392264       -0.86791291890763       -0.88365091576538
N           15.37643166448633       -1.12868903678028       -0.71949373145647
N           18.14180914103942       -1.22787516107623       -0.48689377544730
C           16.79553109643780        4.74290517838823        1.56758710340806
C           16.47925953185250        5.82660784316263        0.75024799900748
C           16.49016486616060        7.12110670521178        1.25875095322895
C           16.17055535838912        8.28859470717362        0.36468997578672
C           16.82131311186221        7.32570291860856        2.59475422429211
C           17.14249167070781        6.25366576308192        3.42208541782317
C           17.48029898916968        6.48500430170563        4.87017381952211
C           17.12897630453912        4.96345840532783        2.90255818280102
H           12.36788551162503        0.43053070061212       -0.90882334791014
H           12.36112257320530        2.88985818917299       -0.11459877891054
H           14.20582042018785        4.54146735436854        0.95462271045597
H           19.39043269733189        4.25952190854866        1.65880239572153
H           21.28023713459547        2.46167755253786        0.97956936333675
H           21.23216359191968       -2.41241307394837       -0.85388905920750
H           19.30677165126308       -4.25013547620633       -1.27764297148604
H           15.89417362227078       -4.39770247586452       -3.25130038133897
H           16.04597100089475       -7.98873359999242       -4.27974814082907
H           14.62290025409510       -6.95401140708170       -4.09773364694413
H           16.06234516733174       -6.32979194468431       -4.90761363653520
H           16.68395758481686       -8.42065302958537       -2.01017595831982
H           17.75747999122531       -7.39719357136468        1.42761024262438
H           16.98595135448259       -8.72386939505034        0.53855779408885
H           18.64186272922019       -8.24770623885240        0.15294302717331
H           17.50905219023351       -5.15785799597374        0.63957780122988
H           14.06689838047751       -4.11677071548067       -1.40588501015251
H           12.25969450045691       -2.11456420228928       -1.37111379894197
H           16.23878108849793        5.65558116289106       -0.29330983868892
H           15.72490164347489        9.10412372405879        0.93462428392521
H           15.48230823056772        7.99348380793173       -0.42763499570936
H           17.08580825036574        8.66034646261665       -0.10166360867501
H           16.83104463833629        8.33390669777948        2.99611658580546
H           16.56881581377702        6.46378066175646        5.47200198929406
H           17.95455501788967        7.45700593875169        5.00762894659643
H           18.15008590163347        5.70909583863916        5.24139893429159
H           17.36739695134841        4.11842704500281        3.53909590144089
Ni          27.62313820217109        0.13808902836149       -0.20624916354253
C           30.96754460475567        0.59104274383190       -0.54627176026454
C           30.31618752709970       -0.16333361071140       -1.49998056450809
C           30.98743212545974       -0.79837726018700       -2.59287942390892
C           30.05942855873170       -1.54272215298861       -3.23834359844028
C           28.81347551721857       -1.33326648204958       -2.56075629797684
N           28.98335030387754       -0.48926774804740       -1.49121678550832
C           27.61336095544890       -1.91355329005415       -2.94828187431436
C           26.40651873353720       -1.63139373130389       -2.32253419823021
C           25.14232478672435       -2.10582553122657       -2.79817662822637
C           24.19131203665779       -1.52331431595714       -2.02955177439068
N           26.23020530295398       -0.78192869663601       -1.25415894322512
C           24.87533845234268       -0.71119760514165       -1.07433597365883
C           24.21825863657388        0.04353824524289       -0.10088216302237
C           24.89916059816978        0.74178392367989        0.89801215795252
C           24.23763273497961        1.40479674552765        1.97638527212802
C           25.20607827288753        1.85758499773724        2.80814807840985
C           26.45925273642523        1.48567386071747        2.22508320960994
C           27.68908214191188        1.82873284679917        2.77156789256075
C           27.70547217799444        2.51085822387293        4.08908233140882
C           28.16674146853602        3.81997912077720        4.20391685458843
C           28.17172771117783        4.46110818766769        5.43958409940457
C           28.68480117119651        5.87131047494014        5.55214196818641
C           27.71410106342834        3.78048691597453        6.56215623644716
C           27.24864847473019        2.47128702771774        6.46269797203455
C           26.74000574346588        1.75763696322813        7.68605515144451
C           27.24391954467207        1.84289649912639        5.22342858891961
C           28.88969865640389        1.60438677974003        2.11203424687003
C           30.16705491647764        2.02874415687393        2.60582579854266
C           31.07613161907869        1.73225127070678        1.64772735776955
C           30.36063994392813        1.09030514901611        0.58760390252069
N           29.02385527848296        1.00530843279395        0.88371776136535
N           26.25845214980545        0.80941039545246        1.04384389250921
C           27.60472533400444       -2.82593443679452       -4.11902508752551
C           27.92111676033305       -2.34256148753684       -5.38738710154291
C           27.91021831942283       -3.19128558392818       -6.48919408893041
C           28.23001261259730       -2.65755935840656       -7.85937732882537
C           27.57891870520254       -4.53140618517601       -6.31386256250168
C           27.25759801910919       -5.02761301528996       -5.05393158722494
C           26.91960294285177       -6.48282566066950       -4.87307623165747
C           27.27114051736124       -4.16950351696701       -3.95931223869623
H           32.03244470018002        0.75299199142065       -0.66648637517288
H           32.03927531543448       -0.69486311929555       -2.80729452398747
H           30.19451460080191       -2.18156925147586       -4.09592680511555
H           25.00986304567605       -2.77857261297685       -3.62966067691284
H           23.12003434877584       -1.62571524214123       -2.09200045592543
H           23.16812776887962        1.49121135388612        2.07973324777044
H           25.09356777078312        2.40973909518378        3.72683865802889
H           28.50570336708546        4.34705695510869        3.31876693422855
H           28.35391165545172        6.33445743229769        6.48160772763421
H           29.77698498800424        5.87184553129689        5.53834182217788
H           28.33737702305434        6.47571551221700        4.71346209369878
H           27.71642472432902        4.27471534819609        7.52829210233082
H           26.64351595256647        0.68773206197590        7.50239890431774
H           27.41496906392890        1.91108027493956        8.52905452684656
H           25.75895920945390        2.14864241919929        7.96454839516870
H           26.89173268108703        0.82125976393855        5.13218881664673
H           30.33335597807902        2.49671261945960        3.56246396303497
H           32.14053841731418        1.90594149624299        1.64908547422046
H           28.16169931238255       -1.29266173102504       -5.51357454021393
H           28.67568409656753       -3.43200533977533       -8.48398210904287
H           28.91831488351453       -1.81445349326417       -7.79639867469208
H           27.31484308675343       -2.31304924136147       -8.34635856151612
H           27.56917453650856       -5.19753080422516       -7.17051037706573
H           27.83099970919609       -7.05507718379702       -4.68510212049041
H           26.44535970996419       -6.88534743395045       -5.76843597890893
H           26.24973561973843       -6.62331615984749       -4.02454972303271
H           27.03263601372293       -4.54566147524977       -2.97051385044207
C           21.59244818273741        0.07231231811403       -0.08087610954031
C           22.80781436943257        0.05750774805316       -0.09194031469460

          :  Hamiltonian                  GFN1-xTB          :
         :: total energy            -219.412282246530 Eh    ::
         :: gradient norm              0.000821557302 Eh/a0 ::
         :: HOMO-LUMO gap              1.236835425706 eV    ::
         :: SCC energy              -222.847592746782 Eh    ::
         :: repulsion energy           3.555387571725 Eh    ::

    * Orbital Energies and Occupations

         #    Occupation            Energy/Eh            Energy/eV
      -------------------------------------------------------------
         1        2.0000           -0.7766634             -21.1341
       ...           ...                  ...                  ...
       193        2.0000           -0.4246112             -11.5543
       194        2.0000           -0.3949626             -10.7475
       195        2.0000           -0.3941413             -10.7251
       196        2.0000           -0.3939298             -10.7194
       197        2.0000           -0.3939000             -10.7186
       198        2.0000           -0.3928911             -10.6911
       199        2.0000           -0.3928888             -10.6910
       200        2.0000           -0.3918907             -10.6639
       201        2.0000           -0.3918878             -10.6638
       202        2.0000           -0.3918334             -10.6623
       203        2.0000           -0.3918327             -10.6623
       204        2.0000           -0.3915518             -10.6547
       205        2.0000           -0.3801378             -10.3441 (HOMO)
       206                         -0.3346850              -9.1072 (LUMO)
       207                         -0.3250639              -8.8454
       208                         -0.3250611              -8.8454
       209                         -0.3232523              -8.7961
       210                         -0.3232384              -8.7958
       211                         -0.3202783              -8.7152
       212                         -0.2925122              -7.9597
       213                         -0.2851023              -7.7580
       214                         -0.2577410              -7.0135
       215                         -0.2577224              -7.0130
       216                         -0.2571957              -6.9987
       ...                                ...                  ...
       454                          1.3485024              36.6946
      -------------------------------------------------------------
                  HL-Gap            0.0454529 Eh            1.2368 eV

Wiberg/Mayer (AO) data.
largest (>0.10) Wiberg bond orders for each atom

     #   Z sym  total        # sym  WBO       # sym  WBO       # sym  WBO
 ---------------------------------------------------------------------------
     1  28 Ni   3.014 --     7 N    0.664    33 N    0.664    32 N    0.663
                            12 N    0.663
     2   6 C    3.934 --     3 C    1.364    31 C    1.362    42 H    0.970
     3   6 C    3.924 --     2 C    1.364     7 N    1.215     4 C    1.175
     4   6 C    3.960 --     5 C    1.649     3 C    1.175    43 H    0.975
     5   6 C    3.963 --     4 C    1.649     6 C    1.177    44 H    0.972
     6   6 C    3.920 --     8 C    1.325     7 N    1.220     5 C    1.177
     7   7 N    3.403 --     6 C    1.220     3 C    1.215     1 Ni   0.664
     8   6 C    3.939 --     9 C    1.328     6 C    1.325    34 C    1.021
     9   6 C    3.915 --     8 C    1.328    12 N    1.207    10 C    1.184
    10   6 C    3.960 --    11 C    1.636     9 C    1.184    45 H    0.973
    11   6 C    3.962 --    10 C    1.636    13 C    1.191    46 H    0.971
    12   7 N    3.408 --    13 C    1.236     9 C    1.207     1 Ni   0.663
    13   6 C    3.911 --    14 C    1.271    12 N    1.236    11 C    1.191
    14   6 C    3.944 --    15 C    1.272    13 C    1.271   137 C    1.163
    15   6 C    3.911 --    14 C    1.272    33 N    1.234    16 C    1.191
    16   6 C    3.962 --    17 C    1.635    15 C    1.191    47 H    0.971
    17   6 C    3.960 --    16 C    1.635    18 C    1.184    48 H    0.973
    18   6 C    3.915 --    19 C    1.326    33 N    1.209    17 C    1.184
    19   6 C    3.939 --    28 C    1.326    18 C    1.326    20 C    1.023
    20   6 C    3.988 --    21 C    1.404    27 C    1.391    19 C    1.023
                            24 C    0.103
    21   6 C    3.987 --    22 C    1.410    20 C    1.404    49 H    0.972
                            25 C    0.104
    22   6 C    3.988 --    24 C    1.423    21 C    1.410    23 C    1.020
                            27 C    0.103
    23   6 C    3.996 --    22 C    1.020    50 H    0.985    52 H    0.980
                            51 H    0.972
    24   6 C    3.989 --    22 C    1.423    25 C    1.408    53 H    0.972
                            20 C    0.103
    25   6 C    3.988 --    27 C    1.423    24 C    1.408    26 C    1.020
                            21 C    0.104
    26   6 C    3.996 --    25 C    1.020    54 H    0.985    55 H    0.979
                            56 H    0.972
    27   6 C    3.987 --    25 C    1.423    20 C    1.391    57 H    0.972
                            22 C    0.103
    28   6 C    3.920 --    19 C    1.326    32 N    1.219    29 C    1.177
    29   6 C    3.963 --    30 C    1.648    28 C    1.177    58 H    0.972
    30   6 C    3.960 --    29 C    1.648    31 C    1.175    59 H    0.975
    31   6 C    3.924 --     2 C    1.362    32 N    1.216    30 C    1.175
    32   7 N    3.402 --    28 C    1.219    31 C    1.216     1 Ni   0.663
    33   7 N    3.408 --    15 C    1.234    18 C    1.209     1 Ni   0.664
    34   6 C    3.988 --    41 C    1.399    35 C    1.398     8 C    1.021
                            38 C    0.103
    35   6 C    3.987 --    36 C    1.416    34 C    1.398    60 H    0.972
                            39 C    0.104
    36   6 C    3.988 --    35 C    1.416    38 C    1.416    37 C    1.020
                            41 C    0.104
    37   6 C    3.995 --    36 C    1.020    62 H    0.983    61 H    0.983
                            63 H    0.971
    38   6 C    3.989 --    36 C    1.416    39 C    1.416    64 H    0.972
                            34 C    0.103
    39   6 C    3.988 --    41 C    1.417    38 C    1.416    40 C    1.020
                            35 C    0.104
    40   6 C    3.996 --    39 C    1.020    67 H    0.983    66 H    0.983
                            65 H    0.971
    41   6 C    3.987 --    39 C    1.417    34 C    1.399    68 H    0.972
                            36 C    0.104
    42   1 H    1.001 --     2 C    0.970
    43   1 H    0.998 --     4 C    0.975
    44   1 H    1.005 --     5 C    0.972
    45   1 H    1.005 --    10 C    0.973
    46   1 H    1.004 --    11 C    0.971
    47   1 H    1.004 --    16 C    0.971
    48   1 H    1.005 --    17 C    0.973
    49   1 H    1.002 --    21 C    0.972
    50   1 H    1.004 --    23 C    0.985
    51   1 H    1.006 --    23 C    0.972
    52   1 H    1.005 --    23 C    0.980
    53   1 H    1.000 --    24 C    0.972
    54   1 H    1.004 --    26 C    0.985
    55   1 H    1.005 --    26 C    0.979
    56   1 H    1.006 --    26 C    0.972
    57   1 H    1.003 --    27 C    0.972
    58   1 H    1.005 --    29 C    0.972
    59   1 H    0.998 --    30 C    0.975
    60   1 H    1.003 --    35 C    0.972
    61   1 H    1.004 --    37 C    0.983
    62   1 H    1.004 --    37 C    0.983
    63   1 H    1.006 --    37 C    0.971
    64   1 H    1.000 --    38 C    0.972
    65   1 H    1.006 --    40 C    0.971
    66   1 H    1.004 --    40 C    0.983
    67   1 H    1.004 --    40 C    0.983
    68   1 H    1.002 --    41 C    0.972
    69  28 Ni   3.014 --    75 N    0.664   101 N    0.664   100 N    0.663
                            80 N    0.663
    70   6 C    3.934 --    71 C    1.364    99 C    1.362   110 H    0.970
    71   6 C    3.924 --    70 C    1.364    75 N    1.215    72 C    1.175
    72   6 C    3.960 --    73 C    1.649    71 C    1.175   111 H    0.975
    73   6 C    3.963 --    72 C    1.649    74 C    1.177   112 H    0.972
    74   6 C    3.920 --    76 C    1.325    75 N    1.220    73 C    1.177
    75   7 N    3.403 --    74 C    1.220    71 C    1.215    69 Ni   0.664
    76   6 C    3.939 --    77 C    1.328    74 C    1.325   102 C    1.021
    77   6 C    3.915 --    76 C    1.328    80 N    1.207    78 C    1.184
    78   6 C    3.960 --    79 C    1.636    77 C    1.184   113 H    0.973
    79   6 C    3.962 --    78 C    1.636    81 C    1.191   114 H    0.971
    80   7 N    3.408 --    81 C    1.236    77 C    1.207    69 Ni   0.663
    81   6 C    3.911 --    82 C    1.271    80 N    1.236    79 C    1.191
    82   6 C    3.944 --    83 C    1.272    81 C    1.271   138 C    1.163
    83   6 C    3.911 --    82 C    1.272   101 N    1.234    84 C    1.191
    84   6 C    3.962 --    85 C    1.635    83 C    1.191   115 H    0.971
    85   6 C    3.960 --    84 C    1.635    86 C    1.184   116 H    0.973
    86   6 C    3.915 --    87 C    1.326   101 N    1.209    85 C    1.184
    87   6 C    3.939 --    96 C    1.326    86 C    1.326    88 C    1.023
    88   6 C    3.988 --    89 C    1.404    95 C    1.391    87 C    1.023
                            92 C    0.103
    89   6 C    3.987 --    90 C    1.410    88 C    1.404   117 H    0.972
                            93 C    0.104
    90   6 C    3.988 --    92 C    1.423    89 C    1.410    91 C    1.020
                            95 C    0.103
    91   6 C    3.996 --    90 C    1.020   118 H    0.985   120 H    0.980
                           119 H    0.972
    92   6 C    3.989 --    90 C    1.423    93 C    1.408   121 H    0.972
                            88 C    0.103
    93   6 C    3.988 --    95 C    1.423    92 C    1.408    94 C    1.020
                            89 C    0.104
    94   6 C    3.996 --    93 C    1.020   122 H    0.985   123 H    0.979
                           124 H    0.972
    95   6 C    3.987 --    93 C    1.423    88 C    1.391   125 H    0.972
                            90 C    0.103
    96   6 C    3.920 --    87 C    1.326   100 N    1.219    97 C    1.177
    97   6 C    3.963 --    98 C    1.648    96 C    1.177   126 H    0.972
    98   6 C    3.960 --    97 C    1.648    99 C    1.175   127 H    0.975
    99   6 C    3.924 --    70 C    1.362   100 N    1.216    98 C    1.175
   100   7 N    3.403 --    96 C    1.219    99 C    1.216    69 Ni   0.663
   101   7 N    3.408 --    83 C    1.234    86 C    1.209    69 Ni   0.664
   102   6 C    3.988 --   109 C    1.399   103 C    1.398    76 C    1.021
                           106 C    0.103
   103   6 C    3.987 --   104 C    1.416   102 C    1.398   128 H    0.972
                           107 C    0.104
   104   6 C    3.988 --   103 C    1.416   106 C    1.416   105 C    1.020
                           109 C    0.104
   105   6 C    3.995 --   104 C    1.020   130 H    0.983   129 H    0.983
                           131 H    0.971
   106   6 C    3.989 --   104 C    1.416   107 C    1.416   132 H    0.972
                           102 C    0.103
   107   6 C    3.988 --   109 C    1.416   106 C    1.416   108 C    1.020
                           103 C    0.104
   108   6 C    3.996 --   107 C    1.020   135 H    0.983   134 H    0.983
                           133 H    0.971
   109   6 C    3.987 --   107 C    1.416   102 C    1.399   136 H    0.972
                           104 C    0.104
   110   1 H    1.001 --    70 C    0.970
   111   1 H    0.998 --    72 C    0.975
   112   1 H    1.005 --    73 C    0.972
   113   1 H    1.005 --    78 C    0.973
   114   1 H    1.004 --    79 C    0.971
   115   1 H    1.004 --    84 C    0.971
   116   1 H    1.005 --    85 C    0.973
   117   1 H    1.002 --    89 C    0.972
   118   1 H    1.004 --    91 C    0.985
   119   1 H    1.006 --    91 C    0.972
   120   1 H    1.005 --    91 C    0.980
   121   1 H    1.000 --    92 C    0.972
   122   1 H    1.004 --    94 C    0.985
   123   1 H    1.005 --    94 C    0.979
   124   1 H    1.006 --    94 C    0.972
   125   1 H    1.003 --    95 C    0.972
   126   1 H    1.005 --    97 C    0.972
   127   1 H    0.998 --    98 C    0.975
   128   1 H    1.003 --   103 C    0.972
   129   1 H    1.004 --   105 C    0.983
   130   1 H    1.004 --   105 C    0.983
   131   1 H    1.006 --   105 C    0.971
   132   1 H    1.000 --   106 C    0.972
   133   1 H    1.006 --   108 C    0.971
   134   1 H    1.004 --   108 C    0.983
   135   1 H    1.004 --   108 C    0.983
   136   1 H    1.002 --   109 C    0.972
   137   6 C    3.936 --   138 C    2.592    14 C    1.163
   138   6 C    3.936 --   137 C    2.592    82 C    1.163
 ---------------------------------------------------------------------------

           -------------------------------------------------
          | TOTAL ENERGY             -219.412282246530 Eh   |
          | GRADIENT NORM               0.000821557302 Eh/α |
          | HOMO-LUMO GAP               1.236835425706 eV   |
           -------------------------------------------------

 * finished run on 2022/07/30 at 04:41:02.540
