   * xtb version 6.5.1 (b24c23e) compiled by 'conda@728c89f4b128' on 2022-07-12
          program call               : xtb Ni_PhCN_C6_2.xyz --gfn 1 --opt -T 48

   ID    Z sym.   atoms
    1   28 Ni     1, 59
    2    6 C      2-6, 8-13, 15-19, 21-26, 28-33, 35-40, 60-64, 66-71, 73-77,
                  79-84, 86-91, 93-98, 117-122
    3    7 N      7, 14, 20, 27, 34, 41, 65, 72, 78, 85, 92, 99
    4    1 H      42-58, 100-116
########################################################################
[WARNING] Please study the warnings concerning your input carefully
-1- prog_main_parseArguments: Unknown option '-T' provided
########################################################################

          :  Hamiltonian                  GFN1-xTB          :
 * total energy  :  -219.5698864 Eh     change       -0.5384209E-09 Eh
 * total energy  :  -220.7536719 Eh     change       -0.1183786E+01 Eh
 * total energy  :  -220.8950549 Eh     change       -0.1413830E+00 Eh
 * total energy  :  -220.9584663 Eh     change       -0.6341136E-01 Eh
 * total energy  :  -220.9915408 Eh     change       -0.3307448E-01 Eh
 * total energy  :  -221.0072563 Eh     change       -0.1571554E-01 Eh
 * total energy  :  -221.0181285 Eh     change       -0.1087216E-01 Eh
 * total energy  :  -221.0257890 Eh     change       -0.7660515E-02 Eh
 * total energy  :  -221.0302466 Eh     change       -0.4457592E-02 Eh
 * total energy  :  -221.0343838 Eh     change       -0.4137239E-02 Eh
 * total energy  :  -221.0475165 Eh     change       -0.2557397E-05 Eh
 * total energy  :  -221.0475197 Eh     change       -0.3155401E-05 Eh
 * total energy  :  -221.0475281 Eh     change       -0.8426711E-05 Eh
 * total energy  :  -221.0475319 Eh     change       -0.3807912E-05 Eh
 * total energy  :  -221.0475370 Eh     change       -0.5103973E-05 Eh
 * total energy  :  -221.0475426 Eh     change       -0.5598922E-05 Eh
 * total energy  :  -221.0475468 Eh     change       -0.4149069E-05 Eh
 * total energy  :  -221.0475532 Eh     change       -0.6392863E-05 Eh
 * total energy  :  -221.0475563 Eh     change       -0.3164900E-05 Eh
   *** GEOMETRY OPTIMIZATION CONVERGED AFTER 52 ITERATIONS ***

 final structure:
================
122
 xtb: 6.5.1 (b24c23e)
Ni          15.61683603369308        0.02262194809138        0.00692560200982
C           12.22831053505103        0.04002990674634        0.14824006954833
C           12.88541392115305        1.25192235736468        0.19505133497717
C           12.21635633456904        2.51500968113046        0.26500285771473
C           13.17858994855722        3.45678713068226        0.40375140635875
C           14.43472197398640        2.76582373644570        0.43197568331551
N           14.24652915338697        1.41744735666450        0.26074431370511
C           15.65724691924007        3.38460696210441        0.66096131139480
C           15.67831213797319        4.83826369088242        0.94526417238809
C           15.01482269333752        5.35175316329664        2.06193711376158
C           15.03961498249488        6.70785781056754        2.33406787352043
C           15.72749653188465        7.58044338526359        1.48561738788854
C           15.75511171587147        8.97662972419106        1.76222220359319
N           15.77747171658270       10.10506116416530        1.98622506644662
C           16.38958919127357        7.07188793776181        0.36419538461763
C           16.36546203832146        5.71403731069938        0.10147977700836
C           16.86251650162163        2.69450603987167        0.63845310846623
C           18.12940325699242        3.29257314753392        0.93328894397988
C           19.07050991508453        2.34305410982297        0.71448384126144
N           17.02416364576221        1.37373291194210        0.28710698979184
C           18.37652287157497        1.16682652028912        0.29671380660353
C           19.02629746674637        0.00169955923650       -0.11942935630228
C           18.33400965446784       -1.15366276749610       -0.49155958079098
C           18.98036990905422       -2.33602877640420       -0.96442733288030
C           18.01352986078073       -3.27249452156883       -1.11837879632264
C           16.77966175837881       -2.66103403744883       -0.72662510147737
N           16.98337583864762       -1.34386681713053       -0.38355977756244
C           15.56857079827591       -3.33760607282823       -0.65524927177665
C           15.54805193932810       -4.79058624972149       -0.94270754497443
C           14.78407834260178       -5.29307615232149       -1.99858811806636
C           14.76505200695934       -6.64908011506902       -2.27149788048165
C           15.50981057611077       -7.53276743131435       -1.48481179561492
C           15.49152442747578       -8.92898335399440       -1.76203294282276
N           15.47595602855003      -10.05756021149744       -1.98631361412215
C           16.27317383509370       -7.03525706920826       -0.42446420030422
C           16.29187381304284       -5.67747201096288       -0.16083214601506
C           14.37575603202249       -2.70666316769204       -0.32431636908942
C           13.11943908043622       -3.38507746155982       -0.19145448108503
C           12.18203878160309       -2.43421205855837        0.03031927030201
C           12.86735291556299       -1.17804364484507        0.04563209706945
N           14.21638983017373       -1.35703398984510       -0.13497158709474
H           11.14558961691100        0.04511782045205        0.19404080035261
H           11.14702693890584        2.64373311690947        0.21266338699494
H           13.06176991390094        4.52574742122415        0.47793124839485
H           14.49079471257645        4.67657080079186        2.72895730778426
H           14.52836882046019        7.09830251651798        3.20620228476924
H           16.92067785895100        7.74594010608682       -0.29762278078627
H           16.87091783959873        5.32422635300171       -0.77483825766770
H           18.27038015716905        4.30663105446583        1.26978921031618
H           20.14061811075528        2.41769395532688        0.82083844676720
H           20.03875563801273       -2.42267966835171       -1.14995349414931
H           18.11605477184110       -4.28619415580851       -1.46959313383415
H           14.21474002720552       -4.60954547287971       -2.61829024686330
H           14.17460651935911       -7.03095684789437       -3.09610181293370
H           16.84848916377624       -7.71789387265169        0.18988736052635
H           16.87565930665157       -5.29639903609575        0.66943668273786
H           12.98549319728259       -4.45257346276855       -0.25705263765520
H           11.11973646769199       -2.55255186875507        0.17269247617826
Ni          31.61067263140277       -0.02390690776179        0.00477503781745
C           34.99921361189230       -0.03438341015538        0.14335783572476
C           34.34195949639609       -1.24169375909014        0.25763078400529
C           35.01071854452663       -2.49925208253132        0.39623846346140
C           34.04840191541907       -3.43153363675593        0.58838105696826
C           32.79255271102962       -2.73954332016118        0.58040962205765
N           32.98090221038389       -1.40279620730489        0.33444707704896
C           31.57016712794491       -3.34389019695519        0.84574819752130
C           31.54891482596683       -4.77973280932949        1.20943933099389
C           32.21454948053942       -5.23207423746413        2.35103135509567
C           32.18979502366445       -6.57138245167743        2.69646445838042
C           31.49980260050116       -7.48848911292996        1.89807822459120
C           31.47199496572172       -8.86759227906338        2.25018649174041
N           31.45055520798852       -9.98203192837639        2.53702445234596
C           30.83573516876846       -7.04134937291076        0.75199007141085
C           30.85973768658511       -5.69975699737908        0.41592526437016
C           30.36520335794159       -2.65533847778400        0.78681157973494
C           29.09850216894320       -3.23524112314499        1.11666899798126
C           28.15734543859610       -2.29959782313059        0.84468063156783
N           30.20348616016854       -1.35665123272265        0.36104959014485
C           28.85110796924819       -1.14936151340455        0.35958883024885
C           28.20123096110704       -0.00974085746407       -0.12197073555390
C           28.89344312185715        1.12321382468377       -0.55771086606505
C           28.24705243646704        2.27803550061765       -1.09429021787778
C           29.21368665465157        3.20527203726096       -1.29760051533299
C           30.44747800392163        2.61625484009780       -0.87264649447154
N           30.24392756364152        1.31945390844302       -0.45927186870098
C           31.65851583484462        3.29581828312880       -0.83758712167440
C           31.67870560783773        4.73166277581717       -1.20092407705289
C           32.44401626103623        5.17881153812252       -2.28051888844269
C           32.46447540304398        6.51903438546180       -2.62240757724050
C           31.71957077357407        7.44247484896130       -1.88285570697684
C           31.74052363463747        8.82307951208605       -2.22950586206878
N           31.75600419341860        9.93960441002180       -2.50753269015849
C           30.95372822327183        7.00034464152801       -0.80002689856191
C           30.93374980651181        5.65784273753355       -0.46718989159246
C           32.85153625251467        2.68335107649084       -0.47416549826021
C           34.10810477147280        3.36765656677070       -0.37909246754477
C           35.04566554622923        2.42982705741718       -0.10802193705697
C           34.36019253193369        1.17644693992697       -0.02447470397984
N           33.01097364541936        1.34575474221178       -0.21292264764986
H           36.08199587094690       -0.03718838666096        0.18790308723521
H           36.07992361121373       -2.63115966294835        0.34956737577313
H           34.16506048878168       -4.49479868171068        0.72139016968143
H           32.74015799626022       -4.52185850842551        2.97930410461526
H           32.70283288089010       -6.91424702280390        3.58734336303406
H           30.30304848408768       -7.75005685229039        0.12878793394405
H           30.35237431614898       -5.35787273733599       -0.47909452047710
H           28.95781289464587       -4.22828630347643        1.51099515288623
H           27.08730310073212       -2.36770077279065        0.95599841276409
H           27.18881856788324        2.35415535100113       -1.28521349918429
H           29.11098902287827        4.19855753039485       -1.70292328045105
H           33.01336659032327        4.46394620543763       -2.86378585686102
H           33.05635180998973        6.85794880373957       -3.46458043292237
H           30.37774181081024        7.71380507173724       -0.22242807993285
H           30.34816737101237        5.32021437814677        0.38044418483414
H           34.24217907594096        4.43008233578810       -0.50178690231447
H           36.10815600127355        2.55539719192225        0.02654254271124
C           24.22760924207759       -0.00491181437916       -0.20116470198238
C           23.00004767745088       -0.00745700846269       -0.20029765314948
C           21.65440343811238       -0.00668189664567       -0.18459126495249
C           20.43150323130073       -0.00694772874144       -0.16028024160610
C           25.57324054328096       -0.00418911551424       -0.18698513071154
C           26.79600146836574       -0.00256766986193       -0.16185600974572

          :  Hamiltonian                  GFN1-xTB          :
         :: total energy            -221.047556322154 Eh    ::
         :: gradient norm              0.000962384337 Eh/a0 ::
         :: HOMO-LUMO gap              1.279934124081 eV    ::
         :: SCC energy              -224.794375102199 Eh    ::
         :: repulsion energy           3.857933512643 Eh    ::

    * Orbital Energies and Occupations

         #    Occupation            Energy/Eh            Energy/eV
      -------------------------------------------------------------
         1        2.0000           -0.7927404             -21.5716
       ...           ...                  ...                  ...
       193        2.0000           -0.4273094             -11.6277
       194        2.0000           -0.4100704             -11.1586
       195        2.0000           -0.4100651             -11.1584
       196        2.0000           -0.4097294             -11.1493
       197        2.0000           -0.4097256             -11.1492
       198        2.0000           -0.4088177             -11.1245
       199        2.0000           -0.4088129             -11.1244
       200        2.0000           -0.4077381             -11.0951
       201        2.0000           -0.4077335             -11.0950
       202        2.0000           -0.4076536             -11.0928
       203        2.0000           -0.4076470             -11.0926
       204        2.0000           -0.4044874             -11.0067
       205        2.0000           -0.3972067             -10.8085 (HOMO)
       206                         -0.3501700              -9.5286 (LUMO)
       207                         -0.3427630              -9.3271
       208                         -0.3427563              -9.3269
       209                         -0.3414516              -9.2914
       210                         -0.3395249              -9.2389
       211                         -0.3394877              -9.2379
       212                         -0.3158643              -8.5951
       213                         -0.3135425              -8.5319
       214                         -0.3047711              -8.2932
       215                         -0.3047697              -8.2932
       216                         -0.3020418              -8.2190
       ...                                ...                  ...
       430                          1.5691590              42.6990
      -------------------------------------------------------------
                  HL-Gap            0.0470367 Eh            1.2799 eV

Wiberg/Mayer (AO) data.
largest (>0.10) Wiberg bond orders for each atom

     #   Z sym  total        # sym  WBO       # sym  WBO       # sym  WBO
 ---------------------------------------------------------------------------
     1  28 Ni   3.015 --    41 N    0.664     7 N    0.664    20 N    0.661
                            27 N    0.661
     2   6 C    3.936 --    40 C    1.364     3 C    1.364    42 H    0.970
     3   6 C    3.922 --     2 C    1.364     7 N    1.212     4 C    1.175
     4   6 C    3.960 --     5 C    1.649     3 C    1.175    43 H    0.975
     5   6 C    3.963 --     4 C    1.649     6 C    1.176    44 H    0.973
     6   6 C    3.920 --     8 C    1.322     7 N    1.222     5 C    1.176
     7   7 N    3.402 --     6 C    1.222     3 C    1.212     1 Ni   0.664
     8   6 C    3.939 --    17 C    1.326     6 C    1.322     9 C    1.030
     9   6 C    3.963 --    10 C    1.386    16 C    1.385     8 C    1.030
    10   6 C    3.988 --    11 C    1.463     9 C    1.386    45 H    0.971
                            15 C    0.102
    11   6 C    3.993 --    10 C    1.463    12 C    1.364    46 H    0.972
                            16 C    0.102
    12   6 C    3.985 --    11 C    1.364    15 C    1.364    13 C    1.098
    13   6 C    3.958 --    14 N    2.820    12 C    1.098
    14   7 N    2.973 --    13 C    2.820
    15   6 C    3.993 --    16 C    1.464    12 C    1.364    47 H    0.972
                            10 C    0.102
    16   6 C    3.988 --    15 C    1.464     9 C    1.385    48 H    0.971
                            11 C    0.102
    17   6 C    3.915 --     8 C    1.326    20 N    1.207    18 C    1.183
    18   6 C    3.959 --    19 C    1.636    17 C    1.183    49 H    0.973
    19   6 C    3.961 --    18 C    1.636    21 C    1.191    50 H    0.973
    20   7 N    3.406 --    21 C    1.237    17 C    1.207     1 Ni   0.661
    21   6 C    3.903 --    22 C    1.264    20 N    1.237    19 C    1.191
    22   6 C    3.945 --    23 C    1.265    21 C    1.264   120 C    1.181
    23   6 C    3.903 --    22 C    1.265    27 N    1.237    24 C    1.191
    24   6 C    3.961 --    25 C    1.636    23 C    1.191    51 H    0.973
    25   6 C    3.959 --    24 C    1.636    26 C    1.183    52 H    0.973
    26   6 C    3.915 --    28 C    1.326    27 N    1.208    25 C    1.183
    27   7 N    3.406 --    23 C    1.237    26 C    1.208     1 Ni   0.661
    28   6 C    3.939 --    26 C    1.326    37 C    1.321    29 C    1.030
    29   6 C    3.963 --    30 C    1.385    36 C    1.385    28 C    1.030
    30   6 C    3.988 --    31 C    1.463    29 C    1.385    53 H    0.971
                            35 C    0.102
    31   6 C    3.993 --    30 C    1.463    32 C    1.364    54 H    0.972
                            36 C    0.102
    32   6 C    3.984 --    31 C    1.364    35 C    1.364    33 C    1.098
    33   6 C    3.958 --    34 N    2.820    32 C    1.098
    34   7 N    2.973 --    33 C    2.820
    35   6 C    3.993 --    36 C    1.464    32 C    1.364    55 H    0.972
                            30 C    0.102
    36   6 C    3.988 --    35 C    1.464    29 C    1.385    56 H    0.971
                            31 C    0.102
    37   6 C    3.920 --    28 C    1.321    41 N    1.222    38 C    1.176
    38   6 C    3.963 --    39 C    1.649    37 C    1.176    57 H    0.973
    39   6 C    3.960 --    38 C    1.649    40 C    1.175    58 H    0.975
    40   6 C    3.922 --     2 C    1.364    41 N    1.212    39 C    1.175
    41   7 N    3.402 --    37 C    1.222    40 C    1.212     1 Ni   0.664
    42   1 H    1.000 --     2 C    0.970
    43   1 H    0.997 --     4 C    0.975
    44   1 H    1.004 --     5 C    0.973
    45   1 H    1.003 --    10 C    0.971
    46   1 H    1.000 --    11 C    0.972
    47   1 H    1.000 --    15 C    0.972
    48   1 H    1.003 --    16 C    0.971
    49   1 H    1.004 --    18 C    0.973
    50   1 H    1.001 --    19 C    0.973
    51   1 H    1.001 --    24 C    0.973
    52   1 H    1.004 --    25 C    0.973
    53   1 H    1.003 --    30 C    0.971
    54   1 H    1.000 --    31 C    0.972
    55   1 H    1.000 --    35 C    0.972
    56   1 H    1.003 --    36 C    0.971
    57   1 H    1.004 --    38 C    0.973
    58   1 H    0.997 --    39 C    0.975
    59  28 Ni   3.015 --    99 N    0.664    65 N    0.664    78 N    0.661
                            85 N    0.661
    60   6 C    3.936 --    98 C    1.364    61 C    1.364   100 H    0.970
    61   6 C    3.922 --    60 C    1.364    65 N    1.212    62 C    1.175
    62   6 C    3.960 --    63 C    1.649    61 C    1.175   101 H    0.975
    63   6 C    3.963 --    62 C    1.649    64 C    1.176   102 H    0.973
    64   6 C    3.920 --    66 C    1.322    65 N    1.222    63 C    1.176
    65   7 N    3.402 --    64 C    1.222    61 C    1.212    59 Ni   0.664
    66   6 C    3.939 --    75 C    1.326    64 C    1.322    67 C    1.030
    67   6 C    3.963 --    68 C    1.386    74 C    1.385    66 C    1.030
    68   6 C    3.988 --    69 C    1.463    67 C    1.386   103 H    0.971
                            73 C    0.102
    69   6 C    3.993 --    68 C    1.463    70 C    1.364   104 H    0.972
                            74 C    0.102
    70   6 C    3.985 --    69 C    1.364    73 C    1.364    71 C    1.098
    71   6 C    3.958 --    72 N    2.820    70 C    1.098
    72   7 N    2.973 --    71 C    2.820
    73   6 C    3.993 --    74 C    1.464    70 C    1.364   105 H    0.972
                            68 C    0.102
    74   6 C    3.988 --    73 C    1.464    67 C    1.385   106 H    0.971
                            69 C    0.102
    75   6 C    3.915 --    66 C    1.326    78 N    1.207    76 C    1.183
    76   6 C    3.959 --    77 C    1.636    75 C    1.183   107 H    0.973
    77   6 C    3.961 --    76 C    1.636    79 C    1.191   108 H    0.973
    78   7 N    3.406 --    79 C    1.237    75 C    1.207    59 Ni   0.661
    79   6 C    3.903 --    80 C    1.265    78 N    1.237    77 C    1.191
    80   6 C    3.945 --    81 C    1.265    79 C    1.265   122 C    1.181
    81   6 C    3.903 --    80 C    1.265    85 N    1.237    82 C    1.191
    82   6 C    3.961 --    83 C    1.636    81 C    1.191   109 H    0.973
    83   6 C    3.959 --    82 C    1.636    84 C    1.183   110 H    0.973
    84   6 C    3.915 --    86 C    1.326    85 N    1.208    83 C    1.183
    85   7 N    3.406 --    81 C    1.237    84 C    1.208    59 Ni   0.661
    86   6 C    3.939 --    84 C    1.326    95 C    1.321    87 C    1.031
    87   6 C    3.963 --    94 C    1.385    88 C    1.385    86 C    1.031
    88   6 C    3.988 --    89 C    1.464    87 C    1.385   111 H    0.971
                            93 C    0.102
    89   6 C    3.993 --    88 C    1.464    90 C    1.364   112 H    0.972
                            94 C    0.102
    90   6 C    3.984 --    89 C    1.364    93 C    1.364    91 C    1.098
    91   6 C    3.958 --    92 N    2.820    90 C    1.098
    92   7 N    2.973 --    91 C    2.820
    93   6 C    3.993 --    94 C    1.464    90 C    1.364   113 H    0.972
                            88 C    0.102
    94   6 C    3.988 --    93 C    1.464    87 C    1.385   114 H    0.971
                            89 C    0.102
    95   6 C    3.920 --    86 C    1.321    99 N    1.222    96 C    1.176
    96   6 C    3.963 --    97 C    1.649    95 C    1.176   115 H    0.973
    97   6 C    3.960 --    96 C    1.649    98 C    1.175   116 H    0.975
    98   6 C    3.922 --    60 C    1.364    99 N    1.212    97 C    1.175
    99   7 N    3.402 --    95 C    1.222    98 C    1.212    59 Ni   0.664
   100   1 H    1.000 --    60 C    0.970
   101   1 H    0.997 --    62 C    0.975
   102   1 H    1.004 --    63 C    0.973
   103   1 H    1.003 --    68 C    0.971
   104   1 H    1.000 --    69 C    0.972
   105   1 H    1.000 --    73 C    0.972
   106   1 H    1.003 --    74 C    0.971
   107   1 H    1.004 --    76 C    0.973
   108   1 H    1.001 --    77 C    0.973
   109   1 H    1.001 --    82 C    0.973
   110   1 H    1.004 --    83 C    0.973
   111   1 H    1.003 --    88 C    0.971
   112   1 H    1.000 --    89 C    0.972
   113   1 H    1.000 --    93 C    0.972
   114   1 H    1.003 --    94 C    0.971
   115   1 H    1.004 --    96 C    0.973
   116   1 H    0.997 --    97 C    0.975
   117   6 C    3.927 --   118 C    2.379   121 C    1.327   120 C    0.191
   118   6 C    3.927 --   117 C    2.379   119 C    1.327   122 C    0.191
   119   6 C    3.938 --   120 C    2.460   118 C    1.327
   120   6 C    3.892 --   119 C    2.460    22 C    1.181   117 C    0.191
   121   6 C    3.938 --   122 C    2.460   117 C    1.327
   122   6 C    3.892 --   121 C    2.460    80 C    1.181   118 C    0.191
 ---------------------------------------------------------------------------

           -------------------------------------------------
          | TOTAL ENERGY             -221.047556322154 Eh   |
          | GRADIENT NORM               0.000962384337 Eh/α |
          | HOMO-LUMO GAP               1.279934124081 eV   |
           -------------------------------------------------

 * finished run on 2022/07/30 at 11:38:51.943
