   * xtb version 6.5.1 (b24c23e) compiled by 'conda@728c89f4b128' on 2022-07-12
          program call               : xtb m-CP_C4_2.xyz --gfn 1 --opt -T 48

   ID    Z sym.   atoms
    1    6 C      1-5, 7-11, 14-19, 21-26, 28-34, 37-41, 64-68, 70-74, 77-82,
                  84-89, 91-97, 100-104, 127-130
    2    7 N      6, 20, 27, 42, 69, 83, 90, 105
    3    8 O      12, 13, 35, 36, 75, 76, 98, 99
    4    1 H      43-63, 106-126
########################################################################
[WARNING] Please study the warnings concerning your input carefully
-1- prog_main_parseArguments: Unknown option '-T' provided
########################################################################

          :  Hamiltonian                  GFN1-xTB          :
 * total energy  :  -236.8475201 Eh     change       -0.1780739E-07 Eh
 * total energy  :  -237.6607402 Eh     change       -0.8132201E+00 Eh
 * total energy  :  -237.7730634 Eh     change       -0.1123232E+00 Eh
 * total energy  :  -237.8319046 Eh     change       -0.5884122E-01 Eh
 * total energy  :  -237.8478987 Eh     change       -0.1599410E-01 Eh
 * total energy  :  -237.8572408 Eh     change       -0.9342074E-02 Eh
 * total energy  :  -237.8604213 Eh     change       -0.3180528E-02 Eh
 * total energy  :  -237.8625236 Eh     change       -0.2102269E-02 Eh
 * total energy  :  -237.8639659 Eh     change       -0.1442297E-02 Eh
 * total energy  :  -237.8654956 Eh     change       -0.1529699E-02 Eh
 * total energy  :  -237.8727122 Eh     change       -0.2075206E-04 Eh
 * total energy  :  -237.8727373 Eh     change       -0.2508179E-04 Eh
 * total energy  :  -237.8727610 Eh     change       -0.2372191E-04 Eh
 * total energy  :  -237.8727813 Eh     change       -0.2022341E-04 Eh
 * total energy  :  -237.8727992 Eh     change       -0.1796085E-04 Eh
 * total energy  :  -237.8728131 Eh     change       -0.1388040E-04 Eh
 * total energy  :  -237.8728219 Eh     change       -0.8807217E-05 Eh
 * total energy  :  -237.8728270 Eh     change       -0.5102967E-05 Eh
 * total energy  :  -237.8728308 Eh     change       -0.3785163E-05 Eh
   *** GEOMETRY OPTIMIZATION CONVERGED AFTER 85 ITERATIONS ***

 final structure:
================
130
 xtb: 6.5.1 (b24c23e)
C           12.36964196585635       -0.04569391743819       -0.58196673709187
C           12.97349978578890        1.17250000057472       -0.86511383598405
C           12.31683167532699        2.38899780926610       -1.20367025762921
C           13.27240659487260        3.35139564858188       -1.37021745302854
C           14.54493147774812        2.75108624564666       -1.14883021365225
N           14.31349085163989        1.43939372672466       -0.84616378503898
C           15.80131679081024        3.36544470488680       -1.19228259000984
C           15.82703786072868        4.80517716290056       -1.55160066775459
C           16.32409868012745        5.74724427245017       -0.65533364110242
C           16.35130650378000        7.09961802688411       -0.99315816363420
C           16.89377925054736        8.05521888690364        0.00548323043087
O           16.89065917222804        9.32860931700909       -0.41472525129442
O           17.30339171035613        7.74193556099982        1.09376794496289
C           15.87988645397037        7.51932608955309       -2.23698541806062
C           15.38384099554010        6.58345189868516       -3.13086817140963
C           15.35526433123917        5.23756449756025       -2.79320446742520
C           17.01704421442272        2.73024944684531       -0.92888248749891
C           18.31199822750618        3.37637632559957       -1.04897736917131
C           19.23532396855314        2.44020113965334       -0.74825168867557
N           17.17643696817625        1.42686268691319       -0.56940483530606
C           18.50386843201684        1.22424090686747       -0.44859122956153
C           19.14500679718365        0.01870532093540       -0.09911443576449
C           18.51446028762577       -1.20451119503811        0.19707433163888
C           19.16392598887971       -2.42131587586493        0.53522273353330
C           18.20166131086922       -3.37200224917838        0.73396932156968
C           16.93312945696178       -2.76159499902621        0.52842447231914
N           17.17457854497125       -1.45307288580540        0.20361070141158
C           15.67569876205669       -3.37093787754652        0.59656964109307
C           15.65196173389936       -4.80158326259531        0.98775873665606
C           15.13717285432020       -5.76630168298274        0.11866198447690
C           15.12278239325396       -7.10666440437935        0.47875202879729
C           15.61998925012892       -7.50108176291044        1.70965980265455
C           16.13506767867047       -6.54638859105439        2.58792166565972
C           16.66013767348587       -7.00747610692210        3.89782237446254
O           17.13098304925274       -6.01461310102412        4.66621898306933
O           16.67542997081612       -8.15702766444501        4.25680271374472
C           16.15081623420801       -5.20106314157673        2.22600250155967
C           14.45999562730517       -2.73591482392925        0.32307507016978
C           13.15746093288712       -3.37099832716535        0.45223481146292
C           12.24317832718771       -2.43905587640729        0.11590394443923
C           12.98499642243434       -1.23299936427032       -0.20755011753090
N           14.31616835370930       -1.44776600665091       -0.06841057044882
H           11.28632530461528       -0.05751823756054       -0.64733308701785
H           11.24837120099153        2.50175720299567       -1.29575372537140
H           13.11475693772459        4.38968701177193       -1.61340390739114
H           15.03989262908738        0.76739029717149       -0.62248399499722
H           16.68339614140029        5.44061598692682        0.32088533589394
H           17.26008227222247        9.88594557566813        0.28948015649973
H           15.90378445167834        8.57016101428477       -2.49886127261210
H           15.01880049447831        6.90200695693499       -4.10075090592936
H           14.98026801921514        4.50967699146536       -3.50410347482395
H           18.47225860652490        4.40167144983376       -1.34026865654242
H           20.30911729802082        2.53600608148240       -0.72838185939308
H           20.23226037430784       -2.54507391827619        0.60934587091838
H           18.35505898432223       -4.40796059628748        0.98854852323417
H           16.45044767516663       -0.77498218406801       -0.00969463551769
H           14.76195167363940       -5.46184372319425       -0.85201625430648
H           14.72446494821891       -7.84446230397773       -0.20843678830863
H           15.61764272948960       -8.54400388400500        2.00568752688662
H           17.45483002125565       -6.39449845605189        5.49904232355658
H           16.53797516792649       -4.46041392924667        2.91579978807871
H           12.98953931845492       -4.38627848198314        0.77384405686527
H           11.16824427943873       -2.52592048216406        0.09015637682622
C           32.52537763110309       -0.19322049324039       -0.54894283185376
C           31.92226320902281       -1.42065251480168       -0.30719770477593
C           32.57965248933736       -2.66836684452156       -0.11525359150570
C           31.62450548995449       -3.61497499707694        0.12701107722997
C           30.35154023061385       -2.97771503462161        0.08043353548622
N           30.58228220142153       -1.65721762050766       -0.18175517631668
C           29.09538227998962       -3.55719407331260        0.29010440478854
C           29.07103430364350       -5.01787652311108        0.55214511345674
C           28.57660999419504       -5.51034528113580        1.75663862612941
C           28.55216829234395       -6.88238808772161        2.00308083349616
C           28.01478436790050       -7.34536521199951        3.30748132828183
O           28.02184821632644       -8.67904485089208        3.44684568779266
O           27.60584147316717       -6.61418096269085        4.17257028086024
C           29.02268088260739       -7.77440717393013        1.03952082441954
C           29.51544291199636       -7.28657611078667       -0.16054469660028
C           29.54217540650878       -5.92047264469189       -0.40408216908655
C           27.87891391114181       -2.87132330354844        0.26834469582642
C           26.58453723523036       -3.51184426685375        0.42078035937120
C           25.66014422422801       -2.53556475262250        0.31212174264355
N           27.71817876546430       -1.53498874549237        0.06432507953101
C           26.39041488885437       -1.30223444917218        0.09053218554292
C           25.74860356761573       -0.05941828077859       -0.08239159523483
C           26.37877208006227        1.17831904983918       -0.31161678170649
C           25.72874759973906        2.42669392459538       -0.50079177680159
C           26.69057775003820        3.37587249844863       -0.70878428862225
C           27.95928301007040        2.73519214540241       -0.64738924471736
N           27.71850155617505        1.40824871661103       -0.40798649779257
C           29.21614440266248        3.31974423176876       -0.83546658308808
C           29.23890074322928        4.78532102213174       -1.06461452219056
C           29.74500490399468        5.30890900200056       -2.25646812585248
C           29.75879227632633        6.67918290842464       -2.47704535680905
C           29.27114312369486        7.54355501622802       -1.51118678031787
C           28.76550773936874        7.03279510650598       -0.31470154898540
C           28.25343260323352        7.99098546281781        0.69720432524270
O           27.79429365798743        7.40095315195353        1.81028458705047
O           28.23978134098693        9.18680154854044        0.55443301245014
C           28.74867754832103        5.65714862628051       -0.09451262047067
C           30.43236572616743        2.62954973376499       -0.82576993723239
C           31.73409070600029        3.26304893435798       -0.96953479147608
C           32.64944296317719        2.27608331463599       -0.89464142260450
C           31.90898728943433        1.04270671280828       -0.69453196408689
N           30.57762040952217        1.29422859881939       -0.65495473782490
H           33.60870315911095       -0.20851355846589       -0.61341208942650
H           33.64828179225545       -2.80816026512661       -0.15133854101245
H           31.78259592718816       -4.66138814800100        0.33220094147769
H           29.85542847422634       -0.95327109822181       -0.25529314278907
H           28.21758754297877       -4.83086031627264        2.52184421614177
H           27.65589731994334       -8.89945702193909        4.31889206238356
H           29.00094942330400       -8.84026115823171        1.23162106764159
H           29.87973688298433       -7.97424557863761       -0.91539766193855
H           29.91525436516681       -5.54729702348443       -1.35139101183413
H           26.42567770417280       -4.56705862980726        0.57283812048117
H           24.58637107882315       -2.61627039740778        0.36789004363440
H           24.66036265721458        2.56944637440007       -0.48330678027959
H           26.53710159056154        4.42531940326356       -0.90026395534121
H           28.44289031072405        0.70253789398593       -0.32515711482641
H           30.11385047444482        4.63320756307096       -3.02000118227033
H           30.14961663010296        7.07051752442960       -3.40941540438598
H           29.27412410809398        8.61630819461861       -1.66781561961903
H           27.48019596618607        8.08945258062248        2.41870598493217
H           28.36805036744187        5.26417398132012        0.84082094115800
H           31.90050949116854        4.32111935884656       -1.09299959010271
H           33.72426411403895        2.34579815988091       -0.95441694041668
C           21.77218107621761       -0.00047602257210       -0.03240321912182
C           20.55041320068744        0.01684014413833       -0.05566673027460
C           23.12139896395208       -0.01701492991877       -0.02914392555005
C           24.34319588634670       -0.04031744382773       -0.04338042548198

          :  Hamiltonian                  GFN1-xTB          :
         :: total energy            -237.872830799770 Eh    ::
         :: gradient norm              0.000471258421 Eh/a0 ::
         :: HOMO-LUMO gap              1.015630409240 eV    ::
         :: SCC energy              -241.405934543674 Eh    ::
         :: repulsion energy           3.642300299996 Eh    ::

    * Orbital Energies and Occupations

         #    Occupation            Energy/Eh            Energy/eV
      -------------------------------------------------------------
         1        2.0000           -0.8329638             -22.6661
       ...           ...                  ...                  ...
       197        2.0000           -0.4291099             -11.6767
       198        2.0000           -0.4266508             -11.6098
       199        2.0000           -0.4258229             -11.5872
       200        2.0000           -0.4256639             -11.5829
       201        2.0000           -0.4231130             -11.5135
       202        2.0000           -0.4216114             -11.4726
       203        2.0000           -0.4214529             -11.4683
       204        2.0000           -0.4205923             -11.4449
       205        2.0000           -0.4205681             -11.4442
       206        2.0000           -0.4043608             -11.0032
       207        2.0000           -0.4040156             -10.9938
       208        2.0000           -0.3946866             -10.7400
       209        2.0000           -0.3836328             -10.4392 (HOMO)
       210                         -0.3463091              -9.4235 (LUMO)
       211                         -0.3373381              -9.1794
       212                         -0.3370378              -9.1713
       213                         -0.3326835              -9.0528
       214                         -0.3117877              -8.4842
       215                         -0.3115050              -8.4765
       216                         -0.3103843              -8.4460
       217                         -0.3103659              -8.4455
       218                         -0.3045997              -8.2886
       219                         -0.2974639              -8.0944
       220                         -0.2762522              -7.5172
       ...                                ...                  ...
       436                          1.5127564              41.1642
      -------------------------------------------------------------
                  HL-Gap            0.0373237 Eh            1.0156 eV

Wiberg/Mayer (AO) data.
largest (>0.10) Wiberg bond orders for each atom

     #   Z sym  total        # sym  WBO       # sym  WBO       # sym  WBO
 ---------------------------------------------------------------------------
     1   6 C    3.926 --    41 C    1.366     2 C    1.347    43 H    0.971
     2   6 C    3.902 --     1 C    1.347     3 C    1.229     6 N    1.169
     3   6 C    3.953 --     4 C    1.596     2 C    1.229    44 H    0.976
     4   6 C    3.959 --     3 C    1.596     5 C    1.234    45 H    0.974
     5   6 C    3.897 --     7 C    1.303     4 C    1.234     6 N    1.178
     6   7 N    3.470 --     5 C    1.178     2 C    1.169    46 H    0.873
     7   6 C    3.938 --    17 C    1.336     5 C    1.303     8 C    1.027
     8   6 C    3.988 --     9 C    1.407    16 C    1.388     7 C    1.027
                            14 C    0.102
     9   6 C    3.984 --     8 C    1.407    10 C    1.397    47 H    0.968
                            15 C    0.104
    10   6 C    3.988 --     9 C    1.397    14 C    1.391    11 C    1.004
    11   6 C    3.836 --    13 O    1.693    12 O    1.090    10 C    1.004
    12   8 O    2.098 --    11 C    1.090    48 H    0.838    13 O    0.129
    13   8 O    1.962 --    11 C    1.693    12 O    0.129
    14   6 C    3.986 --    15 C    1.448    10 C    1.391    49 H    0.970
                             8 C    0.102
    15   6 C    3.994 --    14 C    1.448    16 C    1.441    50 H    0.972
                             9 C    0.104
    16   6 C    3.987 --    15 C    1.441     8 C    1.388    51 H    0.973
    17   6 C    3.915 --     7 C    1.336    20 N    1.286    18 C    1.124
    18   6 C    3.966 --    19 C    1.712    17 C    1.124    52 H    0.973
    19   6 C    3.964 --    18 C    1.712    21 C    1.127    53 H    0.974
    20   7 N    3.023 --    21 C    1.344    17 C    1.286
    21   6 C    3.908 --    20 N    1.344    22 C    1.256    19 C    1.127
    22   6 C    3.937 --    21 C    1.256    23 C    1.252   128 C    1.189
    23   6 C    3.885 --    22 C    1.252    24 C    1.248    27 N    1.189
    24   6 C    3.959 --    25 C    1.584    23 C    1.248    54 H    0.975
    25   6 C    3.954 --    24 C    1.584    26 C    1.240    55 H    0.974
    26   6 C    3.899 --    28 C    1.309    25 C    1.240    27 N    1.166
    27   7 N    3.475 --    23 C    1.189    26 C    1.166    56 H    0.873
    28   6 C    3.924 --    38 C    1.322    26 C    1.309    29 C    1.029
    29   6 C    3.988 --    37 C    1.405    30 C    1.388    28 C    1.029
                            32 C    0.102
    30   6 C    3.986 --    31 C    1.440    29 C    1.388    57 H    0.972
    31   6 C    3.994 --    32 C    1.450    30 C    1.440    58 H    0.972
                            37 C    0.104
    32   6 C    3.985 --    31 C    1.450    33 C    1.388    59 H    0.969
                            29 C    0.102
    33   6 C    3.988 --    37 C    1.400    32 C    1.388    34 C    1.005
    34   6 C    3.836 --    36 O    1.692    35 O    1.090    33 C    1.005
    35   8 O    2.099 --    34 C    1.090    60 H    0.838    36 O    0.129
    36   8 O    1.961 --    34 C    1.692    35 O    0.129
    37   6 C    3.984 --    29 C    1.405    33 C    1.400    61 H    0.969
                            31 C    0.104
    38   6 C    3.930 --    28 C    1.322    42 N    1.317    39 C    1.117
    39   6 C    3.967 --    40 C    1.723    38 C    1.117    62 H    0.974
    40   6 C    3.966 --    39 C    1.723    41 C    1.116    63 H    0.976
    41   6 C    3.929 --     1 C    1.366    42 N    1.300    40 C    1.116
    42   7 N    3.012 --    38 C    1.317    41 C    1.300
    43   1 H    1.002 --     1 C    0.971
    44   1 H    0.997 --     3 C    0.976
    45   1 H    1.004 --     4 C    0.974
    46   1 H    0.986 --     6 N    0.873
    47   1 H    1.007 --     9 C    0.968
    48   1 H    0.873 --    12 O    0.838
    49   1 H    1.005 --    14 C    0.970
    50   1 H    1.002 --    15 C    0.972
    51   1 H    1.004 --    16 C    0.973
    52   1 H    1.004 --    18 C    0.973
    53   1 H    1.003 --    19 C    0.974
    54   1 H    1.002 --    24 C    0.975
    55   1 H    1.004 --    25 C    0.974
    56   1 H    0.987 --    27 N    0.873
    57   1 H    1.005 --    30 C    0.972
    58   1 H    1.002 --    31 C    0.972
    59   1 H    1.005 --    32 C    0.969
    60   1 H    0.872 --    35 O    0.838
    61   1 H    1.007 --    37 C    0.969
    62   1 H    1.004 --    39 C    0.974
    63   1 H    0.998 --    40 C    0.976
    64   6 C    3.926 --   104 C    1.366    65 C    1.347   106 H    0.971
    65   6 C    3.902 --    64 C    1.347    66 C    1.229    69 N    1.169
    66   6 C    3.953 --    67 C    1.596    65 C    1.229   107 H    0.976
    67   6 C    3.959 --    66 C    1.596    68 C    1.234   108 H    0.974
    68   6 C    3.897 --    70 C    1.304    67 C    1.234    69 N    1.178
    69   7 N    3.470 --    68 C    1.178    65 C    1.169   109 H    0.873
    70   6 C    3.938 --    80 C    1.336    68 C    1.304    71 C    1.027
    71   6 C    3.988 --    72 C    1.408    79 C    1.389    70 C    1.027
                            77 C    0.103
    72   6 C    3.984 --    71 C    1.408    73 C    1.397   110 H    0.968
                            78 C    0.104
    73   6 C    3.988 --    72 C    1.397    77 C    1.391    74 C    1.004
    74   6 C    3.836 --    76 O    1.693    75 O    1.090    73 C    1.004
    75   8 O    2.098 --    74 C    1.090   111 H    0.838    76 O    0.129
    76   8 O    1.962 --    74 C    1.693    75 O    0.129
    77   6 C    3.987 --    78 C    1.448    73 C    1.391   112 H    0.970
                            71 C    0.103
    78   6 C    3.994 --    77 C    1.448    79 C    1.441   113 H    0.972
                            72 C    0.104
    79   6 C    3.987 --    78 C    1.441    71 C    1.389   114 H    0.973
    80   6 C    3.915 --    70 C    1.336    83 N    1.286    81 C    1.124
    81   6 C    3.966 --    82 C    1.712    80 C    1.124   115 H    0.973
    82   6 C    3.964 --    81 C    1.712    84 C    1.127   116 H    0.974
    83   7 N    3.023 --    84 C    1.344    80 C    1.286
    84   6 C    3.908 --    83 N    1.344    85 C    1.256    82 C    1.127
    85   6 C    3.937 --    84 C    1.256    86 C    1.252   130 C    1.189
    86   6 C    3.885 --    85 C    1.252    87 C    1.248    90 N    1.189
    87   6 C    3.959 --    88 C    1.584    86 C    1.248   117 H    0.975
    88   6 C    3.954 --    87 C    1.584    89 C    1.240   118 H    0.974
    89   6 C    3.899 --    91 C    1.309    88 C    1.240    90 N    1.166
    90   7 N    3.475 --    86 C    1.189    89 C    1.166   119 H    0.873
    91   6 C    3.924 --   101 C    1.322    89 C    1.309    92 C    1.029
    92   6 C    3.988 --   100 C    1.405    93 C    1.388    91 C    1.029
                            95 C    0.102
    93   6 C    3.986 --    94 C    1.440    92 C    1.388   120 H    0.972
    94   6 C    3.994 --    95 C    1.450    93 C    1.440   121 H    0.972
                           100 C    0.104
    95   6 C    3.985 --    94 C    1.450    96 C    1.388   122 H    0.969
                            92 C    0.102
    96   6 C    3.988 --   100 C    1.400    95 C    1.388    97 C    1.005
    97   6 C    3.836 --    99 O    1.692    98 O    1.090    96 C    1.005
    98   8 O    2.099 --    97 C    1.090   123 H    0.838    99 O    0.129
    99   8 O    1.961 --    97 C    1.692    98 O    0.129
   100   6 C    3.984 --    92 C    1.405    96 C    1.400   124 H    0.969
                            94 C    0.104
   101   6 C    3.930 --    91 C    1.322   105 N    1.317   102 C    1.117
   102   6 C    3.967 --   103 C    1.723   101 C    1.117   125 H    0.974
   103   6 C    3.966 --   102 C    1.723   104 C    1.116   126 H    0.976
   104   6 C    3.929 --    64 C    1.366   105 N    1.301   103 C    1.116
   105   7 N    3.012 --   101 C    1.317   104 C    1.301
   106   1 H    1.002 --    64 C    0.971
   107   1 H    0.997 --    66 C    0.976
   108   1 H    1.004 --    67 C    0.974
   109   1 H    0.986 --    69 N    0.873
   110   1 H    1.007 --    72 C    0.968
   111   1 H    0.873 --    75 O    0.838
   112   1 H    1.005 --    77 C    0.970
   113   1 H    1.002 --    78 C    0.972
   114   1 H    1.004 --    79 C    0.973
   115   1 H    1.004 --    81 C    0.973
   116   1 H    1.003 --    82 C    0.974
   117   1 H    1.002 --    87 C    0.975
   118   1 H    1.004 --    88 C    0.974
   119   1 H    0.987 --    90 N    0.873
   120   1 H    1.005 --    93 C    0.972
   121   1 H    1.002 --    94 C    0.972
   122   1 H    1.005 --    95 C    0.969
   123   1 H    0.872 --    98 O    0.838
   124   1 H    1.007 --   100 C    0.969
   125   1 H    1.004 --   102 C    0.974
   126   1 H    0.998 --   103 C    0.976
   127   6 C    3.933 --   128 C    2.475   129 C    1.309
   128   6 C    3.926 --   127 C    2.475    22 C    1.189   130 C    0.199
   129   6 C    3.933 --   130 C    2.475   127 C    1.309
   130   6 C    3.926 --   129 C    2.475    85 C    1.189   128 C    0.199
 ---------------------------------------------------------------------------

           -------------------------------------------------
          | TOTAL ENERGY             -237.872830799770 Eh   |
          | GRADIENT NORM               0.000471258421 Eh/α |
          | HOMO-LUMO GAP               1.015630409240 eV   |
           -------------------------------------------------

 * finished run on 2022/07/27 at 16:42:37.542
