   * xtb version 6.5.1 (b24c23e) compiled by 'conda@728c89f4b128' on 2022-07-12
          program call               : xtb Cu_m-CP_C6_2.xyz --gfn 1 --opt -T 48

   ID    Z sym.   atoms
    1   29 Cu     1, 63
    2    6 C      2-6, 8-12, 15-20, 22-27, 29-35, 38-42, 64-68, 70-74, 77-82,
                  84-89, 91-97, 100-104, 125-130
    3    7 N      7, 21, 28, 43, 69, 83, 90, 105
    4    8 O      13, 14, 36, 37, 75, 76, 98, 99
    5    1 H      44-62, 106-124
########################################################################
[WARNING] Please study the warnings concerning your input carefully
-1- prog_main_parseArguments: Unknown option '-T' provided
########################################################################

          :  Hamiltonian                  GFN1-xTB          :
 * total energy  :  -248.7439801 Eh     change       -0.1247201E-08 Eh
 * total energy  :  -248.8883326 Eh     change       -0.1443525E+00 Eh
 * total energy  :  -248.9515247 Eh     change       -0.6319203E-01 Eh
 * total energy  :  -248.9693081 Eh     change       -0.1778339E-01 Eh
 * total energy  :  -248.9761910 Eh     change       -0.6882941E-02 Eh
 * total energy  :  -248.9792897 Eh     change       -0.3098682E-02 Eh
 * total energy  :  -248.9809313 Eh     change       -0.1641645E-02 Eh
 * total energy  :  -248.9819778 Eh     change       -0.1046458E-02 Eh
 * total energy  :  -248.9827431 Eh     change       -0.7652662E-03 Eh
 * total energy  :  -248.9835029 Eh     change       -0.7598158E-03 Eh
 * total energy  :  -248.9862687 Eh     change       -0.1154845E-04 Eh
 * total energy  :  -248.9862688 Eh     change       -0.1635743E-06 Eh
 * total energy  :  -248.9862820 Eh     change       -0.1315607E-04 Eh
 * total energy  :  -248.9862950 Eh     change       -0.1305091E-04 Eh
 * total energy  :  -248.9863068 Eh     change       -0.1174851E-04 Eh
 * total energy  :  -248.9863172 Eh     change       -0.1038235E-04 Eh
 * total energy  :  -248.9863264 Eh     change       -0.9226983E-05 Eh
 * total energy  :  -248.9863332 Eh     change       -0.6813773E-05 Eh
 * total energy  :  -248.9863379 Eh     change       -0.4681887E-05 Eh
   *** GEOMETRY OPTIMIZATION CONVERGED AFTER 38 ITERATIONS ***

 final structure:
================
130
 xtb: 6.5.1 (b24c23e)
Cu          14.45634702843101        0.00042449515469        0.01268049651585
C           11.05350704503626       -0.00213423840972        0.17410992689426
C           11.68274865323733        1.22770287579184        0.29347327110411
C           11.00221030879726        2.48309140556615        0.43765420736793
C           11.95664147928697        3.44191753968884        0.52503062691871
C           13.23050523567681        2.77863983241375        0.44735440496794
N           13.03251384062986        1.43661086953922        0.29740089683794
C           14.47345238664563        3.41387839804929        0.50165683860395
C           14.48059237766017        4.88293411335058        0.71451118082207
C           13.93836304884765        5.43117637049377        1.87343642645672
C           13.94309168054208        6.81114633196219        2.07295892938631
C           13.35074292972811        7.33391045034946        3.32978653238443
O           13.40151661708457        8.67017472770725        3.43125045713203
O           12.86305381126931        6.64559598635907        4.18949358268018
C           14.49165263659135        7.65515404481469        1.10741628847337
C           15.03176090448792        7.11192540456463       -0.04770732958830
C           15.02864238204983        5.73815476853611       -0.24444787565589
C           15.70892399809907        2.77526246869199        0.37665423988069
C           16.98495433062179        3.42131710095732        0.50207386219444
C           17.93337418244139        2.46657675087992        0.32663922224243
N           15.90078451729090        1.43998504805992        0.13985701932636
C           17.24494232473874        1.23121300510013        0.10041152289930
C           17.88402574159163        0.00030898558047       -0.13255372997763
C           17.22867971621667       -1.22999389625565       -0.31815106507902
C           17.89560768043283       -2.46507001817319       -0.60200323850734
C           16.93536996075438       -3.41928101854103       -0.70067645766216
C           15.67439931664265       -2.77355091162613       -0.46760270528905
N           15.88563830567174       -1.43820414933097       -0.24761571337758
C           14.43286707935602       -3.41260825487979       -0.48175357434533
C           14.41861305854991       -4.88204448363178       -0.69328432050021
C           15.04760312093581       -5.73654068504270        0.21481388951947
C           15.02625211196987       -7.11127606429345        0.02374602553069
C           14.37928887110572       -7.64991900395348       -1.07577934567896
C           13.74879784966936       -6.80642545502541       -1.99192634628743
C           13.06600657198073       -7.42210177770536       -3.15726607700182
O           12.49006941138690       -6.52969965527217       -3.97609254485421
O           13.01806530525420       -8.60703508381490       -3.36835086128270
C           13.76885551385466       -5.42658135862478       -1.79912839477040
C           13.19970001567616       -2.77868401068476       -0.31058127331578
C           11.92553235947267       -3.44418695097129       -0.26478676070678
C           10.98221668538732       -2.48716220095793       -0.08398907086465
C           11.67112376458334       -1.23066863549167       -0.00638366654513
N           13.01439495122972       -1.43688705410757       -0.14218096747200
H            9.96971649733626       -0.00358855208371        0.22764906459297
H            9.93038357613525        2.60176085318162        0.45850264411777
H           11.81714834734698        4.50643808456377        0.62287423205189
H           13.51973732868917        4.78934892492868        2.64094740950824
H           12.99641057211853        8.93087333292215        4.27430776527361
H           14.49278894120572        8.72716413564336        1.26298776405967
H           15.45725850927115        7.76230624676183       -0.80359469637632
H           15.44106782976035        5.32097840080916       -1.15639308329171
H           17.13315227750427        4.46791008065640        0.71374181420877
H           19.00547756201902        2.57824135946423        0.35367555590056
H           18.96185236328800       -2.57681505713321       -0.71763045891391
H           17.06483219110443       -4.46572019005334       -0.92515174318785
H           15.54237577691447       -5.31798951317934        1.08414646822546
H           15.51498479022441       -7.76220446560112        0.73974370334825
H           14.35180125810711       -8.72129217695551       -1.23940379758861
H           12.06882525065672       -7.01000822050155       -4.70725839632460
H           13.28944620204745       -4.77304836696215       -2.51838144089680
H           11.77918725143936       -4.50908018766043       -0.34792084268953
H            9.91376510334475       -2.60814744395727        0.00060729643523
Cu          30.48678999031537       -0.00508311509849        0.01182187808613
C           33.88952814775241       -0.05549252157606        0.16669565009521
C           33.26029690970524       -1.25705520285524       -0.12140402550331
C           33.94091113667842       -2.49089005174506       -0.39401191890787
C           32.98655377876096       -3.42570445881228       -0.62475796697145
C           31.71262896045964       -2.77327295967277       -0.48271560504419
N           31.91053516341164       -1.45572897386896       -0.18662032412005
C           30.46974405149594       -3.39128907642677       -0.64009926830899
C           30.46235402830312       -4.84941521084444       -0.91792285297371
C           31.00454913934804       -5.74566622321710       -0.00113038024552
C           30.99893296876240       -7.11535013790286       -0.26208305253779
C           31.59214514338433       -8.01931556173053        0.75510551517964
O           31.54070128213175       -9.31565435912565        0.41565655385724
O           32.07952432667761       -7.64895802516216        1.79251572282412
C           30.44904963153101       -7.59850319377478       -1.44940828876679
C           29.90908667445058       -6.70825628892339       -2.36429684437514
C           29.91348816182697       -5.34530787031031       -2.10294066321567
C           29.23427318753758       -2.74653803012707       -0.55143764484039
C           27.95817530235850       -3.39776199672719       -0.64571322564562
C           27.00980443119583       -2.43787691039571       -0.50082355480177
N           29.04248584617988       -1.40711606688121       -0.33909133774293
C           27.69832080924280       -1.19665933719419       -0.30946593928681
C           27.05922873196144        0.04277697606464       -0.12730498459298
C           27.71454523866011        1.26608199237082        0.09996583975846
C           27.04758433181170        2.52614969296234        0.23467920635703
C           28.00774730312989        3.46025236994003        0.45341994921094
C           29.26870496828522        2.77377754189601        0.46318513945861
N           29.05756031281348        1.43980320589071        0.23495476804531
C           30.51022358706238        3.38254369340756        0.65835388254345
C           30.52427121507104        4.84064253674239        0.93746517702434
C           29.89480169415260        5.35242388216967        2.07425285320580
C           29.91573343362322        6.71438880550394        2.34159205781799
C           30.56278359398972        7.58209118269688        1.47782745357602
C           31.19372025055871        7.08333644494537        0.33701200337796
C           31.87671572010470        8.04524130178972       -0.56382065489735
O           32.45043178765840        7.46882275964237       -1.63019295904377
O           31.92605812952880        9.23406728564583       -0.37626706128046
C           31.17402522150534        5.71598748704488        0.06960652786113
C           31.74338631498616        2.72749703952402        0.61329307198868
C           33.01759249090377        3.34172110511070        0.87334992904046
C           33.96088815237820        2.37801803258551        0.73229841952102
C           33.27192195490477        1.16484838446328        0.39619630812779
N           31.92866122947976        1.40407916242051        0.33499507821178
H           34.97330164710313       -0.07161275868187        0.21808174465538
H           35.01274709926645       -2.60994580098275       -0.41232970913251
H           33.12618545303145       -4.46391133029180       -0.87942970811336
H           31.42402707099151       -5.38915937269267        0.93332204549940
H           31.94573153829000       -9.83698386786680        1.12770167817959
H           30.44681699785350       -8.66274451902014       -1.65139664224583
H           29.48263178638190       -7.07667281256349       -3.29048794573109
H           29.50121537141346       -4.65360936881754       -2.82913275351742
H           27.80974936725140       -4.45598478769588       -0.78798033899024
H           25.93768495858346       -2.55190235555369       -0.51331859070182
H           25.98136210240105        2.66953874151885        0.16158716804857
H           27.87820825071141        4.52261938046866        0.58296302774991
H           29.39998723538129        4.67331079031313        2.75959607939337
H           29.42657816570399        7.09635195084717        3.23044392744089
H           30.58996784953850        8.64830670879397        1.67228252320772
H           32.87176498190875        8.16122905587278       -2.16482433893814
H           31.65371259357202        5.33262369039203       -0.82324663652722
H           33.16396884612664        4.37557069885665        1.14179224595482
H           35.02935290916943        2.46485103907936        0.85157890998369
C           23.08559892311562        0.04213313145626       -0.20656175786657
C           21.85759637943820        0.02621957103650       -0.20760546442614
C           20.51286722687368        0.01378473293418       -0.19719448767413
C           19.28945872873071        0.00242844289675       -0.17252033811841
C           24.43033767916747        0.05161022939786       -0.19329738460125
C           25.65381936444234        0.05414518816663       -0.16643247346819

          :  Hamiltonian                  GFN1-xTB          :
         :: total energy            -248.986337899303 Eh    ::
         :: gradient norm              0.000715053092 Eh/a0 ::
         :: HOMO-LUMO gap              0.002050309290 eV    ::
         :: SCC energy              -252.580257465049 Eh    ::
         :: repulsion energy           3.708710268545 Eh    ::

    * Orbital Energies and Occupations

         #    Occupation            Energy/Eh            Energy/eV
      -------------------------------------------------------------
         1        2.0000           -0.8334469             -22.6792
       ...           ...                  ...                  ...
       210        2.0000           -0.4175854             -11.3631
       211        2.0000           -0.4175831             -11.3630
       212        2.0000           -0.4144546             -11.2779
       213        2.0000           -0.4144544             -11.2779
       214        2.0000           -0.4143044             -11.2738
       215        2.0000           -0.4142719             -11.2729
       216        2.0000           -0.4142703             -11.2729
       217        2.0000           -0.4142093             -11.2712
       218        2.0000           -0.4020860             -10.9413
       219        2.0000           -0.4020857             -10.9413
       220        2.0000           -0.3982550             -10.8371
       221        2.0000           -0.3876039             -10.5472
       222        1.0198           -0.3619551              -9.8493 (HOMO)
       223        0.9802           -0.3618797              -9.8472 (LUMO)
       224                         -0.3443870              -9.3712
       225                         -0.3352303              -9.1221
       226                         -0.3352234              -9.1219
       227                         -0.3326416              -9.0516
       228                         -0.3121479              -8.4940
       229                         -0.3116656              -8.4809
       230                         -0.3108237              -8.4579
       231                         -0.3107814              -8.4568
       232                         -0.3045404              -8.2870
       233                         -0.2980643              -8.1107
       ...                                ...                  ...
       454                          1.5750191              42.8585
      -------------------------------------------------------------
                  HL-Gap            0.0000753 Eh            0.0021 eV

Wiberg/Mayer (AO) data.
largest (>0.10) Wiberg bond orders for each atom

     #   Z sym  total        # sym  WBO       # sym  WBO       # sym  WBO
 ---------------------------------------------------------------------------
     1  29 Cu   2.180 --     7 N    0.504    43 N    0.504    21 N    0.501
                            28 N    0.500
     2   6 C    3.930 --     3 C    1.362    42 C    1.361    44 H    0.971
     3   6 C    3.916 --     2 C    1.362     7 N    1.229     4 C    1.169
     4   6 C    3.955 --     5 C    1.658     3 C    1.169    45 H    0.975
     5   6 C    3.958 --     4 C    1.658     6 C    1.170    46 H    0.973
     6   6 C    3.914 --     8 C    1.320     7 N    1.240     5 C    1.170
     7   7 N    3.244 --     6 C    1.240     3 C    1.229     1 Cu   0.504
     8   6 C    3.933 --    18 C    1.326     6 C    1.320     9 C    1.027
     9   6 C    3.988 --    10 C    1.408    17 C    1.388     8 C    1.027
                            15 C    0.102
    10   6 C    3.984 --     9 C    1.408    11 C    1.396    47 H    0.968
                            16 C    0.104
    11   6 C    3.988 --    10 C    1.396    15 C    1.391    12 C    1.005
    12   6 C    3.836 --    14 O    1.692    13 O    1.090    11 C    1.005
    13   8 O    2.098 --    12 C    1.090    48 H    0.838    14 O    0.129
    14   8 O    1.961 --    12 C    1.692    13 O    0.129
    15   6 C    3.987 --    16 C    1.448    11 C    1.391    49 H    0.971
                             9 C    0.102
    16   6 C    3.994 --    15 C    1.448    17 C    1.441    50 H    0.972
                            10 C    0.104
    17   6 C    3.987 --    16 C    1.441     9 C    1.388    51 H    0.973
    18   6 C    3.909 --     8 C    1.326    21 N    1.223    19 C    1.179
    19   6 C    3.954 --    20 C    1.643    18 C    1.179    52 H    0.973
    20   6 C    3.956 --    19 C    1.643    22 C    1.186    53 H    0.974
    21   7 N    3.247 --    22 C    1.257    18 C    1.223     1 Cu   0.501
    22   6 C    3.897 --    23 C    1.259    21 N    1.257    20 C    1.186
    23   6 C    3.940 --    24 C    1.259    22 C    1.259   128 C    1.188
    24   6 C    3.897 --    23 C    1.259    28 N    1.257    25 C    1.187
    25   6 C    3.956 --    26 C    1.642    24 C    1.187    54 H    0.974
    26   6 C    3.954 --    25 C    1.642    27 C    1.179    55 H    0.973
    27   6 C    3.909 --    29 C    1.326    28 N    1.223    26 C    1.179
    28   7 N    3.247 --    24 C    1.257    27 C    1.223     1 Cu   0.500
    29   6 C    3.933 --    27 C    1.326    39 C    1.320    30 C    1.027
    30   6 C    3.988 --    38 C    1.406    31 C    1.389    29 C    1.027
                            33 C    0.102
    31   6 C    3.987 --    32 C    1.439    30 C    1.389    56 H    0.973
    32   6 C    3.994 --    33 C    1.451    31 C    1.439    57 H    0.972
                            38 C    0.104
    33   6 C    3.986 --    32 C    1.451    34 C    1.387    58 H    0.969
                            30 C    0.102
    34   6 C    3.988 --    38 C    1.400    33 C    1.387    35 C    1.005
    35   6 C    3.836 --    37 O    1.692    36 O    1.089    34 C    1.005
    36   8 O    2.098 --    35 C    1.089    59 H    0.838    37 O    0.129
    37   8 O    1.961 --    35 C    1.692    36 O    0.129
    38   6 C    3.985 --    30 C    1.406    34 C    1.400    60 H    0.969
                            32 C    0.104
    39   6 C    3.914 --    29 C    1.320    43 N    1.240    40 C    1.171
    40   6 C    3.958 --    41 C    1.657    39 C    1.171    61 H    0.973
    41   6 C    3.955 --    40 C    1.657    42 C    1.170    62 H    0.975
    42   6 C    3.916 --     2 C    1.361    43 N    1.230    41 C    1.170
    43   7 N    3.243 --    39 C    1.240    42 C    1.230     1 Cu   0.504
    44   1 H    1.001 --     2 C    0.971
    45   1 H    0.997 --     4 C    0.975
    46   1 H    1.004 --     5 C    0.973
    47   1 H    1.007 --    10 C    0.968
    48   1 H    0.873 --    13 O    0.838
    49   1 H    1.005 --    15 C    0.971
    50   1 H    1.002 --    16 C    0.972
    51   1 H    1.005 --    17 C    0.973
    52   1 H    1.004 --    19 C    0.973
    53   1 H    1.002 --    20 C    0.974
    54   1 H    1.002 --    25 C    0.974
    55   1 H    1.004 --    26 C    0.973
    56   1 H    1.005 --    31 C    0.973
    57   1 H    1.002 --    32 C    0.972
    58   1 H    1.005 --    33 C    0.969
    59   1 H    0.873 --    36 O    0.838
    60   1 H    1.008 --    38 C    0.969
    61   1 H    1.004 --    40 C    0.973
    62   1 H    0.997 --    41 C    0.975
    63  29 Cu   2.180 --    69 N    0.504   105 N    0.504    83 N    0.501
                            90 N    0.500
    64   6 C    3.930 --    65 C    1.362   104 C    1.361   106 H    0.971
    65   6 C    3.916 --    64 C    1.362    69 N    1.229    66 C    1.169
    66   6 C    3.955 --    67 C    1.658    65 C    1.169   107 H    0.975
    67   6 C    3.958 --    66 C    1.658    68 C    1.170   108 H    0.973
    68   6 C    3.914 --    70 C    1.320    69 N    1.240    67 C    1.170
    69   7 N    3.244 --    68 C    1.240    65 C    1.229    63 Cu   0.504
    70   6 C    3.933 --    80 C    1.326    68 C    1.320    71 C    1.027
    71   6 C    3.988 --    72 C    1.408    79 C    1.388    70 C    1.027
                            77 C    0.102
    72   6 C    3.984 --    71 C    1.408    73 C    1.396   109 H    0.968
                            78 C    0.104
    73   6 C    3.988 --    72 C    1.396    77 C    1.391    74 C    1.005
    74   6 C    3.836 --    76 O    1.692    75 O    1.090    73 C    1.005
    75   8 O    2.098 --    74 C    1.090   110 H    0.838    76 O    0.129
    76   8 O    1.961 --    74 C    1.692    75 O    0.129
    77   6 C    3.987 --    78 C    1.448    73 C    1.391   111 H    0.971
                            71 C    0.102
    78   6 C    3.994 --    77 C    1.448    79 C    1.441   112 H    0.972
                            72 C    0.104
    79   6 C    3.987 --    78 C    1.441    71 C    1.388   113 H    0.973
    80   6 C    3.909 --    70 C    1.326    83 N    1.223    81 C    1.179
    81   6 C    3.954 --    82 C    1.643    80 C    1.179   114 H    0.973
    82   6 C    3.956 --    81 C    1.643    84 C    1.186   115 H    0.974
    83   7 N    3.247 --    84 C    1.257    80 C    1.223    63 Cu   0.501
    84   6 C    3.897 --    85 C    1.259    83 N    1.257    82 C    1.186
    85   6 C    3.940 --    86 C    1.259    84 C    1.259   130 C    1.188
    86   6 C    3.897 --    85 C    1.259    90 N    1.257    87 C    1.187
    87   6 C    3.956 --    88 C    1.642    86 C    1.187   116 H    0.974
    88   6 C    3.954 --    87 C    1.642    89 C    1.179   117 H    0.973
    89   6 C    3.909 --    91 C    1.326    90 N    1.223    88 C    1.179
    90   7 N    3.247 --    86 C    1.257    89 C    1.223    63 Cu   0.500
    91   6 C    3.933 --    89 C    1.326   101 C    1.320    92 C    1.027
    92   6 C    3.988 --   100 C    1.406    93 C    1.389    91 C    1.027
                            95 C    0.102
    93   6 C    3.987 --    94 C    1.439    92 C    1.389   118 H    0.973
    94   6 C    3.994 --    95 C    1.451    93 C    1.439   119 H    0.972
                           100 C    0.104
    95   6 C    3.986 --    94 C    1.451    96 C    1.387   120 H    0.969
                            92 C    0.102
    96   6 C    3.988 --   100 C    1.400    95 C    1.387    97 C    1.005
    97   6 C    3.836 --    99 O    1.692    98 O    1.089    96 C    1.005
    98   8 O    2.098 --    97 C    1.089   121 H    0.838    99 O    0.129
    99   8 O    1.961 --    97 C    1.692    98 O    0.129
   100   6 C    3.985 --    92 C    1.406    96 C    1.400   122 H    0.969
                            94 C    0.104
   101   6 C    3.914 --    91 C    1.320   105 N    1.240   102 C    1.171
   102   6 C    3.958 --   103 C    1.657   101 C    1.171   123 H    0.973
   103   6 C    3.955 --   102 C    1.657   104 C    1.170   124 H    0.975
   104   6 C    3.916 --    64 C    1.361   105 N    1.230   103 C    1.170
   105   7 N    3.243 --   101 C    1.240   104 C    1.230    63 Cu   0.504
   106   1 H    1.001 --    64 C    0.971
   107   1 H    0.997 --    66 C    0.975
   108   1 H    1.004 --    67 C    0.973
   109   1 H    1.007 --    72 C    0.968
   110   1 H    0.873 --    75 O    0.838
   111   1 H    1.005 --    77 C    0.971
   112   1 H    1.002 --    78 C    0.972
   113   1 H    1.005 --    79 C    0.973
   114   1 H    1.004 --    81 C    0.973
   115   1 H    1.002 --    82 C    0.974
   116   1 H    1.002 --    87 C    0.974
   117   1 H    1.004 --    88 C    0.973
   118   1 H    1.005 --    93 C    0.973
   119   1 H    1.002 --    94 C    0.972
   120   1 H    1.005 --    95 C    0.969
   121   1 H    0.873 --    98 O    0.838
   122   1 H    1.008 --   100 C    0.969
   123   1 H    1.004 --   102 C    0.973
   124   1 H    0.997 --   103 C    0.975
   125   6 C    3.927 --   126 C    2.372   129 C    1.333   128 C    0.191
   126   6 C    3.927 --   125 C    2.372   127 C    1.333   130 C    0.191
   127   6 C    3.936 --   128 C    2.453   126 C    1.333
   128   6 C    3.891 --   127 C    2.453    23 C    1.188   125 C    0.191
   129   6 C    3.936 --   130 C    2.453   125 C    1.333
   130   6 C    3.891 --   129 C    2.453    85 C    1.188   126 C    0.191
 ---------------------------------------------------------------------------

           -------------------------------------------------
          | TOTAL ENERGY             -248.986337899303 Eh   |
          | GRADIENT NORM               0.000715053092 Eh/α |
          | HOMO-LUMO GAP               0.002050309290 eV   |
           -------------------------------------------------

 * finished run on 2022/07/30 at 07:37:54.909
