   * xtb version 6.5.1 (b24c23e) compiled by 'conda@728c89f4b128' on 2022-07-12
          program call               : xtb Ni_Ph3OH_C4_3.xyz --gfn 1 --opt -T 48

   ID    Z sym.   atoms
    1   28 Ni     1, 63, 133
    2    6 C      2-6, 8-11, 13, 15, 17-20, 22-27, 29-32, 34, 36, 38-42,
                  64-68, 70-73, 75, 77, 79-82, 84-89, 91-94, 96, 98, 100-104,
                  125-132, 134-138, 140-143, 145, 147, 149-152, 154-159,
                  161-164, 166, 168, 170-174
    3    7 N      7, 21, 28, 43, 69, 83, 90, 105, 139, 153, 160, 175
    4    8 O      12, 14, 16, 33, 35, 37, 74, 76, 78, 95, 97, 99, 144, 146,
                  148, 165, 167, 169
    5    1 H      44-62, 106-124, 176-193

          :  Hamiltonian                  GFN1-xTB          :
 * total energy  :  -384.3562930 Eh     change       -0.1487263E-07 Eh
 * total energy  :  -384.7812268 Eh     change       -0.4249338E+00 Eh
 * total energy  :  -384.9560008 Eh     change       -0.1747740E+00 Eh
 * total energy  :  -385.0570122 Eh     change       -0.1010114E+00 Eh
 * total energy  :  -385.1252243 Eh     change       -0.6821216E-01 Eh
 * total energy  :  -385.1628775 Eh     change       -0.3765314E-01 Eh
 * total energy  :  -385.1865544 Eh     change       -0.2367693E-01 Eh
 * total energy  :  -385.2006115 Eh     change       -0.1405707E-01 Eh
 * total energy  :  -385.2124080 Eh     change       -0.1179652E-01 Eh
 * total energy  :  -385.2219801 Eh     change       -0.9572047E-02 Eh
 * total energy  :  -385.2772758 Eh     change       -0.1618880E-04 Eh
 * total energy  :  -385.2772846 Eh     change       -0.8811721E-05 Eh
 * total energy  :  -385.2772948 Eh     change       -0.1024364E-04 Eh
 * total energy  :  -385.2773047 Eh     change       -0.9852527E-05 Eh
 * total energy  :  -385.2773148 Eh     change       -0.1014605E-04 Eh
 * total energy  :  -385.2773263 Eh     change       -0.1143713E-04 Eh
 * total energy  :  -385.2773402 Eh     change       -0.1392456E-04 Eh
 * total energy  :  -385.2773462 Eh     change       -0.6004632E-05 Eh
 * total energy  :  -385.2773502 Eh     change       -0.4042620E-05 Eh
   *** GEOMETRY OPTIMIZATION CONVERGED AFTER 68 ITERATIONS ***

 final structure:
================
193
 xtb: 6.5.1 (b24c23e)
Ni          33.29315397423228        0.01520738444457       -0.03758082290292
C           29.89786745132630        0.05667427765338       -0.13160844100935
C           30.55767147502184        1.26692023229708       -0.10436705274646
C           29.88219098680888        2.52825544004616       -0.09112438973770
C           30.84147889496798        3.48082916492383       -0.03699491149818
C           32.10339985330806        2.80007301687244       -0.02781673570642
N           31.91858502019954        1.44007512599123       -0.06297897194529
C           33.32805106287243        3.45009485279367        0.04698590582381
C           33.34406745237607        4.93437428033727        0.08441832994630
C           32.87509105549053        5.66593692621013       -1.00638778295006
C           32.89314995093940        7.05555447776137       -0.97264331123391
O           32.44582900895742        7.77698727597747       -2.02913476878233
C           33.37541509033387        7.71728949487201        0.15772869746989
O           33.37803362012400        9.08751716487697        0.16343429299179
C           33.84054966819407        6.98595020853618        1.24761211522180
O           34.29510734921757        7.70534531933538        2.32132547427857
C           33.83000989619903        5.59682274824476        1.21444632176135
C           34.53814960808275        2.77116886290281        0.08654132094925
C           35.81051290882773        3.42603572047546        0.12416358119236
C           36.75214600184835        2.45269273326117        0.12652925016093
N           34.70081561903910        1.40384586763000        0.05449134806761
C           36.05407044856069        1.20780510146438        0.08100946378270
C           36.70844050984878       -0.02608892866649        0.04374838242391
C           36.02738124422602       -1.24407842157036       -0.01718193845791
C           36.69734185865261       -2.50415280076051       -0.07161360313277
C           35.73376221983929       -3.45439080950319       -0.11731401571686
C           34.47626572378324       -2.77097815575412       -0.08100519901222
N           34.66960230038679       -1.40803034975064       -0.03277438747559
C           33.24984456108935       -3.41993572036058       -0.11504894468487
C           33.23131549019212       -4.90396997769897       -0.15517804308936
C           33.74308484094027       -5.64119219236388        0.91225473254760
C           33.72308608378452       -7.03062651500851        0.87217635700013
O           34.21209362731034       -7.75768059676159        1.90605813517070
C           33.19578721285627       -7.68661195324782       -0.24127946035137
O           33.19260854145735       -9.05695484099638       -0.25424580570679
C           32.68744997952401       -6.94974667972327       -1.30770845327865
O           32.19008074224914       -7.66348245025945       -2.36638977662403
C           32.69994083422380       -5.56094580462157       -1.26790830756400
C           32.03908558385582       -2.73957981653473       -0.11921808375770
C           30.76149722645476       -3.39022096909296       -0.11740767621201
C           29.82395915707189       -2.41430953846619       -0.12771400173618
C           30.52881470454086       -1.16938304800786       -0.12427506011165
N           31.88563816671819       -1.37539713813593       -0.10907787362089
H           28.81434809203560        0.06968502420422       -0.15385276509426
H           28.81063911765039        2.64752272498544       -0.11259296734559
H           30.71887704055782        4.55084323242202        0.00273107773879
H           32.51131696670944        5.16234360183137       -1.89265916456834
H           32.53985015738380        8.72016345408801       -1.81610024357894
H           33.74104501164148        9.38234382564130        1.01378761409377
H           34.59561682054216        7.11811320228457        3.02725574126968
H           34.18198300409943        5.03352822153240        2.07067529128300
H           35.95567757448337        4.49385589113308        0.13412990443537
H           37.82527633108909        2.55306776132159        0.14826575196968
H           37.76813344693926       -2.62856622001381       -0.07824662731698
H           35.85389246716291       -4.52353768219143       -0.17805870441995
H           34.14275406821286       -5.14229562107572        1.78557419086764
H           34.10808804413855       -8.69970637311731        1.69275327276610
H           32.79528593445431       -9.34664121542203       -1.09084929886176
H           31.85656537460147       -7.07200972734151       -3.05367543991853
H           32.31453035501890       -4.99329934183114       -2.10665806007649
H           30.61379210127535       -4.45779575706706       -0.10008216680605
H           28.74963464115152       -2.50820079303290       -0.13016477026630
Ni          60.15806958420264       -0.05146656313201       -0.00013947905445
C           63.55391704636496       -0.08481600046444       -0.09710513458097
C           62.89268031561321       -1.28908626132948       -0.21274940718021
C           63.56658461346080       -2.54388577128804       -0.34962313274583
C           62.60598047659010       -3.49457611785253       -0.41354919557982
C           61.34493182831681       -2.81807040247921       -0.32420901453302
N           61.53143294010790       -1.46407130590914       -0.19507565387678
C           60.11951519979742       -3.47098251980010       -0.32705655932112
C           60.10181060123390       -4.94897446128693       -0.46851562317328
C           60.56527645659494       -5.54475323817176       -1.64114348988558
C           60.54383200959154       -6.92831777849243       -1.77480552324039
O           60.98548425652203       -7.51830013726434       -2.91214654649703
C           60.06394625089160       -7.72031401689429       -0.73044143104258
O           60.05741134671969       -9.08136493546346       -0.88971556597422
C           59.60519698536927       -7.12461433418565        0.44157093266630
O           59.15308929604431       -7.96692880688024        1.42317096691870
C           59.61908489994459       -5.74166969153321        0.57578000624168
C           58.91029597254634       -2.80124692877839       -0.20085351490984
C           57.63741392119581       -3.45550070372494       -0.23383428574563
C           56.69701284081410       -2.48962089578797       -0.10475659923092
N           58.74895245060207       -1.44012731057134       -0.06535542387278
C           57.39612815626702       -1.24846490286549       -0.00463192606498
C           56.74288221765715       -0.01868957882038        0.10954414145542
C           57.42503550845871        1.19813500866263        0.18187727064503
C           56.75631739615812        2.45682698281001        0.27342864933968
C           57.72070049632593        3.40604577216140        0.32275337929738
C           58.97741465720668        2.72219849652491        0.27172105514745
N           58.78277687998171        1.36221958481536        0.17194361521046
C           60.20404894325736        3.37030544039640        0.30119537630865
C           60.22437627130952        4.85007904614885        0.42333250016070
C           59.73495853206454        5.46523487866986        1.57511430143154
C           59.75856330427360        6.85063199353694        1.68802822040645
O           59.29273970747825        7.45951261534866        2.80544682268579
C           60.26559188179386        7.62481840578604        0.64308175874966
O           60.27248052443915        8.98804583983014        0.78124527480383
C           60.75058147373787        7.00956834409992       -0.50804536475481
O           61.22825232490355        7.83515097235058       -1.49173335158681
C           60.73612019954246        5.62469765836689       -0.62062567721281
C           61.41427815527686        2.69424383503045        0.21986197552549
C           62.69188163936678        3.34066475984051        0.29222038178508
C           63.62916784957581        2.37098854148836        0.17933712287552
C           62.92390868025333        1.13328963218195        0.04669371534643
N           61.56712317526463        1.33705223184959        0.08228456055007
H           64.63747495075367       -0.09656095371585       -0.11820984346365
H           64.63804341906437       -2.66124064125842       -0.38325901803676
H           62.72707283861576       -4.56173419734964       -0.50344984876930
H           60.92702483942236       -4.93884202034884       -2.46176524460747
H           60.88800946460893       -8.47993731707632       -2.81456193783364
H           59.69465571734825       -9.47511425599948       -0.08031599659483
H           58.85553986432638       -7.46749320333502        2.19486624767578
H           59.27188606100218       -5.28474124971167        1.49501621360064
H           57.49103340611018       -4.51647548280404       -0.35337218655872
H           55.62399280432609       -2.59172822585786       -0.08680423873683
H           55.68566950685927        2.58151812253476        0.29071667984437
H           57.60212491398728        4.47549770719869        0.38142273419191
H           59.35025256614902        4.87318858606261        2.39538476306292
H           59.39313777176042        8.41941636382444        2.69448522686333
H           60.64986247574521        9.36866841027913       -0.02773078795167
H           61.54012775722303        7.32312623859564       -2.24937114608283
H           61.10473353952779        5.15212998204720       -1.52346435302912
H           62.83915343346570        4.40038316871647        0.42331805188657
H           64.70352799602183        2.46408460851212        0.18863709573391
C           39.33557478102567       -0.04344355480606        0.06916603506103
C           38.11415461449523       -0.03956239631250        0.05985333153512
C           40.68580897544521       -0.04284271791392        0.07042645937447
C           41.90738561314880       -0.03674738435691        0.06498939443181
C           52.76561934247613        0.00075352479376        0.14982639469048
C           51.54408198767197        0.00002633633894        0.13804884257563
C           54.11588079923773       -0.00095614793778        0.14925785128180
C           55.33731729962982       -0.00600581409391        0.13666114153236
Ni          46.72625063928588       -0.01248935488976        0.03585469762977
C           43.31218947887744       -0.02941999168644        0.05226712975168
C           43.98021571547762        1.17543789121526        0.29011744118217
C           43.30614815925287        2.40051633149861        0.57757990347885
C           44.25566779094329        3.36716115632120        0.61334512991104
C           45.50677000046699        2.72807286467728        0.34256720087500
N           45.32964171194431        1.37203301615899        0.18543045562314
C           46.71130084053289        3.40736960719810        0.20976963626778
C           46.69783892020993        4.88875229140450        0.26597962255807
C           47.40713001856408        5.56547399432674        1.25872916989383
C           47.39522751280707        6.95614114055875        1.32534334593808
O           48.07209778185990        7.62636091334710        2.29382799515074
C           46.67294167691899        7.68992979892314        0.37865647122522
O           46.64641869461501        9.04745310434421        0.41332561888409
C           45.96949306682264        7.00465292957815       -0.61554265503999
O           45.28642957208172        7.78308217571235       -1.51406336772500
C           45.97017075869989        5.61825001880846       -0.67613329936783
C           47.92471765739966        2.75524616147420        0.03363142505533
C           49.17661827922228        3.42717947639070       -0.13573326473799
C           50.13613848179654        2.47002637230543       -0.14800842936892
N           48.11258219801358        1.39149730267477        0.07069271801563
C           49.46674798442040        1.21745459375383       -0.00408010097748
C           50.13943101640894       -0.00282733679631        0.11085114588055
C           49.46850695394754       -1.22716889753384        0.17580122620953
C           50.13884955430673       -2.48121668449212        0.30553761928314
C           49.19002780418020       -3.44222832597570        0.19440116465629
C           47.94285172696642       -2.77025455528302       -0.00746692070152
N           48.12082661651490       -1.40573466420039        0.02445876898141
C           46.74206632960521       -3.42320829444590       -0.25333493551005
C           46.75604637986390       -4.90002463765027       -0.39695265880288
C           47.49273093508892       -5.48928427159854       -1.42514731318142
C           47.49906599952838       -6.87167520080339       -1.56891272763494
O           48.19604713518903       -7.45653164314699       -2.57120501464945
C           46.77453615125381       -7.66587903333695       -0.67756743384499
O           46.81417970502142       -9.04206676308792       -0.85206447660560
C           46.06952090550899       -7.08026585371040        0.37207827017053
O           45.38990470978032       -7.85348624851954        1.26639894634890
C           46.04456684964530       -5.69580728281625        0.50092103928850
C           45.53128335652391       -2.75268934877745       -0.36184446273002
C           44.28297553412960       -3.39553447284571       -0.63824655500680
C           43.32255257588906       -2.44495112913925       -0.53699342247705
C           43.98803816457078       -1.22298592056758       -0.21663918527428
N           45.34128377731772       -1.40614587816300       -0.14573286489272
H           42.24255632302806        2.49434883827041        0.72666783708608
H           44.12986720169233        4.41904673774615        0.81166540760824
H           47.95970028539583        5.00612574734130        2.00519984483745
H           48.52959637233609        7.01574874264063        2.88659306932389
H           46.09610183844213        9.35883627529721       -0.32335053429469
H           44.83585950486538        7.23643352830575       -2.17080342613509
H           45.42562706034598        5.10999340453241       -1.46315254971666
H           49.29708071635645        4.49364826550738       -0.23375330667354
H           51.20328048423998        2.58642678784491       -0.24732802550984
H           51.20008496802398       -2.59567787673579        0.45672306881154
H           49.31321871752442       -4.51152522249856        0.24760673392606
H           48.04223808640712       -4.88000156894195       -2.13093849793475
H           48.08066955383093       -8.41915794131330       -2.50191221723293
H           45.93595932845098       -9.42833628831667       -0.73896123445998
H           45.69643511569594       -8.77009588486231        1.21861197433288
H           45.49379318574621       -5.25144727844038        1.31976886634884
H           44.16595721926725       -4.43994817375231       -0.87695495777818
H           42.25707135515849       -2.54628148471547       -0.66625262140721

          :  Hamiltonian                  GFN1-xTB          :
         :: total energy            -385.277350234980 Eh    ::
         :: gradient norm              0.000515436705 Eh/a0 ::
         :: HOMO-LUMO gap              1.016701081241 eV    ::
         :: SCC energy              -390.395275197077 Eh    ::
         :: repulsion energy           5.291463581351 Eh    ::

    * Orbital Energies and Occupations

         #    Occupation            Energy/Eh            Energy/eV
      -------------------------------------------------------------
         1        2.0000           -0.8138320             -22.1455
       ...           ...                  ...                  ...
       323        2.0000           -0.3988864             -10.8543
       324        2.0000           -0.3984780             -10.8431
       325        2.0000           -0.3984747             -10.8430
       326        2.0000           -0.3977746             -10.8240
       327        2.0000           -0.3977571             -10.8235
       328        2.0000           -0.3976268             -10.8200
       329        2.0000           -0.3974753             -10.8159
       330        2.0000           -0.3974033             -10.8139
       331        2.0000           -0.3968247             -10.7982
       332        2.0000           -0.3967373             -10.7958
       333        2.0000           -0.3966952             -10.7946
       334        2.0000           -0.3899855             -10.6120
       335        2.0000           -0.3817156             -10.3870 (HOMO)
       336                         -0.3443525              -9.3703 (LUMO)
       337                         -0.3344585              -9.1011
       338                         -0.3312586              -9.0140
       339                         -0.3306538              -8.9975
       340                         -0.3305199              -8.9939
       341                         -0.3298443              -8.9755
       342                         -0.3297620              -8.9733
       343                         -0.3290932              -8.9551
       344                         -0.3259609              -8.8698
       345                         -0.3035706              -8.2606
       346                         -0.2946786              -8.0186
       ...                                ...                  ...
       675                          1.5176281              41.2968
      -------------------------------------------------------------
                  HL-Gap            0.0373631 Eh            1.0167 eV

Wiberg/Mayer (AO) data.
largest (>0.10) Wiberg bond orders for each atom

     #   Z sym  total        # sym  WBO       # sym  WBO       # sym  WBO
 ---------------------------------------------------------------------------
     1  28 Ni   3.004 --     7 N    0.664    43 N    0.663    28 N    0.661
                            21 N    0.661
     2   6 C    3.934 --     3 C    1.364    42 C    1.363    44 H    0.970
     3   6 C    3.924 --     2 C    1.364     7 N    1.214     4 C    1.175
     4   6 C    3.960 --     5 C    1.650     3 C    1.175    45 H    0.975
     5   6 C    3.963 --     4 C    1.650     6 C    1.177    46 H    0.972
     6   6 C    3.919 --     8 C    1.325     7 N    1.221     5 C    1.177
     7   7 N    3.402 --     6 C    1.221     3 C    1.214     1 Ni   0.664
     8   6 C    3.938 --    18 C    1.330     6 C    1.325     9 C    1.022
     9   6 C    3.989 --    10 C    1.400    17 C    1.388     8 C    1.022
    10   6 C    3.978 --     9 C    1.400    11 C    1.379    47 H    0.970
    11   6 C    3.918 --    10 C    1.379    13 C    1.324    12 O    1.053
    12   8 O    2.049 --    11 C    1.053    48 H    0.847
    13   6 C    3.905 --    15 C    1.341    11 C    1.324    14 O    1.021
    14   8 O    2.021 --    13 C    1.021    49 H    0.846
    15   6 C    3.906 --    17 C    1.383    13 C    1.341    16 O    1.014
    16   8 O    2.025 --    15 C    1.014    50 H    0.860
    17   6 C    3.974 --     9 C    1.388    15 C    1.383    51 H    0.970
    18   6 C    3.914 --     8 C    1.330    21 N    1.206    19 C    1.184
    19   6 C    3.959 --    20 C    1.635    18 C    1.184    52 H    0.973
    20   6 C    3.961 --    19 C    1.635    22 C    1.192    53 H    0.973
    21   7 N    3.406 --    22 C    1.240    18 C    1.206     1 Ni   0.661
    22   6 C    3.905 --    23 C    1.263    21 N    1.240    20 C    1.192
    23   6 C    3.943 --    24 C    1.265    22 C    1.263   126 C    1.181
    24   6 C    3.905 --    23 C    1.265    28 N    1.240    25 C    1.191
    25   6 C    3.961 --    26 C    1.637    24 C    1.191    54 H    0.973
    26   6 C    3.959 --    25 C    1.637    27 C    1.183    55 H    0.973
    27   6 C    3.914 --    29 C    1.331    28 N    1.205    26 C    1.183
    28   7 N    3.406 --    24 C    1.240    27 C    1.205     1 Ni   0.661
    29   6 C    3.939 --    27 C    1.331    39 C    1.323    30 C    1.023
    30   6 C    3.989 --    31 C    1.400    38 C    1.388    29 C    1.023
    31   6 C    3.978 --    30 C    1.400    32 C    1.379    56 H    0.970
    32   6 C    3.918 --    31 C    1.379    34 C    1.324    33 O    1.053
    33   8 O    2.049 --    32 C    1.053    57 H    0.848
    34   6 C    3.905 --    36 C    1.341    32 C    1.324    35 O    1.020
    35   8 O    2.021 --    34 C    1.020    58 H    0.846
    36   6 C    3.905 --    38 C    1.383    34 C    1.341    37 O    1.013
    37   8 O    2.025 --    36 C    1.013    59 H    0.861
    38   6 C    3.974 --    30 C    1.388    36 C    1.383    60 H    0.970
    39   6 C    3.919 --    29 C    1.323    43 N    1.222    40 C    1.178
    40   6 C    3.963 --    41 C    1.648    39 C    1.178    61 H    0.973
    41   6 C    3.959 --    40 C    1.648    42 C    1.176    62 H    0.975
    42   6 C    3.924 --     2 C    1.363    43 N    1.214    41 C    1.176
    43   7 N    3.402 --    39 C    1.222    42 C    1.214     1 Ni   0.663
    44   1 H    1.000 --     2 C    0.970
    45   1 H    0.997 --     4 C    0.975
    46   1 H    1.005 --     5 C    0.972
    47   1 H    0.999 --    10 C    0.970
    48   1 H    0.877 --    12 O    0.847
    49   1 H    0.876 --    14 O    0.846
    50   1 H    0.881 --    16 O    0.860
    51   1 H    1.000 --    17 C    0.970
    52   1 H    1.006 --    19 C    0.973
    53   1 H    1.002 --    20 C    0.973
    54   1 H    1.002 --    25 C    0.973
    55   1 H    1.005 --    26 C    0.973
    56   1 H    0.999 --    31 C    0.970
    57   1 H    0.878 --    33 O    0.848
    58   1 H    0.876 --    35 O    0.846
    59   1 H    0.881 --    37 O    0.861
    60   1 H    1.000 --    38 C    0.970
    61   1 H    1.006 --    40 C    0.973
    62   1 H    0.998 --    41 C    0.975
    63  28 Ni   3.004 --    69 N    0.664   105 N    0.663    90 N    0.661
                            83 N    0.661
    64   6 C    3.934 --    65 C    1.364   104 C    1.363   106 H    0.970
    65   6 C    3.924 --    64 C    1.364    69 N    1.214    66 C    1.175
    66   6 C    3.960 --    67 C    1.650    65 C    1.175   107 H    0.975
    67   6 C    3.963 --    66 C    1.650    68 C    1.177   108 H    0.973
    68   6 C    3.919 --    70 C    1.324    69 N    1.221    67 C    1.177
    69   7 N    3.402 --    68 C    1.221    65 C    1.214    63 Ni   0.664
    70   6 C    3.939 --    80 C    1.330    68 C    1.324    71 C    1.022
    71   6 C    3.989 --    72 C    1.400    79 C    1.388    70 C    1.022
    72   6 C    3.978 --    71 C    1.400    73 C    1.379   109 H    0.970
    73   6 C    3.918 --    72 C    1.379    75 C    1.325    74 O    1.053
    74   8 O    2.049 --    73 C    1.053   110 H    0.847
    75   6 C    3.905 --    77 C    1.341    73 C    1.325    76 O    1.021
    76   8 O    2.021 --    75 C    1.021   111 H    0.846
    77   6 C    3.905 --    79 C    1.383    75 C    1.341    78 O    1.014
    78   8 O    2.025 --    77 C    1.014   112 H    0.861
    79   6 C    3.974 --    71 C    1.388    77 C    1.383   113 H    0.970
    80   6 C    3.914 --    70 C    1.330    83 N    1.206    81 C    1.184
    81   6 C    3.959 --    82 C    1.635    80 C    1.184   114 H    0.973
    82   6 C    3.961 --    81 C    1.635    84 C    1.191   115 H    0.973
    83   7 N    3.406 --    84 C    1.240    80 C    1.206    63 Ni   0.661
    84   6 C    3.905 --    85 C    1.263    83 N    1.240    82 C    1.191
    85   6 C    3.943 --    86 C    1.264    84 C    1.263   132 C    1.181
    86   6 C    3.905 --    85 C    1.264    90 N    1.240    87 C    1.190
    87   6 C    3.961 --    88 C    1.637    86 C    1.190   116 H    0.973
    88   6 C    3.959 --    87 C    1.637    89 C    1.183   117 H    0.973
    89   6 C    3.914 --    91 C    1.332    90 N    1.205    88 C    1.183
    90   7 N    3.406 --    86 C    1.240    89 C    1.205    63 Ni   0.661
    91   6 C    3.939 --    89 C    1.332   101 C    1.323    92 C    1.022
    92   6 C    3.989 --    93 C    1.401   100 C    1.388    91 C    1.022
    93   6 C    3.978 --    92 C    1.401    94 C    1.379   118 H    0.970
    94   6 C    3.918 --    93 C    1.379    96 C    1.324    95 O    1.053
    95   8 O    2.049 --    94 C    1.053   119 H    0.847
    96   6 C    3.905 --    98 C    1.341    94 C    1.324    97 O    1.021
    97   8 O    2.021 --    96 C    1.021   120 H    0.846
    98   6 C    3.905 --   100 C    1.383    96 C    1.341    99 O    1.014
    99   8 O    2.025 --    98 C    1.014   121 H    0.861
   100   6 C    3.974 --    92 C    1.388    98 C    1.383   122 H    0.970
   101   6 C    3.919 --    91 C    1.323   105 N    1.222   102 C    1.178
   102   6 C    3.963 --   103 C    1.648   101 C    1.178   123 H    0.973
   103   6 C    3.959 --   102 C    1.648   104 C    1.176   124 H    0.975
   104   6 C    3.924 --    64 C    1.363   105 N    1.214   103 C    1.176
   105   7 N    3.402 --   101 C    1.222   104 C    1.214    63 Ni   0.663
   106   1 H    1.000 --    64 C    0.970
   107   1 H    0.997 --    66 C    0.975
   108   1 H    1.005 --    67 C    0.973
   109   1 H    0.999 --    72 C    0.970
   110   1 H    0.878 --    74 O    0.847
   111   1 H    0.876 --    76 O    0.846
   112   1 H    0.881 --    78 O    0.861
   113   1 H    1.000 --    79 C    0.970
   114   1 H    1.006 --    81 C    0.973
   115   1 H    1.002 --    82 C    0.973
   116   1 H    1.002 --    87 C    0.973
   117   1 H    1.005 --    88 C    0.973
   118   1 H    0.999 --    93 C    0.970
   119   1 H    0.877 --    95 O    0.847
   120   1 H    0.876 --    97 O    0.846
   121   1 H    0.881 --    99 O    0.861
   122   1 H    1.000 --   100 C    0.970
   123   1 H    1.005 --   102 C    0.973
   124   1 H    0.998 --   103 C    0.975
   125   6 C    3.938 --   126 C    2.483   127 C    1.304
   126   6 C    3.926 --   125 C    2.483    23 C    1.181   128 C    0.200
   127   6 C    3.935 --   128 C    2.482   125 C    1.304
   128   6 C    3.927 --   127 C    2.482   134 C    1.184   126 C    0.200
   129   6 C    3.935 --   130 C    2.482   131 C    1.304
   130   6 C    3.927 --   129 C    2.482   155 C    1.184   132 C    0.200
   131   6 C    3.938 --   132 C    2.483   129 C    1.304
   132   6 C    3.926 --   131 C    2.483    85 C    1.181   130 C    0.200
   133  28 Ni   3.003 --   160 N    0.661   175 N    0.660   153 N    0.660
                           139 N    0.660
   134   6 C    3.933 --   174 C    1.262   135 C    1.261   128 C    1.184
   135   6 C    3.905 --   134 C    1.261   139 N    1.239   136 C    1.195
   136   6 C    3.959 --   137 C    1.631   135 C    1.195   176 H    0.973
   137   6 C    3.960 --   136 C    1.631   138 C    1.188   177 H    0.973
   138   6 C    3.913 --   140 C    1.323   139 N    1.206   137 C    1.188
   139   7 N    3.399 --   135 C    1.239   138 C    1.206   133 Ni   0.660
   140   6 C    3.935 --   150 C    1.326   138 C    1.323   141 C    1.028
   141   6 C    3.988 --   142 C    1.392   149 C    1.384   140 C    1.028
   142   6 C    3.975 --   141 C    1.392   143 C    1.380   178 H    0.969
   143   6 C    3.915 --   142 C    1.380   145 C    1.321   144 O    1.044
   144   8 O    2.053 --   143 C    1.044   179 H    0.866
   145   6 C    3.916 --   147 C    1.328   143 C    1.321   146 O    1.051
   146   8 O    2.048 --   145 C    1.051   180 H    0.850
   147   6 C    3.904 --   149 C    1.391   145 C    1.328   148 O    1.013
   148   8 O    2.026 --   147 C    1.013   181 H    0.861
   149   6 C    3.974 --   147 C    1.391   141 C    1.384   182 H    0.969
   150   6 C    3.913 --   140 C    1.326   153 N    1.204   151 C    1.187
   151   6 C    3.960 --   152 C    1.631   150 C    1.187   183 H    0.973
   152   6 C    3.959 --   151 C    1.631   154 C    1.194   184 H    0.973
   153   7 N    3.399 --   154 C    1.240   150 C    1.204   133 Ni   0.660
   154   6 C    3.905 --   155 C    1.260   153 N    1.240   152 C    1.194
   155   6 C    3.933 --   156 C    1.263   154 C    1.260   130 C    1.184
   156   6 C    3.905 --   155 C    1.263   160 N    1.238   157 C    1.193
   157   6 C    3.959 --   158 C    1.633   156 C    1.193   185 H    0.973
   158   6 C    3.960 --   157 C    1.633   159 C    1.186   186 H    0.973
   159   6 C    3.912 --   161 C    1.325   160 N    1.206   158 C    1.186
   160   7 N    3.399 --   156 C    1.238   159 C    1.206   133 Ni   0.661
   161   6 C    3.934 --   171 C    1.327   159 C    1.325   162 C    1.026
   162   6 C    3.989 --   170 C    1.398   163 C    1.397   161 C    1.026
   163   6 C    3.977 --   162 C    1.397   164 C    1.377   187 H    0.970
   164   6 C    3.917 --   163 C    1.377   166 C    1.332   165 O    1.056
   165   8 O    2.052 --   164 C    1.056   188 H    0.847
   166   6 C    3.888 --   168 C    1.347   164 C    1.332   167 O    0.979
   167   8 O    1.982 --   166 C    0.979   189 H    0.863
   168   6 C    3.910 --   170 C    1.378   166 C    1.347   169 O    1.029
   169   8 O    2.031 --   168 C    1.029   190 H    0.862
   170   6 C    3.976 --   162 C    1.398   168 C    1.378   191 H    0.970
   171   6 C    3.913 --   161 C    1.327   175 N    1.204   172 C    1.186
   172   6 C    3.960 --   173 C    1.633   171 C    1.186   192 H    0.973
   173   6 C    3.960 --   172 C    1.633   174 C    1.193   193 H    0.973
   174   6 C    3.905 --   134 C    1.262   175 N    1.240   173 C    1.193
   175   7 N    3.399 --   174 C    1.240   171 C    1.204   133 Ni   0.660
   176   1 H    1.002 --   136 C    0.973
   177   1 H    1.005 --   137 C    0.973
   178   1 H    1.001 --   142 C    0.969
   179   1 H    0.886 --   144 O    0.866
   180   1 H    0.881 --   146 O    0.850
   181   1 H    0.881 --   148 O    0.861
   182   1 H    1.001 --   149 C    0.969
   183   1 H    1.005 --   151 C    0.973
   184   1 H    1.002 --   152 C    0.973
   185   1 H    1.002 --   157 C    0.973
   186   1 H    1.005 --   158 C    0.973
   187   1 H    0.999 --   163 C    0.970
   188   1 H    0.881 --   165 O    0.847
   189   1 H    0.884 --   167 O    0.863
   190   1 H    0.885 --   169 O    0.862
   191   1 H    1.000 --   170 C    0.970
   192   1 H    1.005 --   172 C    0.973
   193   1 H    1.002 --   173 C    0.973
 ---------------------------------------------------------------------------

           -------------------------------------------------
          | TOTAL ENERGY             -385.277350234980 Eh   |
          | GRADIENT NORM               0.000515436705 Eh/α |
          | HOMO-LUMO GAP               1.016701081241 eV   |
           -------------------------------------------------

 * finished run on 2022/07/30 at 06:31:18.734
