   * xtb version 6.5.1 (b24c23e) compiled by 'conda@728c89f4b128' on 2022-07-12
          program call               : xtb Ni_PhOH_C6_2.xyz --gfn 1 --opt -T 48

   ID    Z sym.   atoms
    1   28 Ni     1, 59
    2    6 C      2-6, 8-12, 14-18, 20-25, 27-31, 33-38, 60-64, 66-70, 72-76,
                  78-83, 85-89, 91-96, 117-122
    3    7 N      7, 19, 26, 39, 65, 77, 84, 97
    4    8 O      13, 32, 71, 90
    5    1 H      40-58, 98-116
########################################################################
[WARNING] Please study the warnings concerning your input carefully
-1- prog_main_parseArguments: Unknown option '-T' provided
########################################################################

          :  Hamiltonian                  GFN1-xTB          :
 * total energy  :  -220.7565553 Eh     change       -0.7838139E-09 Eh
 * total energy  :  -220.8687044 Eh     change       -0.1121490E+00 Eh
 * total energy  :  -220.9206587 Eh     change       -0.5195438E-01 Eh
 * total energy  :  -220.9343125 Eh     change       -0.1365379E-01 Eh
 * total energy  :  -220.9409056 Eh     change       -0.6593059E-02 Eh
 * total energy  :  -220.9440115 Eh     change       -0.3105884E-02 Eh
 * total energy  :  -220.9456923 Eh     change       -0.1680823E-02 Eh
 * total energy  :  -220.9463944 Eh     change       -0.7020829E-03 Eh
 * total energy  :  -220.9468386 Eh     change       -0.4442374E-03 Eh
 * total energy  :  -220.9470597 Eh     change       -0.2210713E-03 Eh
 * total energy  :  -220.9481151 Eh     change       -0.1291144E-04 Eh
 * total energy  :  -220.9481152 Eh     change       -0.9000641E-07 Eh
 * total energy  :  -220.9481332 Eh     change       -0.1805903E-04 Eh
 * total energy  :  -220.9481375 Eh     change       -0.4235566E-05 Eh
 * total energy  :  -220.9481502 Eh     change       -0.1277069E-04 Eh
 * total energy  :  -220.9481583 Eh     change       -0.8048433E-05 Eh
 * total energy  :  -220.9481659 Eh     change       -0.7631709E-05 Eh
 * total energy  :  -220.9481719 Eh     change       -0.5989998E-05 Eh
 * total energy  :  -220.9481762 Eh     change       -0.4279972E-05 Eh
   *** GEOMETRY OPTIMIZATION CONVERGED AFTER 31 ITERATIONS ***

 final structure:
================
122
 xtb: 6.5.1 (b24c23e)
Ni          14.29414396914696       -0.02911784694436       -0.05537697786833
C           10.90527994753673       -0.08106246374492       -0.21313011377586
C           11.57239200319162       -1.28810782021104       -0.22882035940779
C           10.90769770432098       -2.55409558589510       -0.28299289346080
C           11.86561815340824       -3.50100326559957       -0.15003510382533
C           13.11775593715772       -2.81282400899700       -0.03319027420316
N           12.92848752512043       -1.45462322604952       -0.09670617649520
C           14.33215102437906       -3.44880119947720        0.18978164174745
C           14.35122963433508       -4.92716158246219        0.32092889420648
C           14.01532037286428       -5.74056681707869       -0.76074457339757
C           14.03824886679399       -7.12178055813552       -0.64073432096999
C           14.39420171655101       -7.70413789309325        0.57338699265446
O           14.42658904768801       -9.05210383936082        0.73556474225364
C           14.72996473131616       -6.90164725315306        1.66219335772038
C           14.71075594491931       -5.52431644060588        1.53098560732960
C           15.53406131529170       -2.76042989878794        0.28081727491723
C           16.80304244731222       -3.40317753027122        0.44166413000490
C           17.74625885302156       -2.43491273886709        0.35662874804300
N           15.69987263788996       -1.40306803732203        0.11690853938940
C           17.05257943832316       -1.20454529914329        0.14597340694644
C           17.70673197211225        0.01430749817113       -0.05524693204615
C           17.02073062656931        1.22117216867637       -0.21538407633187
C           17.67996434886432        2.47297580517513       -0.40855023334397
C           16.71422051099143        3.42310814275594       -0.41774108311710
C           15.46669008290961        2.74723978793529       -0.22857111904023
N           15.66517226436096        1.38793205935279       -0.13811867740945
C           14.24389443722330        3.39941859467604       -0.13680878069507
C           14.22869737919994        4.88194461463140       -0.15277262032929
C           14.87475737315441        5.60698061495145        0.85150077133202
C           14.86346088625624        6.99041048398584        0.84554104718167
C           14.20755015230363        7.67175047827153       -0.17820492201954
O           14.21911010802958        9.02939463439370       -0.15593280487888
C           13.56362853322279        6.96210502042685       -1.18913747058558
C           13.57385264591350        5.57591602658656       -1.17050215915670
C           13.03688990974816        2.71737855985208       -0.04972782527211
C           11.75941444104080        3.36110852922899        0.04498106502782
C           10.82325305051421        2.38448318485527       -0.00376419447626
C           11.52938621989362        1.14424861260955       -0.10391913169812
N           12.88562214052976        1.35379249428725       -0.10219018813552
H            9.82279290863362       -0.09767884636398       -0.26431520746172
H            9.84211710521220       -2.68081149025780       -0.39034472060856
H           11.74621586635862       -4.57184319588748       -0.12058921734750
H           13.74999601306850       -5.28805882716913       -1.70975231586594
H           13.78261555457487       -7.75058256339897       -1.48685612789002
H           14.17838935416760       -9.51092861149327       -0.07816507718460
H           15.00237249010260       -7.36834810184273        2.60070557725383
H           14.96340679686064       -4.89893740737286        2.37988643461376
H           16.94504291847529       -4.46234524941506        0.58083179347852
H           18.81804427233887       -2.53075132162739        0.42122930326784
H           18.74570715939468        2.59315918007394       -0.51811107058087
H           16.82554043026992        4.48681111762780       -0.55062475738577
H           15.37644884398835        5.07647124306145        1.65304433027562
H           15.35739985737438        7.55516551838642        1.62650265142740
H           13.73778758636520        9.39832067960454       -0.90862677430850
H           13.05915625851267        7.49670970263609       -1.98687931543631
H           13.08366012895711        5.02484368793741       -1.96538291604034
H           11.61048119216563        4.42456161112287        0.13849142603941
H            9.74921771265298        2.47520647878977        0.03209744529245
Ni          30.29321722376298        0.02031858770765       -0.05973172134297
C           33.68221561920546        0.04950353137458       -0.22136565606543
C           33.01502473146773        1.24168054446645       -0.41062059732633
C           33.67966126688849        2.48687508623692       -0.64563355733254
C           32.72160541342516        3.44292313022890       -0.65050916681586
C           31.46945700588831        2.77847290707268       -0.43668547706511
N           31.65883957043161        1.42524485685825       -0.30455548195733
C           30.25495330825191        3.43973179196477       -0.30762442494697
C           30.23594607623263        4.92165166387491       -0.38948693703143
C           30.57171843205432        5.57179928722200       -1.57652237213119
C           30.54920980604428        6.95597578271782       -1.65538179532860
C           30.19388137587391        7.70617901633570       -0.53695546723308
O           30.16202742332193        9.06349521402315       -0.56928010155483
C           29.85822397219556        7.06784820850175        0.65556093411917
C           29.87695754354392        5.68590393384806        0.72276973031665
C           29.05304261555467        2.77141926745060       -0.11926036934594
C           27.78399070117880        3.43046272624274       -0.05233007565849
C           26.84085224732003        2.45990837559309        0.00188200235224
N           28.88735981838946        1.40456000813334       -0.08700630595342
C           27.53466628571781        1.21210218452520       -0.03001459993092
C           26.88061743182192       -0.02306479705151       -0.05456284872546
C           27.56673800853454       -1.24035535917624       -0.04002394311472
C           26.90773784010103       -2.50703705952071       -0.05204017341107
C           27.87356441001226       -3.44848293696979        0.07583753051329
C           29.12093494188658       -2.75225241756359        0.16649358486854
N           28.92229799784968       -1.39407063733772        0.06079788484456
C           30.34368408661323       -3.38432025108756        0.35169069477982
C           30.35889751670672       -4.85376029555901        0.54910347998384
C           29.71381902601838       -5.42663724482134        1.64785620183091
C           29.72527398890207       -6.79652425316516        1.84107677248097
C           30.38021933185928       -7.61813523774684        0.92539261299602
O           30.36875655693791       -8.95844868261628        1.14280917410663
C           31.02310947444060       -7.06141613361321       -0.17777072016933
C           31.01286691432621       -5.68696754406925       -0.35877006825533
C           31.55062090517708       -2.69677476091386        0.34061845435659
C           32.82803982512680       -3.32015634852551        0.52737390757674
C           33.76420664700588       -2.36050222845929        0.33968692141092
C           33.05810698058922       -1.14753859182553        0.06219700613988
N           31.70188221727593       -1.35482029575808        0.09309618993468
H           34.76473255131457        0.05877635106597       -0.27373091004585
H           34.74529356453918        2.59703226640161       -0.76947229032762
H           32.84091930174713        4.50691046639894       -0.77506785881597
H           30.83663644073739        4.98805032244505       -2.45106824089154
H           30.80474685351895        7.45715766979560       -2.58284260119284
H           30.41030583792482        9.40109611670537       -1.44029428716391
H           29.58632542398741        7.66412701208734        1.51773599235291
H           29.62441585893445        5.18851756898611        1.65250002043715
H           27.64194062722147        4.49863942858289       -0.06626167024322
H           25.76903789676856        2.56385839926183        0.05184788376237
H           25.84206779767568       -2.64191713372679       -0.14371619949027
H           27.76244670820934       -4.52026595754688        0.09711591142050
H           29.21279352721084       -4.78625647170767        2.36513473814177
H           29.23219513410453       -7.24297368258125        2.69569659437925
H           30.84931968084484       -9.43187371804406        0.45053400934381
H           31.52681518399259       -7.70530317826115       -0.89077016944517
H           31.50235366451827       -5.25599463229099       -1.22506355476159
H           32.97689279511550       -4.35922277846703        0.77241647319455
H           34.83821938648224       -2.44501901853466        0.38889460556743
C           22.90752827305598       -0.01745526081261       -0.09319394883504
C           21.67979618170696        0.00067490377266       -0.09411291824082
C           20.33483739432010        0.01185701189588       -0.08698165215412
C           19.11155110604766        0.02461780881705       -0.07751245162487
C           24.25249655939618       -0.02834728967784       -0.08669803394468
C           25.47581690972131       -0.03659984329978       -0.07496833168792

          :  Hamiltonian                  GFN1-xTB          :
         :: total energy            -220.948176196936 Eh    ::
         :: gradient norm              0.000353477357 Eh/a0 ::
         :: HOMO-LUMO gap              1.193508132447 eV    ::
         :: SCC energy              -224.342550524703 Eh    ::
         :: repulsion energy           3.502236632498 Eh    ::

    * Orbital Energies and Occupations

         #    Occupation            Energy/Eh            Energy/eV
      -------------------------------------------------------------
         1        2.0000           -0.8056447             -21.9227
       ...           ...                  ...                  ...
       189        2.0000           -0.4127925             -11.2327
       190        2.0000           -0.3971877             -10.8080
       191        2.0000           -0.3971473             -10.8069
       192        2.0000           -0.3967598             -10.7964
       193        2.0000           -0.3967518             -10.7962
       194        2.0000           -0.3959121             -10.7733
       195        2.0000           -0.3959109             -10.7733
       196        2.0000           -0.3948472             -10.7443
       197        2.0000           -0.3948454             -10.7443
       198        2.0000           -0.3948125             -10.7434
       199        2.0000           -0.3948113             -10.7434
       200        2.0000           -0.3921836             -10.6719
       201        2.0000           -0.3822957             -10.4028 (HOMO)
       202                         -0.3384350              -9.2093 (LUMO)
       203                         -0.3280355              -8.9263
       204                         -0.3280289              -8.9261
       205                         -0.3270254              -8.8988
       206                         -0.3266826              -8.8895
       207                         -0.3266478              -8.8885
       208                         -0.2987520              -8.1295
       209                         -0.2909085              -7.9160
       210                         -0.2839697              -7.7272
       211                         -0.2677227              -7.2851
       212                         -0.2677140              -7.2849
       ...                                ...                  ...
       422                          1.5814318              43.0329
      -------------------------------------------------------------
                  HL-Gap            0.0438606 Eh            1.1935 eV

Wiberg/Mayer (AO) data.
largest (>0.10) Wiberg bond orders for each atom

     #   Z sym  total        # sym  WBO       # sym  WBO       # sym  WBO
 ---------------------------------------------------------------------------
     1  28 Ni   3.013 --     7 N    0.664    39 N    0.664    19 N    0.662
                            26 N    0.662
     2   6 C    3.933 --     3 C    1.364    38 C    1.362    40 H    0.970
     3   6 C    3.924 --     2 C    1.364     7 N    1.213     4 C    1.175
     4   6 C    3.959 --     5 C    1.648     3 C    1.175    41 H    0.975
     5   6 C    3.963 --     4 C    1.648     6 C    1.178    42 H    0.973
     6   6 C    3.919 --     8 C    1.323     7 N    1.221     5 C    1.178
     7   7 N    3.402 --     6 C    1.221     3 C    1.213     1 Ni   0.664
     8   6 C    3.939 --    16 C    1.331     6 C    1.323     9 C    1.021
     9   6 C    3.989 --    10 C    1.396    15 C    1.386     8 C    1.021
    10   6 C    3.989 --    11 C    1.451     9 C    1.396    43 H    0.973
                            14 C    0.106
    11   6 C    3.988 --    10 C    1.451    12 C    1.373    44 H    0.970
                            15 C    0.103
    12   6 C    3.902 --    11 C    1.373    14 C    1.365    13 O    1.040
    13   8 O    2.044 --    12 C    1.040    45 H    0.865
    14   6 C    3.990 --    15 C    1.466    12 C    1.365    46 H    0.971
                            10 C    0.106
    15   6 C    3.989 --    14 C    1.466     9 C    1.386    47 H    0.973
                            11 C    0.103
    16   6 C    3.914 --     8 C    1.331    19 N    1.204    17 C    1.184
    17   6 C    3.959 --    18 C    1.636    16 C    1.184    48 H    0.973
    18   6 C    3.961 --    17 C    1.636    20 C    1.192    49 H    0.973
    19   7 N    3.407 --    20 C    1.240    16 C    1.204     1 Ni   0.662
    20   6 C    3.904 --    21 C    1.262    19 N    1.240    18 C    1.192
    21   6 C    3.943 --    22 C    1.263    20 C    1.262   120 C    1.184
    22   6 C    3.904 --    21 C    1.263    26 N    1.238    23 C    1.192
    23   6 C    3.961 --    24 C    1.634    22 C    1.192    50 H    0.973
    24   6 C    3.959 --    23 C    1.634    25 C    1.185    51 H    0.973
    25   6 C    3.914 --    27 C    1.327    26 N    1.206    24 C    1.185
    26   7 N    3.406 --    22 C    1.238    25 C    1.206     1 Ni   0.662
    27   6 C    3.939 --    25 C    1.327    35 C    1.323    28 C    1.027
    28   6 C    3.989 --    34 C    1.394    29 C    1.383    27 C    1.027
    29   6 C    3.988 --    30 C    1.467    28 C    1.383    52 H    0.973
                            33 C    0.102
    30   6 C    3.990 --    29 C    1.467    31 C    1.364    53 H    0.971
                            34 C    0.105
    31   6 C    3.901 --    33 C    1.372    30 C    1.364    32 O    1.041
    32   8 O    2.044 --    31 C    1.041    54 H    0.865
    33   6 C    3.988 --    34 C    1.452    31 C    1.372    55 H    0.970
                            29 C    0.102
    34   6 C    3.988 --    33 C    1.452    28 C    1.394    56 H    0.973
                            30 C    0.105
    35   6 C    3.919 --    27 C    1.323    39 N    1.220    36 C    1.178
    36   6 C    3.963 --    37 C    1.647    35 C    1.178    57 H    0.973
    37   6 C    3.959 --    36 C    1.647    38 C    1.176    58 H    0.975
    38   6 C    3.924 --     2 C    1.362    39 N    1.214    37 C    1.176
    39   7 N    3.402 --    35 C    1.220    38 C    1.214     1 Ni   0.664
    40   1 H    1.000 --     2 C    0.970
    41   1 H    0.998 --     4 C    0.975
    42   1 H    1.005 --     5 C    0.973
    43   1 H    1.004 --    10 C    0.973
    44   1 H    0.999 --    11 C    0.970
    45   1 H    0.887 --    13 O    0.865
    46   1 H    0.999 --    14 C    0.971
    47   1 H    1.004 --    15 C    0.973
    48   1 H    1.005 --    17 C    0.973
    49   1 H    1.002 --    18 C    0.973
    50   1 H    1.002 --    23 C    0.973
    51   1 H    1.005 --    24 C    0.973
    52   1 H    1.005 --    29 C    0.973
    53   1 H    0.999 --    30 C    0.971
    54   1 H    0.887 --    32 O    0.865
    55   1 H    0.999 --    33 C    0.970
    56   1 H    1.005 --    34 C    0.973
    57   1 H    1.005 --    36 C    0.973
    58   1 H    0.998 --    37 C    0.975
    59  28 Ni   3.013 --    65 N    0.664    97 N    0.664    77 N    0.662
                            84 N    0.662
    60   6 C    3.933 --    61 C    1.364    96 C    1.362    98 H    0.970
    61   6 C    3.924 --    60 C    1.364    65 N    1.213    62 C    1.175
    62   6 C    3.959 --    63 C    1.648    61 C    1.175    99 H    0.975
    63   6 C    3.963 --    62 C    1.648    64 C    1.178   100 H    0.973
    64   6 C    3.919 --    66 C    1.323    65 N    1.221    63 C    1.178
    65   7 N    3.402 --    64 C    1.221    61 C    1.213    59 Ni   0.664
    66   6 C    3.939 --    74 C    1.331    64 C    1.323    67 C    1.021
    67   6 C    3.989 --    68 C    1.396    73 C    1.386    66 C    1.021
    68   6 C    3.989 --    69 C    1.451    67 C    1.396   101 H    0.973
                            72 C    0.106
    69   6 C    3.988 --    68 C    1.451    70 C    1.373   102 H    0.970
                            73 C    0.103
    70   6 C    3.902 --    69 C    1.373    72 C    1.365    71 O    1.040
    71   8 O    2.044 --    70 C    1.040   103 H    0.865
    72   6 C    3.990 --    73 C    1.466    70 C    1.365   104 H    0.971
                            68 C    0.106
    73   6 C    3.989 --    72 C    1.466    67 C    1.386   105 H    0.973
                            69 C    0.103
    74   6 C    3.914 --    66 C    1.331    77 N    1.204    75 C    1.184
    75   6 C    3.959 --    76 C    1.636    74 C    1.184   106 H    0.973
    76   6 C    3.961 --    75 C    1.636    78 C    1.192   107 H    0.973
    77   7 N    3.407 --    78 C    1.240    74 C    1.204    59 Ni   0.662
    78   6 C    3.904 --    79 C    1.262    77 N    1.240    76 C    1.192
    79   6 C    3.943 --    80 C    1.263    78 C    1.262   122 C    1.184
    80   6 C    3.904 --    79 C    1.263    84 N    1.238    81 C    1.192
    81   6 C    3.961 --    82 C    1.634    80 C    1.192   108 H    0.973
    82   6 C    3.959 --    81 C    1.634    83 C    1.185   109 H    0.973
    83   6 C    3.914 --    85 C    1.327    84 N    1.206    82 C    1.185
    84   7 N    3.407 --    80 C    1.238    83 C    1.206    59 Ni   0.662
    85   6 C    3.939 --    83 C    1.327    93 C    1.323    86 C    1.027
    86   6 C    3.989 --    92 C    1.394    87 C    1.383    85 C    1.027
    87   6 C    3.988 --    88 C    1.467    86 C    1.383   110 H    0.973
                            91 C    0.102
    88   6 C    3.990 --    87 C    1.467    89 C    1.364   111 H    0.971
                            92 C    0.105
    89   6 C    3.901 --    91 C    1.372    88 C    1.364    90 O    1.041
    90   8 O    2.044 --    89 C    1.041   112 H    0.865
    91   6 C    3.988 --    92 C    1.452    89 C    1.372   113 H    0.970
                            87 C    0.102
    92   6 C    3.988 --    91 C    1.452    86 C    1.394   114 H    0.973
                            88 C    0.105
    93   6 C    3.919 --    85 C    1.323    97 N    1.220    94 C    1.178
    94   6 C    3.963 --    95 C    1.647    93 C    1.178   115 H    0.973
    95   6 C    3.959 --    94 C    1.647    96 C    1.176   116 H    0.975
    96   6 C    3.924 --    60 C    1.362    97 N    1.214    95 C    1.176
    97   7 N    3.402 --    93 C    1.220    96 C    1.214    59 Ni   0.664
    98   1 H    1.000 --    60 C    0.970
    99   1 H    0.998 --    62 C    0.975
   100   1 H    1.005 --    63 C    0.973
   101   1 H    1.004 --    68 C    0.973
   102   1 H    0.999 --    69 C    0.970
   103   1 H    0.887 --    71 O    0.865
   104   1 H    0.999 --    72 C    0.971
   105   1 H    1.004 --    73 C    0.973
   106   1 H    1.005 --    75 C    0.973
   107   1 H    1.002 --    76 C    0.973
   108   1 H    1.002 --    81 C    0.973
   109   1 H    1.005 --    82 C    0.973
   110   1 H    1.005 --    87 C    0.973
   111   1 H    0.999 --    88 C    0.971
   112   1 H    0.887 --    90 O    0.865
   113   1 H    0.999 --    91 C    0.970
   114   1 H    1.005 --    92 C    0.973
   115   1 H    1.005 --    94 C    0.973
   116   1 H    0.998 --    95 C    0.975
   117   6 C    3.928 --   118 C    2.375   121 C    1.331   120 C    0.191
   118   6 C    3.928 --   117 C    2.375   119 C    1.331   122 C    0.191
   119   6 C    3.937 --   120 C    2.456   118 C    1.331
   120   6 C    3.892 --   119 C    2.456    21 C    1.184   117 C    0.191
   121   6 C    3.937 --   122 C    2.456   117 C    1.331
   122   6 C    3.892 --   121 C    2.456    79 C    1.184   118 C    0.191
 ---------------------------------------------------------------------------

           -------------------------------------------------
          | TOTAL ENERGY             -220.948176196936 Eh   |
          | GRADIENT NORM               0.000353477357 Eh/α |
          | HOMO-LUMO GAP               1.193508132447 eV   |
           -------------------------------------------------

 * finished run on 2022/07/30 at 06:06:50.538
