   * xtb version 6.5.1 (b24c23e) compiled by 'conda@728c89f4b128' on 2022-07-12
          program call               : xtb Cu_Ph2Me_C2_3.xyz --gfn 1 --opt -T 48

   ID    Z sym.   atoms
    1   29 Cu     1, 69, 141
    2    6 C      2-6, 8-11, 13-31, 34-41, 70-74, 76-79, 81-99, 102-109,
                  137-140, 142-146, 148-151, 153-171, 174-181
    3    7 N      7, 12, 32, 33, 75, 80, 100, 101, 147, 152, 172, 173
    4    1 H      42-68, 110-136, 182-207
########################################################################
[WARNING] Please study the warnings concerning your input carefully
-1- prog_main_parseArguments: Unknown option '-T' provided
########################################################################

          :  Hamiltonian                  GFN1-xTB          :
 * total energy  :  -330.9269412 Eh     change        0.9214318E-09 Eh
 * total energy  :  -331.5137444 Eh     change       -0.5868032E+00 Eh
 * total energy  :  -331.6582629 Eh     change       -0.1445184E+00 Eh
 * total energy  :  -331.7239131 Eh     change       -0.6565023E-01 Eh
 * total energy  :  -331.7432320 Eh     change       -0.1931895E-01 Eh
 * total energy  :  -331.7516336 Eh     change       -0.8401511E-02 Eh
 * total energy  :  -331.7557055 Eh     change       -0.4071958E-02 Eh
 * total energy  :  -331.7581551 Eh     change       -0.2449603E-02 Eh
 * total energy  :  -331.7595233 Eh     change       -0.1368150E-02 Eh
 * total energy  :  -331.7604009 Eh     change       -0.8776027E-03 Eh
 * total energy  :  -331.7673377 Eh     change       -0.2580732E-04 Eh
 * total energy  :  -331.7673560 Eh     change       -0.1829598E-04 Eh
 * total energy  :  -331.7673725 Eh     change       -0.1645362E-04 Eh
 * total energy  :  -331.7673900 Eh     change       -0.1755137E-04 Eh
 * total energy  :  -331.7674067 Eh     change       -0.1669079E-04 Eh
 * total energy  :  -331.7674206 Eh     change       -0.1391746E-04 Eh
 * total energy  :  -331.7674334 Eh     change       -0.1276270E-04 Eh
 * total energy  :  -331.7674455 Eh     change       -0.1208921E-04 Eh
 * total energy  :  -331.7674503 Eh     change       -0.4835491E-05 Eh
   *** GEOMETRY OPTIMIZATION CONVERGED AFTER 68 ITERATIONS ***

 final structure:
================
207
 xtb: 6.5.1 (b24c23e)
Cu          33.50737072095864        0.05170489859495       -0.10262024852950
C           30.10577914486319        0.16631703299517       -0.30029974011909
C           30.75079891368139        1.34217877330591        0.05262620208288
C           30.08759105982843        2.57708634107619        0.36036098739375
C           31.05207195196954        3.47286817405673        0.68654891367127
C           32.31475724897138        2.79498412372123        0.57247458376337
N           32.10013329727600        1.50202916813459        0.18956455962356
C           33.55866853248993        3.36364053270926        0.85131457674603
C           34.78269492778752        2.69831868315974        0.76690810351728
C           36.05999331974524        3.29725836115895        1.02977908694807
C           36.99929573959410        2.34331387921095        0.80808143776654
N           34.96564599786894        1.39542404742034        0.38512183558200
C           36.30662739096550        1.15893816361988        0.39835264311895
C           36.93607257643860       -0.04913729500855        0.05179519898556
C           36.26865945821772       -1.22583941546882       -0.32892442515922
C           36.92425019518497       -2.44027270409547       -0.71045223648069
C           35.95287740154482       -3.34240794015453       -1.00098528511928
C           34.69358439935097       -2.68412334320015       -0.79952498247792
C           33.44501881498366       -3.27312107313809       -1.00973221169683
C           33.42154465368887       -4.70933913378819       -1.38622971673146
C           32.89998720940730       -5.10998114413570       -2.61426263758186
C           32.87726676752297       -6.45620239943285       -2.96777469417312
C           32.29983367188683       -6.87532353196981       -4.29296152789270
C           33.37601183142836       -7.40250368469033       -2.07967210995176
C           33.89913507531966       -7.01791357881269       -0.84724023097737
C           34.44852071901525       -8.05446364858935        0.09548729521428
C           33.92203560312620       -5.67074392958551       -0.50774076385579
C           32.21858378784631       -2.61560029286058       -0.89472744072817
C           30.93047909398931       -3.22737227673373       -1.07832020946638
C           29.99874725894593       -2.26024232247892       -0.88934364864689
C           30.70740691058496       -1.05247600192253       -0.57604911140187
N           32.05105463835989       -1.29721298971455       -0.58089709305374
N           34.91874253145003       -1.39320667474569       -0.40061470333669
C           33.58091476261521        4.78913303457769        1.27005424421054
C           33.17998598811238        5.78727976482279        0.38356828973267
C           33.19904223624695        7.12330845890681        0.76915342456302
C           32.79181907321824        8.20002345120795       -0.20030397687964
C           33.61892951413652        7.45656163439558        2.05362112151372
C           34.02011256985882        6.47107720021659        2.95036156140252
C           34.44725756538011        6.83899073037866        4.34573015016220
C           34.00108316220879        5.13847362655947        2.55204934787604
H           29.02236126243101        0.19966710277510       -0.35243500209188
H           29.01918315493342        2.72363170150229        0.33345210431232
H           30.92744996474589        4.50040863932640        0.98850236809925
H           36.21477265210967        4.31908026620741        1.33632018668598
H           38.06846932377307        2.42675805574884        0.91520849327084
H           37.99259240893974       -2.57554797007026       -0.75804300511880
H           36.07418910162937       -4.35879736078958       -1.33915763012258
H           32.52525335067583       -4.36249813860834       -3.30504089311709
H           32.60726051618627       -7.88885158018540       -4.55026835694142
H           31.20876107089809       -6.84834382526112       -4.24894963291388
H           32.62151464404851       -6.19752942393239       -5.08456327922570
H           33.35860038393410       -8.45377547204613       -2.34840478922798
H           34.56292394474951       -7.64706044933379        1.09989233182858
H           33.78939453185671       -8.92235021996459        0.14005832335365
H           35.42755450708182       -8.39213319919230       -0.25157146739820
H           34.31605970877975       -5.35896683874218        0.45342221423947
H           30.76681492291855       -4.26732810777321       -1.31108358019728
H           28.92479255011990       -2.34511802460035       -0.94534101729766
H           32.86559290290941        5.51554034528000       -0.61823432729112
H           32.31935669013436        9.03296267722712        0.32103940450067
H           32.09822470821861        7.81032840009887       -0.94558267149517
H           33.67243089609563        8.58222294846364       -0.72176341673715
H           33.63348851177503        8.49775336617993        2.35927121035673
H           33.58016957099127        6.84119707016361        5.01033288024467
H           34.89284095234064        7.83376869216389        4.36644469650806
H           35.16929031564322        6.11986496561718        4.73309483543141
H           34.30072305469228        4.36025914958660        3.24548430076722
Cu          55.30681780715081        0.02865804777465       -0.08208943804465
C           58.70480126329188        0.18025218950637       -0.23785863724081
C           58.06299678984002       -0.50173161796429       -1.26083890609810
C           58.72999096971596       -1.16117485840272       -2.34710601447402
C           57.76805754584181       -1.73471710034254       -3.11179464211100
C           56.50275940663236       -1.42468482538768       -2.50328145688910
N           56.71379949206279       -0.67663210927223       -1.38044069025600
C           55.26061644168978       -1.85918046965718       -2.96971768350874
C           54.03584274419710       -1.59138344571666       -2.35532168305856
C           52.75611137381608       -2.00630308795076       -2.85762324487137
C           51.81710617248431       -1.51816486199384       -2.00846721698342
N           53.85550142360629       -0.85695179927716       -1.21415740209707
C           52.51394405114012       -0.79518854504268       -0.98634015324206
C           51.88722129137643       -0.09107650884421        0.05205855805243
C           52.54481439476207        0.64485057809093        1.04826053316909
C           51.88093279334338        1.36400842403087        2.09449306966943
C           52.84808065400684        1.90891792980101        2.87499381478911
C           54.11174642383867        1.52388385510123        2.31190570090483
C           55.35880906876869        1.88860513420910        2.82420166245253
C           55.37655840748803        2.66605286550207        4.08922326344532
C           55.90931706036649        3.95283518880787        4.12191022750521
C           55.92445838595683        4.68231074326833        5.30735833075941
C           56.51607374527401        6.06598854971601        5.33121858147564
C           55.40505459284584        4.11315399664184        6.46466674538082
C           54.86995563456683        2.82720293870624        6.44870912965481
C           54.29581524632778        2.23385488269351        7.70704955655949
C           54.85674259467793        2.11000413147126        5.25860516181016
C           56.58687954315857        1.57653775210683        2.23720039929558
C           57.87437568769695        1.93007764642092        2.77105526606737
C           58.80780378144939        1.46097082147600        1.90634817480100
C           58.10129951346708        0.80408140217826        0.84393208175380
N           56.75727959849820        0.88245067541871        1.07339156350381
N           53.89403246769271        0.76656277570456        1.19263435865288
C           55.23808088676027       -2.65983158975737       -4.22077854855175
C           55.65467025858418       -2.09082094914376       -5.42338318265631
C           55.62710631640203       -2.82931203627274       -6.60135481341011
C           56.04989870526988       -2.20212924310256       -7.90246852459687
C           55.18201956265194       -4.14769506629446       -6.56942583270669
C           54.76576487784042       -4.73053447481444       -5.37637921055975
C           54.30875149398813       -6.16419903924557       -5.34897397221923
C           54.79484775352837       -3.98112978440793       -4.20490541834540
H           59.78847422712043        0.21858655325459       -0.28139551131812
H           59.79910031632185       -1.18125746526249       -2.48967350953661
H           57.89608774907452       -2.32738415717149       -4.00339057972186
H           52.59992432916280       -2.58523552522650       -3.75349007489580
H           50.74551001002678       -1.62487584050858       -2.06531094846849
H           50.81099466988855        1.43791274725823        2.20748370126549
H           52.72189058036368        2.52846796480589        3.74814323664762
H           56.29856741107644        4.39316708906734        3.21035936232974
H           56.18457289601745        6.61749497660725        6.21096790801726
H           57.60636190331476        6.00390548354464        5.35620694830942
H           56.23089570044042        6.62243774243779        4.43767483088845
H           55.41524107854239        4.67648046202990        7.39217336958001
H           54.18260235555783        1.15388501679407        7.61347342336630
H           54.93795214034512        2.44836866960184        8.56217163140216
H           53.31267175374177        2.66577748722333        7.90708677100529
H           54.45422051233664        1.10313496986836        5.23559715840615
H           58.03662337814874        2.46148734808470        3.69504870176158
H           59.88163888228098        1.53890575810964        1.97353694850029
H           55.98633188228854       -1.05828971634178       -5.43758775378733
H           56.52513710339998       -2.93829250444679       -8.55137556179678
H           56.74573136272719       -1.38078148802150       -7.73067334340088
H           55.17605995459076       -1.80483820642734       -8.42404138519427
H           55.15873225194444       -4.72770362717903       -7.48635885945908
H           55.16422839360406       -6.82346134950769       -5.18464235868021
H           53.84406364591729       -6.44167685077943       -6.29541102746055
H           53.59384173048329       -6.32867059175170       -4.54253068031296
H           54.48387131717525       -4.42805152472960       -3.26690980577313
C           38.34677189502901       -0.07600292501436        0.07682522949388
C           39.56337459807997       -0.08501422947666        0.08483806770682
C           49.25814337305044       -0.12735441945556        0.10393245553654
C           50.47263110729289       -0.11189057603398        0.08581918435532
Cu          44.41177167856559       -0.10871573079103        0.10149561403331
C           40.97428822693436       -0.09292084231708        0.09054384849173
C           41.62965627684245        1.14004403029508       -0.07318136378310
C           40.96143308837782        2.39553519918788       -0.24000256906085
C           41.92311418088208        3.34718430040636       -0.34568306346956
C           43.18878284977186        2.67709864460438       -0.25517221737961
N           42.97710634282820        1.33354710458902       -0.09317033155914
C           44.43082431994973        3.31325724462829       -0.28581753685163
C           45.66684211477585        2.67714178208997       -0.15807636011733
C           46.94132977937507        3.33442960881055       -0.22702874317636
C           47.89191291448873        2.37341960118440       -0.10713355128820
N           45.86059807878969        1.33147950804784       -0.00021048885994
C           47.20592606518353        1.12241662812921        0.02398970607734
C           47.84337935630838       -0.12407662086096        0.11130407677201
C           47.19381447353481       -1.36413216280729        0.19579967474693
C           47.86759669538937       -2.62158901429721        0.32613154216485
C           46.90755389461508       -3.57468252879501        0.43426181711643
C           45.63919643539902       -2.90604397136290        0.35831318650525
C           44.39627522746959       -3.53314384996611        0.46737622206794
C           44.39196147360427       -5.00925749381000        0.63381284444718
C           43.88593228760249       -5.58537224004535        1.79712995932193
C           43.88443231512689       -6.96764485436319        1.95865466419563
C           43.35501972036758       -7.57823989495188        3.22831675463545
C           44.39400506792320       -7.77283769585582        0.94566001081315
C           44.90092283511764       -7.21203682859645       -0.22393741506759
C           45.46262700618357       -8.09661975251120       -1.30418119657456
C           44.89848727865880       -5.83027715418193       -0.37349229792197
C           43.15981784472010       -2.88591664458259        0.43380622739514
C           41.88685495849272       -3.54472902587794        0.50593265762581
C           40.93500406881476       -2.58289453978952        0.40257058744131
C           41.61670721803345       -1.33240111536952        0.25422922027963
N           42.96208373494565       -1.53880667653116        0.28389582722849
N           45.84634639720932       -1.56125348252300        0.21074680282295
C           44.43884885617297        4.78602794342477       -0.48142308954373
C           44.92596482009707        5.62843680366263        0.51629492086819
C           44.93425507203878        7.00742487239638        0.33421354279012
C           45.47629970428179        7.91105255235194        1.40875825759959
C           44.45559128916964        7.54101334010594       -0.85852771425098
C           43.96650118064285        6.71264279908748       -1.86430118404442
C           43.46959760862450        7.29863358946462       -3.15837009568897
C           43.95993452590977        5.33572665122353       -1.66963053618250
H           39.89212137428734        2.52609670214003       -0.27207418111146
H           41.79087722733644        4.41046882003829       -0.46386264431671
H           47.08626646064658        4.39401572751068       -0.36253547152939
H           48.96392667230086        2.48986007727084       -0.11780009083383
H           48.93855571418380       -2.74703238199801        0.34396669894124
H           47.04261077533808       -4.63595235460262        0.56669218368794
H           43.50371761742323       -4.94726769210240        2.58646397687432
H           43.05440620183892       -8.61356069488330        3.06707499389513
H           44.12936416544130       -7.56355359258988        3.99873067347717
H           42.49826991717029       -7.01540158042471        3.60011436033014
H           44.39466668667723       -8.85139219880186        1.06580257219025
H           45.53193189013069       -7.56067157824036       -2.25072163071359
H           44.83829531682377       -8.97992021968291       -1.44350112006827
H           46.46438481052355       -8.43188979985378       -1.02614226848159
H           45.27680158477571       -5.38180385796190       -1.28562778019336
H           41.74289613842966       -4.60790819606270        0.61064779946240
H           39.86396518999302       -2.70306947143238        0.42166185680334
H           45.28371131474979        5.20172333116475        1.44698347640304
H           44.97889864113672        8.88098752324406        1.38860969935025
H           46.54501858474497        8.07414764214342        1.25126640753715
H           45.34312414494566        7.46566485164550        2.39484871739471
H           44.46050675028229        8.61629518766843       -1.00496165238572
H           43.02888920619350        8.28241875939385       -2.99514763899717
H           42.72436234850508        6.64926072086691       -3.61811122677223
H           44.30083053318173        7.41107702847962       -3.85828344133345
H           43.59207541682230        4.67888930609855       -2.45034036598150

          :  Hamiltonian                  GFN1-xTB          :
         :: total energy            -331.767450300201 Eh    ::
         :: gradient norm              0.000347053004 Eh/a0 ::
         :: HOMO-LUMO gap              0.000123487647 eV    ::
         :: SCC energy              -336.931206142621 Eh    ::
         :: repulsion energy           5.346662332682 Eh    ::

    * Orbital Energies and Occupations

         #    Occupation            Energy/Eh            Energy/eV
      -------------------------------------------------------------
         1        2.0000           -0.7597632             -20.6742
       ...           ...                  ...                  ...
       299        2.0000           -0.4043296             -11.0024
       300        2.0000           -0.4043187             -11.0021
       301        2.0000           -0.4041472             -10.9974
       302        2.0000           -0.4038559             -10.9895
       303        2.0000           -0.4036521             -10.9839
       304        2.0000           -0.3912648             -10.6469
       305        2.0000           -0.3911823             -10.6446
       306        2.0000           -0.3909431             -10.6381
       307        2.0000           -0.3890630             -10.5869
       308        2.0000           -0.3823655             -10.4047
       309        2.0000           -0.3741406             -10.1809
       310        1.0141           -0.3516731              -9.5695
       311        0.9940           -0.3516301              -9.5683 (HOMO)
       312        0.9919           -0.3516256              -9.5682 (LUMO)
       313                         -0.3347977              -9.1103
       314                         -0.3257152              -8.8632
       315                         -0.3231133              -8.7924
       316                         -0.3229905              -8.7890
       317                         -0.3226120              -8.7787
       318                         -0.3173289              -8.6350
       319                         -0.2932467              -7.9796
       320                         -0.2876786              -7.8281
       321                         -0.2833583              -7.7106
       322                         -0.2558837              -6.9629
       ...                                ...                  ...
       683                          1.3483802              36.6913
      -------------------------------------------------------------
                  HL-Gap            0.0000045 Eh            0.0001 eV

Wiberg/Mayer (AO) data.
largest (>0.10) Wiberg bond orders for each atom

     #   Z sym  total        # sym  WBO       # sym  WBO       # sym  WBO
 ---------------------------------------------------------------------------
     1  29 Cu   2.193 --    32 N    0.507     7 N    0.506    33 N    0.505
                            12 N    0.504
     2   6 C    3.929 --     3 C    1.361    31 C    1.361    42 H    0.971
     3   6 C    3.918 --     2 C    1.361     7 N    1.230     4 C    1.171
     4   6 C    3.955 --     5 C    1.656     3 C    1.171    43 H    0.976
     5   6 C    3.958 --     4 C    1.656     6 C    1.172    44 H    0.973
     6   6 C    3.913 --     8 C    1.322     7 N    1.237     5 C    1.172
     7   7 N    3.244 --     6 C    1.237     3 C    1.230     1 Cu   0.506
     8   6 C    3.934 --     9 C    1.327     6 C    1.322    34 C    1.021
     9   6 C    3.909 --     8 C    1.327    12 N    1.222    10 C    1.180
    10   6 C    3.955 --    11 C    1.641     9 C    1.180    45 H    0.973
    11   6 C    3.957 --    10 C    1.641    13 C    1.187    46 H    0.969
    12   7 N    3.248 --    13 C    1.254     9 C    1.222     1 Cu   0.504
    13   6 C    3.903 --    14 C    1.265    12 N    1.254    11 C    1.187
    14   6 C    3.939 --    15 C    1.266    13 C    1.265   137 C    1.172
    15   6 C    3.903 --    14 C    1.266    33 N    1.253    16 C    1.187
    16   6 C    3.957 --    17 C    1.641    15 C    1.187    47 H    0.970
    17   6 C    3.955 --    16 C    1.641    18 C    1.180    48 H    0.973
    18   6 C    3.909 --    19 C    1.325    33 N    1.223    17 C    1.180
    19   6 C    3.935 --    18 C    1.325    28 C    1.321    20 C    1.025
    20   6 C    3.988 --    21 C    1.403    27 C    1.391    19 C    1.025
                            24 C    0.103
    21   6 C    3.987 --    22 C    1.411    20 C    1.403    49 H    0.972
                            25 C    0.104
    22   6 C    3.988 --    24 C    1.422    21 C    1.411    23 C    1.020
                            27 C    0.103
    23   6 C    3.996 --    22 C    1.020    50 H    0.985    52 H    0.980
                            51 H    0.972
    24   6 C    3.988 --    22 C    1.422    25 C    1.408    53 H    0.972
                            20 C    0.103
    25   6 C    3.988 --    27 C    1.423    24 C    1.408    26 C    1.020
                            21 C    0.104
    26   6 C    3.996 --    25 C    1.020    54 H    0.985    55 H    0.980
                            56 H    0.972
    27   6 C    3.987 --    25 C    1.423    20 C    1.391    57 H    0.972
                            22 C    0.103
    28   6 C    3.913 --    19 C    1.321    32 N    1.237    29 C    1.173
    29   6 C    3.958 --    30 C    1.655    28 C    1.173    58 H    0.973
    30   6 C    3.955 --    29 C    1.655    31 C    1.171    59 H    0.976
    31   6 C    3.918 --     2 C    1.361    32 N    1.230    30 C    1.171
    32   7 N    3.244 --    28 C    1.237    31 C    1.230     1 Cu   0.507
    33   7 N    3.248 --    15 C    1.253    18 C    1.223     1 Cu   0.505
    34   6 C    3.988 --    41 C    1.399    35 C    1.398     8 C    1.021
                            38 C    0.103
    35   6 C    3.987 --    36 C    1.417    34 C    1.398    60 H    0.972
                            39 C    0.104
    36   6 C    3.988 --    35 C    1.417    38 C    1.415    37 C    1.020
                            41 C    0.104
    37   6 C    3.996 --    36 C    1.020    62 H    0.983    61 H    0.982
                            63 H    0.971
    38   6 C    3.989 --    39 C    1.417    36 C    1.415    64 H    0.972
                            34 C    0.103
    39   6 C    3.988 --    38 C    1.417    41 C    1.416    40 C    1.020
                            35 C    0.104
    40   6 C    3.996 --    39 C    1.020    67 H    0.983    66 H    0.983
                            65 H    0.971
    41   6 C    3.987 --    39 C    1.416    34 C    1.399    68 H    0.972
                            36 C    0.104
    42   1 H    1.002 --     2 C    0.971
    43   1 H    0.998 --     4 C    0.976
    44   1 H    1.005 --     5 C    0.973
    45   1 H    1.005 --    10 C    0.973
    46   1 H    1.006 --    11 C    0.969
    47   1 H    1.005 --    16 C    0.970
    48   1 H    1.005 --    17 C    0.973
    49   1 H    1.003 --    21 C    0.972
    50   1 H    1.004 --    23 C    0.985
    51   1 H    1.006 --    23 C    0.972
    52   1 H    1.005 --    23 C    0.980
    53   1 H    1.000 --    24 C    0.972
    54   1 H    1.004 --    26 C    0.985
    55   1 H    1.005 --    26 C    0.980
    56   1 H    1.006 --    26 C    0.972
    57   1 H    1.003 --    27 C    0.972
    58   1 H    1.005 --    29 C    0.973
    59   1 H    0.998 --    30 C    0.976
    60   1 H    1.003 --    35 C    0.972
    61   1 H    1.004 --    37 C    0.982
    62   1 H    1.004 --    37 C    0.983
    63   1 H    1.006 --    37 C    0.971
    64   1 H    1.000 --    38 C    0.972
    65   1 H    1.006 --    40 C    0.971
    66   1 H    1.004 --    40 C    0.983
    67   1 H    1.004 --    40 C    0.983
    68   1 H    1.003 --    41 C    0.972
    69  29 Cu   2.194 --    75 N    0.508   100 N    0.507   101 N    0.505
                            80 N    0.504
    70   6 C    3.933 --    71 C    1.362    99 C    1.361   110 H    0.971
    71   6 C    3.918 --    70 C    1.362    75 N    1.230    72 C    1.170
    72   6 C    3.955 --    73 C    1.656    71 C    1.170   111 H    0.976
    73   6 C    3.958 --    72 C    1.656    74 C    1.172   112 H    0.973
    74   6 C    3.914 --    76 C    1.323    75 N    1.237    73 C    1.172
    75   7 N    3.246 --    74 C    1.237    71 C    1.230    69 Cu   0.508
    76   6 C    3.937 --    77 C    1.326    74 C    1.323   102 C    1.023
    77   6 C    3.910 --    76 C    1.326    80 N    1.225    78 C    1.178
    78   6 C    3.957 --    79 C    1.645    77 C    1.178   113 H    0.973
    79   6 C    3.958 --    78 C    1.645    81 C    1.184   114 H    0.974
    80   7 N    3.249 --    81 C    1.249    77 C    1.225    69 Cu   0.504
    81   6 C    3.908 --    82 C    1.276    80 N    1.249    79 C    1.184
    82   6 C    3.939 --    83 C    1.277    81 C    1.276   140 C    1.150
    83   6 C    3.909 --    82 C    1.277   101 N    1.248    84 C    1.184
    84   6 C    3.958 --    85 C    1.645    83 C    1.184   115 H    0.974
    85   6 C    3.957 --    84 C    1.645    86 C    1.178   116 H    0.973
    86   6 C    3.910 --    87 C    1.324   101 N    1.226    85 C    1.178
    87   6 C    3.937 --    86 C    1.324    96 C    1.322    88 C    1.025
    88   6 C    3.988 --    89 C    1.403    95 C    1.391    87 C    1.025
                            92 C    0.103
    89   6 C    3.987 --    90 C    1.411    88 C    1.403   117 H    0.972
                            93 C    0.104
    90   6 C    3.988 --    92 C    1.422    89 C    1.411    91 C    1.020
                            95 C    0.103
    91   6 C    3.996 --    90 C    1.020   118 H    0.985   120 H    0.980
                           119 H    0.972
    92   6 C    3.988 --    90 C    1.422    93 C    1.409   121 H    0.972
                            88 C    0.103
    93   6 C    3.988 --    95 C    1.423    92 C    1.409    94 C    1.020
                            89 C    0.104
    94   6 C    3.996 --    93 C    1.020   122 H    0.985   123 H    0.980
                           124 H    0.972
    95   6 C    3.987 --    93 C    1.423    88 C    1.391   125 H    0.972
                            90 C    0.103
    96   6 C    3.914 --    87 C    1.322   100 N    1.237    97 C    1.172
    97   6 C    3.958 --    98 C    1.656    96 C    1.172   126 H    0.973
    98   6 C    3.955 --    97 C    1.656    99 C    1.171   127 H    0.976
    99   6 C    3.918 --    70 C    1.361   100 N    1.230    98 C    1.171
   100   7 N    3.246 --    96 C    1.237    99 C    1.230    69 Cu   0.507
   101   7 N    3.250 --    83 C    1.248    86 C    1.226    69 Cu   0.505
   102   6 C    3.988 --   109 C    1.399   103 C    1.397    76 C    1.023
                           106 C    0.103
   103   6 C    3.987 --   104 C    1.418   102 C    1.397   128 H    0.972
                           107 C    0.103
   104   6 C    3.988 --   103 C    1.418   106 C    1.415   105 C    1.020
                           109 C    0.104
   105   6 C    3.996 --   104 C    1.020   130 H    0.984   129 H    0.982
                           131 H    0.971
   106   6 C    3.989 --   107 C    1.416   104 C    1.415   132 H    0.972
                           102 C    0.103
   107   6 C    3.988 --   106 C    1.416   109 C    1.416   108 C    1.020
                           103 C    0.103
   108   6 C    3.996 --   107 C    1.020   135 H    0.983   134 H    0.983
                           133 H    0.971
   109   6 C    3.987 --   107 C    1.416   102 C    1.399   136 H    0.972
                           104 C    0.104
   110   1 H    1.002 --    70 C    0.971
   111   1 H    0.998 --    72 C    0.976
   112   1 H    1.005 --    73 C    0.973
   113   1 H    1.005 --    78 C    0.973
   114   1 H    1.002 --    79 C    0.974
   115   1 H    1.002 --    84 C    0.974
   116   1 H    1.005 --    85 C    0.973
   117   1 H    1.003 --    89 C    0.972
   118   1 H    1.004 --    91 C    0.985
   119   1 H    1.006 --    91 C    0.972
   120   1 H    1.005 --    91 C    0.980
   121   1 H    1.000 --    92 C    0.972
   122   1 H    1.004 --    94 C    0.985
   123   1 H    1.005 --    94 C    0.980
   124   1 H    1.006 --    94 C    0.972
   125   1 H    1.003 --    95 C    0.972
   126   1 H    1.005 --    97 C    0.973
   127   1 H    0.998 --    98 C    0.976
   128   1 H    1.003 --   103 C    0.972
   129   1 H    1.004 --   105 C    0.982
   130   1 H    1.004 --   105 C    0.984
   131   1 H    1.006 --   105 C    0.971
   132   1 H    1.000 --   106 C    0.972
   133   1 H    1.006 --   108 C    0.971
   134   1 H    1.004 --   108 C    0.983
   135   1 H    1.004 --   108 C    0.983
   136   1 H    1.003 --   109 C    0.972
   137   6 C    3.933 --   138 C    2.583    14 C    1.172
   138   6 C    3.935 --   137 C    2.583   142 C    1.173
   139   6 C    3.931 --   140 C    2.598   154 C    1.151
   140   6 C    3.929 --   139 C    2.598    82 C    1.150
   141  29 Cu   2.172 --   147 N    0.501   172 N    0.501   173 N    0.501
                           152 N    0.501
   142   6 C    3.932 --   171 C    1.264   143 C    1.264   138 C    1.173
   143   6 C    3.904 --   142 C    1.264   147 N    1.256   144 C    1.187
   144   6 C    3.956 --   145 C    1.641   143 C    1.187   182 H    0.969
   145   6 C    3.956 --   144 C    1.641   146 C    1.180   183 H    0.973
   146   6 C    3.908 --   148 C    1.326   147 N    1.222   145 C    1.180
   147   7 N    3.243 --   143 C    1.256   146 C    1.222   141 Cu   0.501
   148   6 C    3.931 --   146 C    1.326   149 C    1.323   174 C    1.022
   149   6 C    3.908 --   148 C    1.323   152 N    1.226   150 C    1.179
   150   6 C    3.958 --   151 C    1.644   149 C    1.179   184 H    0.973
   151   6 C    3.956 --   150 C    1.644   153 C    1.184   185 H    0.974
   152   7 N    3.242 --   153 C    1.252   149 C    1.226   141 Cu   0.501
   153   6 C    3.909 --   154 C    1.274   152 N    1.252   151 C    1.184
   154   6 C    3.928 --   155 C    1.275   153 C    1.274   139 C    1.151
   155   6 C    3.909 --   154 C    1.275   173 N    1.251   156 C    1.185
   156   6 C    3.956 --   157 C    1.644   155 C    1.185   186 H    0.974
   157   6 C    3.958 --   156 C    1.644   158 C    1.179   187 H    0.973
   158   6 C    3.908 --   159 C    1.323   173 N    1.226   157 C    1.179
   159   6 C    3.931 --   168 C    1.325   158 C    1.323   160 C    1.024
   160   6 C    3.988 --   161 C    1.402   167 C    1.393   159 C    1.024
                           164 C    0.103
   161   6 C    3.987 --   162 C    1.413   160 C    1.402   188 H    0.972
                           165 C    0.104
   162   6 C    3.988 --   164 C    1.420   161 C    1.413   163 C    1.020
                           167 C    0.103
   163   6 C    3.996 --   162 C    1.020   189 H    0.984   191 H    0.981
                           190 H    0.971
   164   6 C    3.989 --   162 C    1.420   165 C    1.411   192 H    0.972
                           160 C    0.103
   165   6 C    3.988 --   167 C    1.421   164 C    1.411   166 C    1.020
                           161 C    0.104
   166   6 C    3.996 --   165 C    1.020   193 H    0.985   194 H    0.980
                           195 H    0.972
   167   6 C    3.987 --   165 C    1.421   160 C    1.393   196 H    0.972
                           162 C    0.103
   168   6 C    3.908 --   159 C    1.325   172 N    1.222   169 C    1.180
   169   6 C    3.956 --   170 C    1.641   168 C    1.180   197 H    0.973
   170   6 C    3.956 --   169 C    1.641   171 C    1.187   198 H    0.970
   171   6 C    3.904 --   142 C    1.264   172 N    1.256   170 C    1.187
   172   7 N    3.243 --   171 C    1.256   168 C    1.222   141 Cu   0.501
   173   7 N    3.243 --   155 C    1.251   158 C    1.226   141 Cu   0.501
   174   6 C    3.988 --   175 C    1.399   181 C    1.397   148 C    1.022
                           178 C    0.103
   175   6 C    3.987 --   176 C    1.416   174 C    1.399   199 H    0.972
                           179 C    0.104
   176   6 C    3.988 --   178 C    1.416   175 C    1.416   177 C    1.020
                           181 C    0.104
   177   6 C    3.996 --   176 C    1.020   202 H    0.983   200 H    0.983
                           201 H    0.971
   178   6 C    3.989 --   176 C    1.416   179 C    1.415   203 H    0.972
                           174 C    0.103
   179   6 C    3.988 --   181 C    1.417   178 C    1.415   180 C    1.020
                           175 C    0.104
   180   6 C    3.996 --   179 C    1.020   205 H    0.983   204 H    0.982
                           206 H    0.971
   181   6 C    3.987 --   179 C    1.417   174 C    1.397   207 H    0.972
                           176 C    0.104
   182   1 H    1.006 --   144 C    0.969
   183   1 H    1.005 --   145 C    0.973
   184   1 H    1.005 --   150 C    0.973
   185   1 H    1.002 --   151 C    0.974
   186   1 H    1.002 --   156 C    0.974
   187   1 H    1.005 --   157 C    0.973
   188   1 H    1.003 --   161 C    0.972
   189   1 H    1.004 --   163 C    0.984
   190   1 H    1.006 --   163 C    0.971
   191   1 H    1.004 --   163 C    0.981
   192   1 H    1.000 --   164 C    0.972
   193   1 H    1.004 --   166 C    0.985
   194   1 H    1.005 --   166 C    0.980
   195   1 H    1.006 --   166 C    0.972
   196   1 H    1.003 --   167 C    0.972
   197   1 H    1.005 --   169 C    0.973
   198   1 H    1.006 --   170 C    0.970
   199   1 H    1.003 --   175 C    0.972
   200   1 H    1.004 --   177 C    0.983
   201   1 H    1.006 --   177 C    0.971
   202   1 H    1.004 --   177 C    0.983
   203   1 H    1.000 --   178 C    0.972
   204   1 H    1.004 --   180 C    0.982
   205   1 H    1.004 --   180 C    0.983
   206   1 H    1.006 --   180 C    0.971
   207   1 H    1.003 --   181 C    0.972
 ---------------------------------------------------------------------------

           -------------------------------------------------
          | TOTAL ENERGY             -331.767450300201 Eh   |
          | GRADIENT NORM               0.000347053004 Eh/α |
          | HOMO-LUMO GAP               0.000123487647 eV   |
           -------------------------------------------------

 * finished run on 2022/07/30 at 06:46:57.750
