   * xtb version 6.5.1 (b24c23e) compiled by 'conda@728c89f4b128' on 2022-07-12
          program call               : xtb Ph3Me_C2_2.xyz --gfn 1 --opt -T 48

   ID    Z sym.   atoms
    1    6 C      1-5, 7-19, 21-26, 28-41, 76-80, 82-94, 96-101, 103-116,
                  151, 152
    2    7 N      6, 20, 27, 42, 81, 95, 102, 117
    3    1 H      43-75, 118-150
########################################################################
[WARNING] Please study the warnings concerning your input carefully
-1- prog_main_parseArguments: Unknown option '-T' provided
########################################################################

          :  Hamiltonian                  GFN1-xTB          :
 * total energy  :  -225.8313559 Eh     change       -0.1764136E-09 Eh
 * total energy  :  -225.9336785 Eh     change       -0.1023226E+00 Eh
 * total energy  :  -225.9903012 Eh     change       -0.5662267E-01 Eh
 * total energy  :  -226.0030282 Eh     change       -0.1272703E-01 Eh
 * total energy  :  -226.0112948 Eh     change       -0.8266578E-02 Eh
 * total energy  :  -226.0158871 Eh     change       -0.4592333E-02 Eh
 * total energy  :  -226.0190937 Eh     change       -0.3206555E-02 Eh
 * total energy  :  -226.0212504 Eh     change       -0.2156703E-02 Eh
 * total energy  :  -226.0224333 Eh     change       -0.1182967E-02 Eh
 * total energy  :  -226.0230201 Eh     change       -0.5867399E-03 Eh
 * total energy  :  -226.0248988 Eh     change       -0.8625782E-05 Eh
 * total energy  :  -226.0249046 Eh     change       -0.5812705E-05 Eh
 * total energy  :  -226.0249098 Eh     change       -0.5236316E-05 Eh
 * total energy  :  -226.0249162 Eh     change       -0.6367924E-05 Eh
 * total energy  :  -226.0249239 Eh     change       -0.7706741E-05 Eh
 * total energy  :  -226.0249317 Eh     change       -0.7841827E-05 Eh
 * total energy  :  -226.0249389 Eh     change       -0.7114547E-05 Eh
 * total energy  :  -226.0249456 Eh     change       -0.6767460E-05 Eh
 * total energy  :  -226.0249484 Eh     change       -0.2789138E-05 Eh
   *** GEOMETRY OPTIMIZATION CONVERGED AFTER 44 ITERATIONS ***

 final structure:
================
152
 xtb: 6.5.1 (b24c23e)
C           14.49404582485174       -0.19185579581067        0.03197918006130
C           15.12376047448821       -1.42825717423147       -0.02891663063816
C           14.50562201780744       -2.70920541861934       -0.08993791872042
C           15.49423353010788       -3.65055332010261       -0.15476620208915
C           16.74790155031117       -2.97434889705621       -0.13621624591481
N           16.47367612847037       -1.63853560647986       -0.05461043192161
C           18.01794725245753       -3.55033344834297       -0.20825289465058
C           18.06118447667179       -5.03901741055183       -0.31514756400542
C           18.00383979303193       -5.65124406227157       -1.57047020113804
C           17.90645702264519       -4.80874065532777       -2.81442605252601
C           18.04046259596794       -7.03804572701631       -1.65727910558894
C           18.13369813212291       -7.82367053175748       -0.51314214340838
C           18.15070849273816       -9.32481852781176       -0.61863302429149
C           18.19040155781707       -7.20393672240020        0.73089265398679
C           18.15581304570783       -5.81873594094478        0.84116900322974
C           18.22067187456967       -5.15664153949347        2.19172954247113
C           19.23027184152067       -2.86132864141062       -0.19539511838041
C           20.51865784710151       -3.51894400821715       -0.31297766030542
C           21.44989024999716       -2.54430126599996       -0.25398033798341
N           19.40087033891910       -1.51588615303936       -0.07160965192272
C           20.73179413817201       -1.29560653877232       -0.09285791563396
C           21.37416336214529       -0.04597416596629        0.03305583978556
C           20.71434705714002        1.19216279678899        0.15689299124376
C           21.31921353192532        2.46754102499440        0.30856473545382
C           20.32549419418107        3.40537714588642        0.35868558446863
C           19.07963637806383        2.72859914855793        0.24641658412405
N           19.36555535119482        1.39340539093398        0.13503474139045
C           17.81168488862454        3.31420214350174        0.24466693900254
C           17.77302733350509        4.80440307979724        0.32040063133910
C           17.86834224752801        5.56071860460934       -0.85146252630371
C           18.00000996444279        4.87174856072876       -2.18372770546741
C           17.84067826947005        6.94825339324332       -0.77413667710793
C           17.72102210049733        7.59342031203209        0.45223301670714
C           17.67661867249743        9.09605070959837        0.52226739257091
C           17.62240614412065        6.83097245654556        1.61162960131201
C           17.64722449574744        5.44224592494445        1.55784725658016
C           17.54289038510864        4.62517445117131        2.81803515422775
C           16.59743247666018        2.63017410895755        0.17633346367015
C           15.29945066175719        3.28688773130743        0.18597124102262
C           14.37527050903720        2.30624675575746        0.13376268999835
C           15.10857935636897        1.05301855348918        0.08736630308681
N           16.44332927668448        1.28612593102277        0.11128264316384
H           13.40917503875382       -0.20924112244715        0.03261165902327
H           13.43995255903170       -2.87436271525694       -0.08576650973542
H           15.37802066270489       -4.72098816390236       -0.21155409695814
H           17.17339931488217       -0.90489382500553       -0.02365752343691
H           16.98391584901099       -4.22490791182848       -2.80535407702353
H           17.91561088022823       -5.43184358003314       -3.70821183075348
H           18.74314028511386       -4.10965321380007       -2.86532613143286
H           17.99750532683283       -7.51259890929564       -2.63221303146421
H           17.12935077022258       -9.71128284588290       -0.58359585956225
H           18.60123443313942       -9.64324743559887       -1.55902352905050
H           18.70846299019300       -9.76630645847498        0.20761827649800
H           18.26429397640053       -7.80865797758829        1.62890439988415
H           17.33229930861633       -4.54410574443523        2.35714514153744
H           18.28614536547417       -5.89916809657884        2.98647915020014
H           19.09260293289413       -4.50259105999985        2.25113885528512
H           20.66245817494921       -4.58113331790514       -0.42986146122845
H           22.52135643463473       -2.63676830121047       -0.32037126482675
H           22.38047230389236        2.63838169466174        0.37688476374619
H           20.43610760952584        4.47193185196170        0.46941184390301
H           18.67065238446142        0.65980739102554        0.04431743721542
H           17.98903639619483        5.59511484901792       -2.99850951049527
H           18.93527960848943        4.31017310067652       -2.22901734428024
H           17.17995222424159        4.16634244328346       -2.32907705707320
H           17.91586354211212        7.53446989427141       -1.68421863637167
H           18.10940875590064        9.45414943361022        1.45675297724755
H           16.64079615510774        9.44016614509470        0.47433190040171
H           18.22044933207849        9.54018939716261       -0.31179200788680
H           17.52749205476229        7.32578754675257        2.57271650040848
H           17.46900019178798        5.26877439684314        3.69412663295626
H           16.66085792017066        3.98310362428995        2.78063310680803
H           18.41866081812443        3.98280394104641        2.92772340204708
H           15.14872369185240        4.35397663285167        0.22708287768432
H           13.29973007537899        2.39033368827848        0.12451668371123
C           32.29027607265387        0.19324104973505        0.02221703053922
C           31.66055931713752        1.42494715931748       -0.10145373309805
C           32.27869566358311        2.70113580300692       -0.22753664933794
C           31.29008168959403        3.63797494066270       -0.34008439414152
C           30.03641538371202        2.96357991512259       -0.28723807719760
N           30.31064318882952        1.63364393794208       -0.13781890470290
C           28.76636940784013        3.53515195062543       -0.38849926519252
C           28.72312793356640        5.01648434159595       -0.57087406823955
C           28.78048118064950        5.56411411833161       -1.85568795994656
C           28.87787132364290        4.65946435119102       -3.05520560636000
C           28.74385517862777        6.94470943105496       -2.01287269797495
C           28.65061014449230        7.78747501232132       -0.91014848426403
C           28.63359501391609        9.28131991024045       -1.09180937832422
C           28.59390029858629        7.23177649061380        0.36377874872852
C           28.62849066169372        5.85396981150522        0.54431951547779
C           28.56363134926335        5.26138697349177        1.92679245544542
C           27.55404678791910        2.84769026870246       -0.34063248836788
C           26.26565409996864        3.49849133895935       -0.49139122323249
C           25.33442274232422        2.52810652091594       -0.38293445603960
N           27.38344103298879        1.51030856788475       -0.14841205386679
C           26.05252685943606        1.28920137066829       -0.15864192884904
C           25.41016076028095        0.04757536879065        0.03057873890698
C           26.06997983044797       -1.18265693581481        0.21724359017115
C           25.46511574456564       -2.44866828113995        0.43360485706129
C           26.45883369600962       -3.38274944920956        0.53129453469208
C           27.70469202464886       -2.71254660861059        0.38480734835847
N           27.41877227156832       -1.38474265090534        0.20568705020051
C           28.97264379867315       -3.29747917947997        0.41283533821863
C           29.01130228357514       -4.78190620549762        0.56419698012591
C           28.91598852176444       -5.59680277693768       -0.56771441919249
C           28.78432263821284       -4.97643623081544       -1.93327538030912
C           28.94365613324058       -6.97861470800174       -0.41996958187699
C           29.06331359651634       -7.56061861618370        0.83760497837463
C           29.10772104411151       -9.05774752037442        0.98391862157990
C           29.16192689296167       -6.74023082099741        1.95675268022949
C           29.13710588283983       -5.35603285748409        1.83246037244473
C           29.24143406091925       -4.47596785043673        3.04949168252632
C           30.18689478222890       -2.61780780680615        0.30981011850615
C           31.48487739199422       -3.27318399144715        0.35278982495245
C           32.40905552213279       -2.29646520199851        0.25078022587312
C           31.67574459055889       -1.04721028584346        0.14080096384843
N           30.34099473679088       -1.27881025532838        0.17646526368513
H           33.37514682948910        0.21063265072189        0.02191759605510
H           33.34436507690029        2.86629216419112       -0.23177823284026
H           31.40629258459496        4.70414097673815       -0.45119749076243
H           29.61092136042925        0.90252167761359       -0.06962506582867
H           29.80041223141736        4.07684707574095       -3.01646049861811
H           28.86872413721940        5.23632995728854       -3.97950809582282
H           28.04118700115656        3.95869408976928       -3.07050877160437
H           28.78681416478668        7.36909240734747       -3.01066749754526
H           29.65495145785779        9.66906878673404       -1.07645976260788
H           28.18307143997094        9.55153294381365       -2.04717239423423
H           28.07583614921699        9.76423576614494       -0.28907025665520
H           28.52000310995773        7.88136278642752        1.22989149122599
H           29.45200582943762        4.65805617502703        2.12313547448564
H           28.49815072010491        6.04335187262554        2.68277117183572
H           27.69170389531295        4.61119764329503        2.01936977401367
H           26.12185615160532        4.55335792913511       -0.66216828902605
H           24.26295963203837        2.61706775499039       -0.45401142964097
H           24.40385707876353       -2.61581892914557        0.51050696680390
H           26.34821945162363       -4.44230026223064        0.69606867459895
H           28.11367488376462       -0.65670397015580        0.07779739601385
H           28.79529828987844       -5.74027811616097       -2.71024007150747
H           27.84905222354868       -4.41789015295465       -2.00704935651273
H           29.60437897485909       -4.27932739039843       -2.11428835393005
H           28.86847543226279       -7.61032793607580       -1.29908183459587
H           28.67493049117953       -9.36789053668419        1.93539586589196
H           30.14354470816226       -9.40385123411395        0.95353620313097
H           28.56389324745183       -9.54370430748233        0.17350922497857
H           29.25683759018134       -7.18555988003105        2.94174621326581
H           29.31532267453916       -5.07420925156977        3.95716140868611
H           30.12346598806620       -3.83662668831836        2.97950694071303
H           28.36566233359577       -3.82885390003763        3.12638779949954
H           31.63560625950754       -4.33680153673451        0.44811332180379
H           33.48459619220324       -2.38091038079139        0.24582696002238
C           22.78336698953645       -0.01739383744408        0.03420389432550
C           24.00095667413092        0.01909722732419        0.03329393687874

          :  Hamiltonian                  GFN1-xTB          :
         :: total energy            -226.024948418286 Eh    ::
         :: gradient norm              0.000266436567 Eh/a0 ::
         :: HOMO-LUMO gap              0.975822710990 eV    ::
         :: SCC energy              -229.666921956010 Eh    ::
         :: repulsion energy           3.774201106243 Eh    ::

    * Orbital Energies and Occupations

         #    Occupation            Energy/Eh            Energy/eV
      -------------------------------------------------------------
         1        2.0000           -0.8006020             -21.7855
       ...           ...                  ...                  ...
       197        2.0000           -0.4196141             -11.4183
       198        2.0000           -0.4191620             -11.4060
       199        2.0000           -0.4177485             -11.3675
       200        2.0000           -0.4173351             -11.3563
       201        2.0000           -0.4163789             -11.3302
       202        2.0000           -0.4133540             -11.2479
       203        2.0000           -0.4133235             -11.2471
       204        2.0000           -0.4124537             -11.2234
       205        2.0000           -0.4124293             -11.2228
       206        2.0000           -0.3960584             -10.7773
       207        2.0000           -0.3956154             -10.7652
       208        2.0000           -0.3874620             -10.5434
       209        2.0000           -0.3741633             -10.1815 (HOMO)
       210                         -0.3383025              -9.2057 (LUMO)
       211                         -0.3262704              -8.8783
       212                         -0.3262443              -8.8776
       213                         -0.3217803              -8.7561
       214                         -0.2933832              -7.9834
       215                         -0.2841677              -7.7326
       216                         -0.2551780              -6.9437
       217                         -0.2551732              -6.9436
       218                         -0.2548869              -6.9358
       219                         -0.2548721              -6.9354
       220                         -0.2534910              -6.8978
       ...                                ...                  ...
       476                          1.3355396              36.3419
      -------------------------------------------------------------
                  HL-Gap            0.0358608 Eh            0.9758 eV

Wiberg/Mayer (AO) data.
largest (>0.10) Wiberg bond orders for each atom

     #   Z sym  total        # sym  WBO       # sym  WBO       # sym  WBO
 ---------------------------------------------------------------------------
     1   6 C    3.924 --    41 C    1.363     2 C    1.347    43 H    0.971
     2   6 C    3.903 --     1 C    1.347     3 C    1.229     6 N    1.170
     3   6 C    3.953 --     4 C    1.597     2 C    1.229    44 H    0.977
     4   6 C    3.959 --     3 C    1.597     5 C    1.232    45 H    0.975
     5   6 C    3.896 --     7 C    1.310     4 C    1.232     6 N    1.172
     6   7 N    3.467 --     5 C    1.172     2 C    1.170    46 H    0.874
     7   6 C    3.939 --    17 C    1.341     5 C    1.310     8 C    1.003
     8   6 C    3.987 --    15 C    1.381     9 C    1.381     7 C    1.003
                            12 C    0.104
     9   6 C    3.984 --    11 C    1.420     8 C    1.381    10 C    1.020
                            14 C    0.103
    10   6 C    3.996 --     9 C    1.020    48 H    0.986    49 H    0.974
                            47 H    0.974
    11   6 C    3.993 --     9 C    1.420    12 C    1.414    50 H    0.970
                            15 C    0.103
    12   6 C    3.988 --    14 C    1.414    11 C    1.414    13 C    1.020
                             8 C    0.104
    13   6 C    3.996 --    12 C    1.020    53 H    0.983    52 H    0.983
                            51 H    0.971
    14   6 C    3.993 --    15 C    1.420    12 C    1.414    54 H    0.970
                             9 C    0.103
    15   6 C    3.985 --    14 C    1.420     8 C    1.381    16 C    1.020
                            11 C    0.103
    16   6 C    3.996 --    15 C    1.020    56 H    0.986    55 H    0.974
                            57 H    0.973
    17   6 C    3.916 --     7 C    1.341    20 N    1.282    18 C    1.125
    18   6 C    3.965 --    19 C    1.707    17 C    1.125    58 H    0.975
    19   6 C    3.964 --    18 C    1.707    21 C    1.131    59 H    0.968
    20   7 N    3.022 --    21 C    1.346    17 C    1.282
    21   6 C    3.915 --    20 N    1.346    22 C    1.255    19 C    1.131
    22   6 C    3.938 --    21 C    1.255    23 C    1.254   151 C    1.184
    23   6 C    3.889 --    22 C    1.254    24 C    1.250    27 N    1.189
    24   6 C    3.959 --    25 C    1.582    23 C    1.250    60 H    0.968
    25   6 C    3.955 --    24 C    1.582    26 C    1.239    61 H    0.975
    26   6 C    3.898 --    28 C    1.314    25 C    1.239    27 N    1.162
    27   7 N    3.473 --    23 C    1.189    26 C    1.162    62 H    0.873
    28   6 C    3.924 --    38 C    1.330    26 C    1.314    29 C    1.004
    29   6 C    3.987 --    30 C    1.381    36 C    1.381    28 C    1.004
                            33 C    0.104
    30   6 C    3.983 --    32 C    1.420    29 C    1.381    31 C    1.020
                            35 C    0.103
    31   6 C    3.996 --    30 C    1.020    63 H    0.986    65 H    0.975
                            64 H    0.973
    32   6 C    3.993 --    30 C    1.420    33 C    1.414    66 H    0.970
                            36 C    0.103
    33   6 C    3.988 --    32 C    1.414    35 C    1.414    34 C    1.020
                            29 C    0.104
    34   6 C    3.996 --    33 C    1.020    69 H    0.983    67 H    0.983
                            68 H    0.971
    35   6 C    3.993 --    36 C    1.421    33 C    1.414    70 H    0.970
                            30 C    0.103
    36   6 C    3.985 --    35 C    1.421    29 C    1.381    37 C    1.020
                            32 C    0.103
    37   6 C    3.996 --    36 C    1.020    71 H    0.986    73 H    0.975
                            72 H    0.973
    38   6 C    3.929 --    28 C    1.330    42 N    1.310    39 C    1.116
    39   6 C    3.968 --    40 C    1.723    38 C    1.116    74 H    0.975
    40   6 C    3.966 --    39 C    1.723    41 C    1.117    75 H    0.976
    41   6 C    3.931 --     1 C    1.363    42 N    1.304    40 C    1.117
    42   7 N    3.010 --    38 C    1.310    41 C    1.304
    43   1 H    1.002 --     1 C    0.971
    44   1 H    0.998 --     3 C    0.977
    45   1 H    1.002 --     4 C    0.975
    46   1 H    0.987 --     6 N    0.874
    47   1 H    1.008 --    10 C    0.974
    48   1 H    1.004 --    10 C    0.986
    49   1 H    1.007 --    10 C    0.974
    50   1 H    1.000 --    11 C    0.970
    51   1 H    1.006 --    13 C    0.971
    52   1 H    1.004 --    13 C    0.983
    53   1 H    1.004 --    13 C    0.983
    54   1 H    1.000 --    14 C    0.970
    55   1 H    1.008 --    16 C    0.974
    56   1 H    1.004 --    16 C    0.986
    57   1 H    1.008 --    16 C    0.973
    58   1 H    1.002 --    18 C    0.975
    59   1 H    1.007 --    19 C    0.968
    60   1 H    1.007 --    24 C    0.968
    61   1 H    1.002 --    25 C    0.975
    62   1 H    0.988 --    27 N    0.873
    63   1 H    1.004 --    31 C    0.986
    64   1 H    1.008 --    31 C    0.973
    65   1 H    1.007 --    31 C    0.975
    66   1 H    1.000 --    32 C    0.970
    67   1 H    1.004 --    34 C    0.983
    68   1 H    1.006 --    34 C    0.971
    69   1 H    1.004 --    34 C    0.983
    70   1 H    1.000 --    35 C    0.970
    71   1 H    1.004 --    37 C    0.986
    72   1 H    1.008 --    37 C    0.973
    73   1 H    1.007 --    37 C    0.975
    74   1 H    1.002 --    39 C    0.975
    75   1 H    0.999 --    40 C    0.976
    76   6 C    3.924 --   116 C    1.363    77 C    1.347   118 H    0.971
    77   6 C    3.903 --    76 C    1.347    78 C    1.229    81 N    1.170
    78   6 C    3.953 --    79 C    1.597    77 C    1.229   119 H    0.977
    79   6 C    3.959 --    78 C    1.597    80 C    1.232   120 H    0.975
    80   6 C    3.896 --    82 C    1.310    79 C    1.232    81 N    1.172
    81   7 N    3.467 --    80 C    1.172    77 C    1.170   121 H    0.874
    82   6 C    3.939 --    92 C    1.341    80 C    1.310    83 C    1.003
    83   6 C    3.987 --    90 C    1.381    84 C    1.381    82 C    1.003
                            87 C    0.104
    84   6 C    3.984 --    86 C    1.420    83 C    1.381    85 C    1.020
                            89 C    0.103
    85   6 C    3.996 --    84 C    1.020   123 H    0.986   124 H    0.974
                           122 H    0.974
    86   6 C    3.993 --    84 C    1.420    87 C    1.414   125 H    0.970
                            90 C    0.103
    87   6 C    3.988 --    89 C    1.414    86 C    1.414    88 C    1.020
                            83 C    0.104
    88   6 C    3.996 --    87 C    1.020   128 H    0.983   127 H    0.983
                           126 H    0.971
    89   6 C    3.993 --    90 C    1.420    87 C    1.414   129 H    0.970
                            84 C    0.103
    90   6 C    3.985 --    89 C    1.420    83 C    1.381    91 C    1.020
                            86 C    0.103
    91   6 C    3.996 --    90 C    1.020   131 H    0.986   130 H    0.974
                           132 H    0.973
    92   6 C    3.916 --    82 C    1.341    95 N    1.282    93 C    1.125
    93   6 C    3.965 --    94 C    1.707    92 C    1.125   133 H    0.975
    94   6 C    3.964 --    93 C    1.707    96 C    1.131   134 H    0.968
    95   7 N    3.022 --    96 C    1.346    92 C    1.282
    96   6 C    3.915 --    95 N    1.346    97 C    1.255    94 C    1.131
    97   6 C    3.938 --    96 C    1.255    98 C    1.254   152 C    1.184
    98   6 C    3.889 --    97 C    1.254    99 C    1.250   102 N    1.189
    99   6 C    3.959 --   100 C    1.582    98 C    1.250   135 H    0.968
   100   6 C    3.955 --    99 C    1.582   101 C    1.239   136 H    0.975
   101   6 C    3.898 --   103 C    1.314   100 C    1.239   102 N    1.162
   102   7 N    3.473 --    98 C    1.189   101 C    1.162   137 H    0.873
   103   6 C    3.924 --   113 C    1.330   101 C    1.314   104 C    1.004
   104   6 C    3.987 --   105 C    1.381   111 C    1.381   103 C    1.004
                           108 C    0.104
   105   6 C    3.983 --   107 C    1.420   104 C    1.381   106 C    1.020
                           110 C    0.103
   106   6 C    3.996 --   105 C    1.020   138 H    0.986   140 H    0.975
                           139 H    0.973
   107   6 C    3.993 --   105 C    1.420   108 C    1.414   141 H    0.970
                           111 C    0.103
   108   6 C    3.988 --   107 C    1.414   110 C    1.414   109 C    1.020
                           104 C    0.104
   109   6 C    3.996 --   108 C    1.020   144 H    0.983   142 H    0.983
                           143 H    0.971
   110   6 C    3.993 --   111 C    1.421   108 C    1.414   145 H    0.970
                           105 C    0.103
   111   6 C    3.985 --   110 C    1.421   104 C    1.381   112 C    1.020
                           107 C    0.103
   112   6 C    3.996 --   111 C    1.020   146 H    0.986   148 H    0.975
                           147 H    0.973
   113   6 C    3.929 --   103 C    1.330   117 N    1.310   114 C    1.116
   114   6 C    3.968 --   115 C    1.723   113 C    1.116   149 H    0.975
   115   6 C    3.966 --   114 C    1.723   116 C    1.117   150 H    0.976
   116   6 C    3.931 --    76 C    1.363   117 N    1.304   115 C    1.117
   117   7 N    3.010 --   113 C    1.310   116 C    1.304
   118   1 H    1.002 --    76 C    0.971
   119   1 H    0.998 --    78 C    0.977
   120   1 H    1.002 --    79 C    0.975
   121   1 H    0.987 --    81 N    0.874
   122   1 H    1.008 --    85 C    0.974
   123   1 H    1.004 --    85 C    0.986
   124   1 H    1.007 --    85 C    0.974
   125   1 H    1.000 --    86 C    0.970
   126   1 H    1.006 --    88 C    0.971
   127   1 H    1.004 --    88 C    0.983
   128   1 H    1.004 --    88 C    0.983
   129   1 H    1.000 --    89 C    0.970
   130   1 H    1.008 --    91 C    0.974
   131   1 H    1.004 --    91 C    0.986
   132   1 H    1.008 --    91 C    0.973
   133   1 H    1.002 --    93 C    0.975
   134   1 H    1.007 --    94 C    0.968
   135   1 H    1.007 --    99 C    0.968
   136   1 H    1.002 --   100 C    0.975
   137   1 H    0.988 --   102 N    0.873
   138   1 H    1.004 --   106 C    0.986
   139   1 H    1.008 --   106 C    0.973
   140   1 H    1.007 --   106 C    0.975
   141   1 H    1.000 --   107 C    0.970
   142   1 H    1.004 --   109 C    0.983
   143   1 H    1.006 --   109 C    0.971
   144   1 H    1.004 --   109 C    0.983
   145   1 H    1.000 --   110 C    0.970
   146   1 H    1.004 --   112 C    0.986
   147   1 H    1.008 --   112 C    0.973
   148   1 H    1.007 --   112 C    0.975
   149   1 H    1.002 --   114 C    0.975
   150   1 H    0.999 --   115 C    0.976
   151   6 C    3.933 --   152 C    2.572    22 C    1.184
   152   6 C    3.933 --   151 C    2.572    97 C    1.184
 ---------------------------------------------------------------------------

           -------------------------------------------------
          | TOTAL ENERGY             -226.024948418286 Eh   |
          | GRADIENT NORM               0.000266436567 Eh/α |
          | HOMO-LUMO GAP               0.975822710990 eV   |
           -------------------------------------------------

 * finished run on 2022/07/28 at 14:20:14.014
