   * xtb version 6.5.1 (b24c23e) compiled by 'conda@728c89f4b128' on 2022-07-12
          program call               : xtb Fe_Py_C8_3.xyz --gfn 1 --opt -T 48

   ID    Z sym.   atoms
    1   26 Fe     1, 55, 125
    2    6 C      2-6, 8-11, 13-17, 19-24, 26-29, 31-36, 56-60, 62-65, 67-71,
                  73-78, 80-83, 85-90, 109-124, 126-130, 132-135, 137-141,
                  143-148, 150-153, 155-160
    3    7 N      7, 12, 18, 25, 30, 37, 61, 66, 72, 79, 84, 91, 131, 136,
                  142, 149, 154, 161
    4    1 H      38-54, 92-108, 162-177

          :  Hamiltonian                  GFN1-xTB          :
 * total energy  :  -316.0092854 Eh     change        0.3154469E-08 Eh
 * total energy  :  -316.3744889 Eh     change       -0.3652034E+00 Eh
 * total energy  :  -316.4916957 Eh     change       -0.1172069E+00 Eh
 * total energy  :  -316.5407921 Eh     change       -0.4909632E-01 Eh
 * total energy  :  -316.5677368 Eh     change       -0.2694478E-01 Eh
 * total energy  :  -316.5912188 Eh     change       -0.2348199E-01 Eh
 * total energy  :  -316.6220432 Eh     change       -0.3082433E-01 Eh
 * total energy  :  -316.6592724 Eh     change       -0.3722925E-01 Eh
 * total energy  :  -316.7036907 Eh     change       -0.4441833E-01 Eh
 * total energy  :  -316.7497478 Eh     change       -0.4605703E-01 Eh
 * total energy  :  -316.9875604 Eh     change       -0.3088951E-04 Eh
 * total energy  :  -316.9875913 Eh     change       -0.3080192E-04 Eh
 * total energy  :  -316.9876099 Eh     change       -0.1866310E-04 Eh
 * total energy  :  -316.9876229 Eh     change       -0.1298275E-04 Eh
 * total energy  :  -316.9876317 Eh     change       -0.8825150E-05 Eh
 * total energy  :  -316.9876394 Eh     change       -0.7643402E-05 Eh
 * total energy  :  -316.9876390 Eh     change        0.3242108E-06 Eh
 * total energy  :  -316.9876416 Eh     change       -0.2605930E-05 Eh
 * total energy  :  -316.9876422 Eh     change       -0.5218021E-06 Eh
   *** GEOMETRY OPTIMIZATION CONVERGED AFTER 96 ITERATIONS ***

 final structure:
================
177
 xtb: 6.5.1 (b24c23e)
Fe          19.64238235583465       -0.01487072979064        0.00350873356851
C           16.25328594581465       -0.03658878978108        0.04537174650278
C           16.90536614306543       -1.25217326513117        0.06288714999042
C           16.22875123058161       -2.51353436069686        0.10161381148070
C           17.18637461289372       -3.46458102834386        0.20448213280186
C           18.44832042642483       -2.78243162050436        0.22578253568154
N           18.26285739054319       -1.43044194277583        0.11856398571970
C           19.66728210722262       -3.41525224539237        0.44149046975891
C           19.67578749722007       -4.88690124262963        0.61885469466998
C           20.03480627224473       -5.47011207714932        1.83277951687138
C           20.02526552731155       -6.85162900405314        1.94610240470241
N           19.69165012687778       -7.65838671826822        0.94401148665080
C           19.34960705546675       -7.10953934231779       -0.21709688928017
C           19.32392048838188       -5.73962386380863       -0.42628740505012
C           20.87329391711187       -2.73253844468026        0.50306342186401
C           22.13979388841380       -3.36456363853171        0.72610704166699
C           23.08358885443570       -2.39960514908755        0.61409945590541
N           21.04610469898035       -1.38898608671718        0.26753180424909
C           22.39343641565157       -1.18498597618917        0.31052824558438
C           23.05179381903255        0.01111207027217        0.00100354040623
C           22.37355754350044        1.19368715932874       -0.31720370447347
C           23.04065266240968        2.40619319913625       -0.67516557279944
C           22.08041276620088        3.35226453126979       -0.80931802236165
C           20.82969246207405        2.71505535024213       -0.52195092888433
N           21.02406227119130        1.37931255766668       -0.26130945752715
C           19.61365013326876        3.38138428341101       -0.47345248942255
C           19.60216882838422        4.84908386386449       -0.67073642691640
C           18.91700273462539        5.43387622057659       -1.73491557014636
C           18.93714745903300        6.81271872563355       -1.87448818360837
N           19.57858056166058        7.61687447043196       -1.03275624763399
C           20.23222316977119        7.06740238374036       -0.01423526404805
C           20.27567901674760        5.69966997844992        0.20520791542528
C           18.40594463371589        2.73254335965061       -0.24039923613566
C           17.14155441331248        3.40251066499523       -0.13909187001627
C           16.19950775993385        2.44085694359523        0.00381213310145
C           16.88979006287384        1.18640300149875        0.00045387933242
N           18.24154988975011        1.37958495254943       -0.11595998157717
H           15.16938241957930       -0.04292926318558        0.06848354349220
H           15.15775972825127       -2.63429888231121        0.06485975248691
H           17.06206111298107       -4.53277689994515        0.27754473515600
H           20.30340988896027       -4.85077334471057        2.68022135505553
H           20.29709829513009       -7.33015327628759        2.88247776629695
H           19.08443926510658       -7.79486856596001       -1.01688958785402
H           19.04815096599457       -5.33594768846308       -1.39317326843399
H           22.27981096388105       -4.41386259002516        0.92815351394194
H           24.15360438756875       -2.48951351064791        0.71009110221694
H           24.10649528275464        2.50481814057491       -0.80361357822915
H           22.19743532384611        4.38829387365536       -1.08227494570986
H           18.38922776138098        4.81657124805715       -2.45203386840704
H           18.41523749626682        7.29147561833602       -2.69780463330809
H           20.74410732407057        7.75045583229888        0.65730874812102
H           20.81231502400859        5.29612186934611        1.05554414017534
H           17.00597789992070        4.47137406262944       -0.17043481706410
H           15.13139817178535        2.55087362618886        0.10388476658977
Fe          56.74367143104431        0.03476326537680        0.00047824297301
C           60.13774736212570        0.07004192549058        0.05689333040656
C           59.48767974805060        1.24868194134304       -0.24352951575866
C           60.16996859578564        2.47721102565614       -0.51811385424847
C           59.21455696819073        3.41030232638621       -0.73737004173401
C           57.94935961133380        2.74789457542087       -0.60121903916046
N           58.12998308477033        1.42542701506473       -0.29881351419291
C           56.72380655748844        3.39561100707957       -0.70665344599277
C           56.71770292945645        4.84539857216251       -1.01522004766308
C           56.25049749208031        5.78003855984714       -0.09253911302576
C           56.26874158498244        7.12511687552172       -0.42677551011792
N           56.70876961482325        7.57448444636894       -1.59768687804963
C           57.15327312664402        6.68905505897829       -2.48369261970507
C           57.18064017719893        5.32494059718824       -2.23956850074436
C           55.50860208859999        2.75117326759852       -0.53084556650682
C           54.23824403119352        3.40246320410051       -0.65445065753670
C           53.29239450079134        2.45451475080465       -0.45345886740829
N           55.33618514713024        1.41307375615338       -0.26454981565060
C           53.98675373134507        1.22705211273881       -0.21860160701383
C           53.32822333235571        0.01030989879327       -0.00369407793076
C           54.00366001793313       -1.19889919065102        0.20050332938121
C           53.32759633888284       -2.44637430443379        0.37409497297359
C           54.28684525571533       -3.38556616752243        0.55203375990042
C           55.54639154909973       -2.70456081354306        0.49869722599884
N           55.35519913011173       -1.36344713652343        0.26243418706954
C           56.77025496586435       -3.33497172094607        0.66585025851336
C           56.78489490858969       -4.78938254667605        0.94930451903243
C           57.35749691773093       -5.69429943294787        0.05670006256450
C           57.34635887977905       -7.04544600694029        0.36560792372325
N           56.81678898504961       -7.52825356996485        1.48506309073846
C           56.27151569661741       -6.67154854152545        2.34242499782429
C           56.22887012315699       -5.30418277417322        2.11954659678056
C           57.98593075292108       -2.66479982373762        0.58744857291753
C           59.25727785250741       -3.29174149723265        0.80784501153048
C           60.19942438862354       -2.33477547250421        0.63968584261674
C           59.50247251166618       -1.12459259597443        0.32374809572405
N           58.14838069014491       -1.33472604026612        0.30944109469621
H           61.22154195385606        0.08319779347500        0.08377564112941
H           61.24220755834220        2.59163359785296       -0.53013608519573
H           59.34125923306426        4.45732285965266       -0.95978734335142
H           55.89172034556819        5.45935223160154        0.87820174452280
H           55.91431562927372        7.87309332500038        0.27633914997677
H           57.50399683499612        7.08704982257843       -3.43140207529119
H           57.54332010948300        4.63816616486650       -2.99497280778296
H           54.09885858225458        4.44773310957575       -0.87665229170269
H           52.21955788731575        2.55930191029749       -0.46823090995520
H           52.25712604283468       -2.57202091759237        0.35291246842013
H           54.16359988796815       -4.44601048508109        0.69923546910859
H           57.79219501662802       -5.34619891544559       -0.87266394924369
H           57.78178647389209       -7.77057761691084       -0.31547716603244
H           55.84979537950517       -7.09627898569368        3.24872844144439
H           55.78322465573752       -4.64139667854776        2.85159932598378
H           59.39655838569836       -4.32885486846566        1.06619316653228
H           61.27141263817504       -2.41966641964045        0.72074359383596
C           24.45264138800101        0.02346507619827        0.00211715662172
C           25.67880118247990        0.03074906001294        0.00495904928886
C           27.01832660560063        0.04028167683556        0.00481176857276
C           28.25099818635344        0.04643538045727        0.00397474656871
C           29.58551595248006        0.04762016987411        0.00317316963629
C           30.81828077843922        0.04700570955123       -0.00074150620156
C           32.15734919870841        0.04316162359844       -0.00449309043395
C           33.38399306551169        0.03620391106336       -0.01062227156565
C           42.99682612306221       -0.00387964982831        0.00757906950628
C           44.22379634850697       -0.00306462420070        0.00988680660173
C           45.56227776835201       -0.00356764953986        0.01316841163897
C           46.79547922498914       -0.00316134395291        0.01383553998988
C           48.12936289323370       -0.01130120348049        0.00921173342256
C           49.36242220139877       -0.00846356607227        0.00790389536315
C           50.70132303080543       -0.00428870027177       -0.00014424605643
C           51.92789025658826        0.00122977275825       -0.00404043668180
Fe          38.19080351361155        0.00215543373810       -0.01718800892378
C           34.78312530784988        0.02514887148559       -0.01498758163982
C           35.45184307568364       -0.74020878519245        0.95001477607015
C           34.78385353593129       -1.48006805566946        1.97380503094837
C           35.73509633017161       -2.20696966223625        2.61017348623757
C           36.97889709470287       -1.91384392676841        1.96361807003859
N           36.79444285936228       -0.97242304608155        0.98113529384609
C           38.17690746584455       -2.56322853427770        2.23793205098227
C           38.17119564646204       -3.67070548226823        3.21956311600459
C           37.39325557428632       -4.81088143066345        3.02149736023614
C           37.42258324707776       -5.82115072112234        3.96983782356356
N           38.15761642500004       -5.75566321320304        5.07517723639906
C           38.89959407703055       -4.67091706890682        5.27307812801503
C           38.94241098458262       -3.61210156014013        4.37987076882473
C           39.38019208912801       -2.21594831197225        1.63559209929355
C           40.62004964830195       -2.89839200159671        1.85511138985845
C           41.57973549734523       -2.17548746727771        1.22681399706262
N           39.57566948129119       -1.12200963330566        0.82850924588922
C           40.92068683672292       -1.06326945093234        0.61830767226213
C           41.59839903562766       -0.00283332823268        0.00057889297205
C           40.92929801068111        1.05487925582703       -0.63095687882016
C           41.59715573077600        2.15997620934356       -1.24311633275760
C           40.64748694207732        2.87201313690183       -1.89845819146682
C           39.40444423900126        2.19268906817736       -1.68779518847289
N           39.58757833987505        1.10980285750845       -0.86359339008426
C           38.20831618849184        2.53697604879870       -2.30646064328989
C           38.22075395920918        3.62709566053895       -3.30724609156002
C           39.00220771856224        3.53978164094256       -4.45897227568772
C           38.97904738455028        4.58271988782110       -5.37133684209755
N           38.24689418943346        5.67856603647933       -5.19976233433481
C           37.50258718604254        5.77159755678071       -4.10264363173265
C           37.45363324547758        4.77888785318284       -3.13665830189533
C           37.00260480872793        1.90528858489972       -2.02527138034434
C           35.76124652674784        2.20954647355371       -2.67159253628856
C           34.79997917097053        1.51149625799268       -2.01819983952715
C           35.45981475975047        0.77399482594756       -0.98746132219640
N           36.80614463546448        0.98069488137114       -1.02880999161823
H           33.72394721466371       -1.44125826259985        2.16714508734549
H           35.61458858877112       -2.87984877110205        3.44340148930106
H           36.78727067449810       -4.91205898942325        2.12911589826611
H           36.82950643242089       -6.72095051952031        3.83575045362119
H           39.48671848758660       -4.64616081128725        6.18633924494879
H           39.55309408389209       -2.74167582388604        4.58798337341485
H           40.73229109581633       -3.81158122644806        2.41642187275753
H           42.63996118782325       -2.36400543699314        1.17532839629830
H           42.65618497249665        2.35061887998937       -1.17679644317814
H           40.76818467173856        3.77697924843507       -2.47122850581197
H           39.60594803299055        2.65968710470090       -4.64529217110886
H           39.57454708540996        4.53562456060141       -6.27823749868358
H           36.91823836084574        6.67993849200071       -3.99006414219787
H           36.84123344327861        4.90296683017370       -2.25158388082773
H           35.64876966591559        2.87100651879907       -3.51500093179962
H           33.73850088704963        1.48935178904858       -2.20537011075160

          :  Hamiltonian                  GFN1-xTB          :
         :: total energy            -316.987642172137 Eh    ::
         :: gradient norm              0.000987919429 Eh/a0 ::
         :: HOMO-LUMO gap              0.055269613534 eV    ::
         :: SCC energy              -322.306150319463 Eh    ::
         :: repulsion energy           5.478894902744 Eh    ::

    * Orbital Energies and Occupations

         #    Occupation            Energy/Eh            Energy/eV
      -------------------------------------------------------------
         1        2.0000           -0.7796623             -21.2157
       ...           ...                  ...                  ...
       282        2.0000           -0.4029470             -10.9647
       283        2.0000           -0.4020872             -10.9413
       284        1.9942           -0.3965622             -10.7910
       285        1.9931           -0.3963980             -10.7865
       286        1.9918           -0.3962356             -10.7821
       287        1.9909           -0.3961316             -10.7793
       288        1.9643           -0.3948207             -10.7436
       289        1.9551           -0.3945975             -10.7375
       290        1.9466           -0.3944283             -10.7329
       291        1.9430           -0.3943647             -10.7312
       292        1.9414           -0.3943372             -10.7305
       293        1.9367           -0.3942626             -10.7284
       294        1.3102           -0.3916216             -10.6566 (HOMO)
       295        0.3659           -0.3895905             -10.6013 (LUMO)
       296        0.3344           -0.3894868             -10.5985
       297        0.3323           -0.3894794             -10.5983
       298                         -0.3522334              -9.5848
       299                         -0.3423740              -9.3165
       300                         -0.3386277              -9.2145
       301                         -0.3378009              -9.1920
       302                         -0.3349612              -9.1148
       303                         -0.3345371              -9.1032
       304                         -0.3206675              -8.7258
       305                         -0.3132822              -8.5248
       ...                                ...                  ...
       623                          1.5920601              43.3222
      -------------------------------------------------------------
                  HL-Gap            0.0020311 Eh            0.0553 eV

Wiberg/Mayer (AO) data.
largest (>0.10) Wiberg bond orders for each atom

     #   Z sym  total        # sym  WBO       # sym  WBO       # sym  WBO
 ---------------------------------------------------------------------------
     1  26 Fe   3.104 --     7 N    0.668    37 N    0.668    25 N    0.661
                            18 N    0.661
     2   6 C    3.920 --    36 C    1.364     3 C    1.364    38 H    0.970
     3   6 C    3.923 --     2 C    1.364     7 N    1.209     4 C    1.172
     4   6 C    3.959 --     5 C    1.651     3 C    1.172    39 H    0.975
     5   6 C    3.961 --     4 C    1.651     6 C    1.174    40 H    0.973
     6   6 C    3.920 --     8 C    1.316     7 N    1.223     5 C    1.174
     7   7 N    3.382 --     6 C    1.223     3 C    1.209     1 Fe   0.668
     8   6 C    3.924 --    15 C    1.335     6 C    1.316     9 C    1.023
     9   6 C    3.986 --    10 C    1.395    14 C    1.394     8 C    1.023
                            12 N    0.107
    10   6 C    3.987 --    11 C    1.441     9 C    1.395    41 H    0.973
                            13 C    0.109
    11   6 C    3.972 --    10 C    1.441    12 N    1.416    42 H    0.972
                            14 C    0.109
    12   7 N    3.031 --    11 C    1.416    13 C    1.416     9 C    0.107
    13   6 C    3.972 --    14 C    1.441    12 N    1.416    43 H    0.972
                            10 C    0.109
    14   6 C    3.987 --    13 C    1.441     9 C    1.394    44 H    0.973
                            11 C    0.109
    15   6 C    3.917 --     8 C    1.335    18 N    1.199    16 C    1.179
    16   6 C    3.956 --    17 C    1.640    15 C    1.179    45 H    0.972
    17   6 C    3.960 --    16 C    1.640    19 C    1.187    46 H    0.973
    18   7 N    3.381 --    19 C    1.244    15 C    1.199     1 Fe   0.661
    19   6 C    3.902 --    20 C    1.252    18 N    1.244    17 C    1.187
    20   6 C    3.923 --    19 C    1.252    21 C    1.251   109 C    1.202
    21   6 C    3.902 --    20 C    1.251    25 N    1.244    22 C    1.188
    22   6 C    3.959 --    23 C    1.639    21 C    1.188    47 H    0.973
    23   6 C    3.956 --    22 C    1.639    24 C    1.179    48 H    0.973
    24   6 C    3.917 --    26 C    1.334    25 N    1.199    23 C    1.179
    25   7 N    3.380 --    21 C    1.244    24 C    1.199     1 Fe   0.661
    26   6 C    3.924 --    24 C    1.334    33 C    1.313    27 C    1.028
    27   6 C    3.986 --    28 C    1.393    32 C    1.392    26 C    1.028
                            30 N    0.107
    28   6 C    3.987 --    29 C    1.442    27 C    1.393    49 H    0.973
                            31 C    0.109
    29   6 C    3.972 --    28 C    1.442    30 N    1.416    50 H    0.972
                            32 C    0.109
    30   7 N    3.030 --    29 C    1.416    31 C    1.416    27 C    0.107
    31   6 C    3.972 --    32 C    1.442    30 N    1.416    51 H    0.972
                            28 C    0.109
    32   6 C    3.987 --    31 C    1.442    27 C    1.392    52 H    0.973
                            29 C    0.109
    33   6 C    3.920 --    26 C    1.313    37 N    1.224    34 C    1.175
    34   6 C    3.961 --    35 C    1.650    33 C    1.175    53 H    0.973
    35   6 C    3.958 --    34 C    1.650    36 C    1.173    54 H    0.975
    36   6 C    3.923 --     2 C    1.364    37 N    1.208    35 C    1.173
    37   7 N    3.381 --    33 C    1.224    36 C    1.208     1 Fe   0.668
    38   1 H    1.000 --     2 C    0.970
    39   1 H    0.997 --     4 C    0.975
    40   1 H    1.004 --     5 C    0.973
    41   1 H    1.003 --    10 C    0.973
    42   1 H    1.013 --    11 C    0.972
    43   1 H    1.013 --    13 C    0.972
    44   1 H    1.003 --    14 C    0.973
    45   1 H    1.004 --    16 C    0.972
    46   1 H    1.001 --    17 C    0.973
    47   1 H    1.001 --    22 C    0.973
    48   1 H    1.004 --    23 C    0.973
    49   1 H    1.004 --    28 C    0.973
    50   1 H    1.013 --    29 C    0.972
    51   1 H    1.013 --    31 C    0.972
    52   1 H    1.004 --    32 C    0.973
    53   1 H    1.004 --    34 C    0.973
    54   1 H    0.997 --    35 C    0.975
    55  26 Fe   3.085 --    91 N    0.664    61 N    0.664    72 N    0.657
                            79 N    0.657
    56   6 C    3.919 --    90 C    1.364    57 C    1.363    92 H    0.970
    57   6 C    3.924 --    56 C    1.363    61 N    1.210    58 C    1.172
    58   6 C    3.959 --    59 C    1.651    57 C    1.172    93 H    0.975
    59   6 C    3.961 --    58 C    1.651    60 C    1.174    94 H    0.973
    60   6 C    3.920 --    62 C    1.314    61 N    1.225    59 C    1.174
    61   7 N    3.380 --    60 C    1.225    57 C    1.210    55 Fe   0.664
    62   6 C    3.922 --    69 C    1.336    60 C    1.314    63 C    1.024
    63   6 C    3.986 --    64 C    1.394    68 C    1.394    62 C    1.024
                            66 N    0.107
    64   6 C    3.987 --    65 C    1.441    63 C    1.394    95 H    0.973
                            67 C    0.109
    65   6 C    3.972 --    64 C    1.441    66 N    1.416    96 H    0.972
                            68 C    0.109
    66   7 N    3.031 --    65 C    1.416    67 C    1.416    63 C    0.107
    67   6 C    3.972 --    68 C    1.441    66 N    1.416    97 H    0.972
                            64 C    0.109
    68   6 C    3.987 --    67 C    1.441    63 C    1.394    98 H    0.973
                            65 C    0.109
    69   6 C    3.917 --    62 C    1.336    72 N    1.199    70 C    1.178
    70   6 C    3.956 --    71 C    1.640    69 C    1.178    99 H    0.973
    71   6 C    3.960 --    70 C    1.640    73 C    1.187   100 H    0.973
    72   7 N    3.379 --    73 C    1.247    69 C    1.199    55 Fe   0.657
    73   6 C    3.902 --    74 C    1.250    72 N    1.247    71 C    1.187
    74   6 C    3.920 --    73 C    1.250    75 C    1.250   124 C    1.206
    75   6 C    3.902 --    74 C    1.250    79 N    1.247    76 C    1.187
    76   6 C    3.960 --    77 C    1.640    75 C    1.187   101 H    0.973
    77   6 C    3.956 --    76 C    1.640    78 C    1.178   102 H    0.973
    78   6 C    3.917 --    80 C    1.336    79 N    1.199    77 C    1.178
    79   7 N    3.379 --    75 C    1.247    78 C    1.199    55 Fe   0.657
    80   6 C    3.922 --    78 C    1.336    87 C    1.313    81 C    1.026
    81   6 C    3.986 --    86 C    1.393    82 C    1.393    80 C    1.026
                            84 N    0.107
    82   6 C    3.987 --    83 C    1.441    81 C    1.393   103 H    0.973
                            85 C    0.109
    83   6 C    3.972 --    82 C    1.441    84 N    1.416   104 H    0.972
                            86 C    0.109
    84   7 N    3.031 --    85 C    1.416    83 C    1.416    81 C    0.107
    85   6 C    3.972 --    86 C    1.441    84 N    1.416   105 H    0.972
                            82 C    0.109
    86   6 C    3.987 --    85 C    1.441    81 C    1.393   106 H    0.973
                            83 C    0.109
    87   6 C    3.920 --    80 C    1.313    91 N    1.226    88 C    1.175
    88   6 C    3.961 --    89 C    1.650    87 C    1.175   107 H    0.973
    89   6 C    3.959 --    88 C    1.650    90 C    1.172   108 H    0.975
    90   6 C    3.924 --    56 C    1.364    91 N    1.209    89 C    1.172
    91   7 N    3.380 --    87 C    1.226    90 C    1.209    55 Fe   0.664
    92   1 H    1.000 --    56 C    0.970
    93   1 H    0.997 --    58 C    0.975
    94   1 H    1.004 --    59 C    0.973
    95   1 H    1.003 --    64 C    0.973
    96   1 H    1.013 --    65 C    0.972
    97   1 H    1.013 --    67 C    0.972
    98   1 H    1.003 --    68 C    0.973
    99   1 H    1.004 --    70 C    0.973
   100   1 H    1.001 --    71 C    0.973
   101   1 H    1.001 --    76 C    0.973
   102   1 H    1.004 --    77 C    0.973
   103   1 H    1.003 --    82 C    0.973
   104   1 H    1.013 --    83 C    0.972
   105   1 H    1.013 --    85 C    0.972
   106   1 H    1.003 --    86 C    0.973
   107   1 H    1.004 --    88 C    0.973
   108   1 H    0.997 --    89 C    0.975
   109   6 C    3.863 --   110 C    2.415    20 C    1.202   112 C    0.183
   110   6 C    3.926 --   109 C    2.415   111 C    1.361
   111   6 C    3.880 --   112 C    2.308   110 C    1.361   114 C    0.177
   112   6 C    3.915 --   111 C    2.308   113 C    1.388   109 C    0.183
   113   6 C    3.912 --   114 C    2.306   112 C    1.388   116 C    0.182
   114   6 C    3.881 --   113 C    2.306   115 C    1.364   111 C    0.177
   115   6 C    3.920 --   116 C    2.409   114 C    1.364
   116   6 C    3.864 --   115 C    2.409   126 C    1.210   113 C    0.182
   117   6 C    3.863 --   118 C    2.404   144 C    1.213   120 C    0.182
   118   6 C    3.919 --   117 C    2.404   119 C    1.367
   119   6 C    3.880 --   120 C    2.301   118 C    1.367   122 C    0.177
   120   6 C    3.912 --   119 C    2.301   121 C    1.392   117 C    0.182
   121   6 C    3.914 --   122 C    2.303   120 C    1.392   124 C    0.182
   122   6 C    3.879 --   121 C    2.303   123 C    1.365   119 C    0.177
   123   6 C    3.924 --   124 C    2.410   122 C    1.365
   124   6 C    3.862 --   123 C    2.410    74 C    1.206   121 C    0.182
   125  26 Fe   3.077 --   161 N    0.652   142 N    0.652   131 N    0.651
                           149 N    0.651
   126   6 C    3.907 --   127 C    1.246   160 C    1.246   116 C    1.210
   127   6 C    3.903 --   126 C    1.246   131 N    1.245   128 C    1.191
   128   6 C    3.959 --   129 C    1.634   127 C    1.191   162 H    0.973
   129   6 C    3.958 --   128 C    1.634   130 C    1.183   163 H    0.973
   130   6 C    3.915 --   132 C    1.320   131 N    1.204   129 C    1.183
   131   7 N    3.368 --   127 C    1.245   130 C    1.204   125 Fe   0.651
   132   6 C    3.915 --   139 C    1.322   130 C    1.320   133 C    1.031
   133   6 C    3.986 --   134 C    1.391   138 C    1.391   132 C    1.031
                           136 N    0.106
   134   6 C    3.986 --   135 C    1.442   133 C    1.391   164 H    0.973
                           137 C    0.109
   135   6 C    3.972 --   134 C    1.442   136 N    1.416   165 H    0.972
                           138 C    0.109
   136   7 N    3.030 --   135 C    1.416   137 C    1.416   133 C    0.106
   137   6 C    3.972 --   138 C    1.442   136 N    1.416   166 H    0.972
                           134 C    0.109
   138   6 C    3.986 --   137 C    1.442   133 C    1.391   167 H    0.973
                           135 C    0.109
   139   6 C    3.915 --   132 C    1.322   142 N    1.203   140 C    1.183
   140   6 C    3.958 --   141 C    1.634   139 C    1.183   168 H    0.973
   141   6 C    3.959 --   140 C    1.634   143 C    1.191   169 H    0.973
   142   7 N    3.368 --   143 C    1.247   139 C    1.203   125 Fe   0.652
   143   6 C    3.903 --   142 N    1.247   144 C    1.244   141 C    1.191
   144   6 C    3.906 --   145 C    1.245   143 C    1.244   117 C    1.213
   145   6 C    3.902 --   149 N    1.246   144 C    1.245   146 C    1.191
   146   6 C    3.959 --   147 C    1.634   145 C    1.191   170 H    0.973
   147   6 C    3.958 --   146 C    1.634   148 C    1.183   171 H    0.973
   148   6 C    3.915 --   150 C    1.321   149 N    1.204   147 C    1.183
   149   7 N    3.368 --   145 C    1.246   148 C    1.204   125 Fe   0.651
   150   6 C    3.915 --   157 C    1.322   148 C    1.321   151 C    1.031
   151   6 C    3.986 --   156 C    1.391   152 C    1.391   150 C    1.031
                           154 N    0.106
   152   6 C    3.986 --   153 C    1.442   151 C    1.391   172 H    0.973
                           155 C    0.109
   153   6 C    3.972 --   152 C    1.442   154 N    1.416   173 H    0.972
                           156 C    0.109
   154   7 N    3.030 --   155 C    1.416   153 C    1.416   151 C    0.106
   155   6 C    3.972 --   156 C    1.441   154 N    1.416   174 H    0.972
                           152 C    0.109
   156   6 C    3.986 --   155 C    1.441   151 C    1.391   175 H    0.973
                           153 C    0.109
   157   6 C    3.915 --   150 C    1.322   161 N    1.204   158 C    1.183
   158   6 C    3.958 --   159 C    1.634   157 C    1.183   176 H    0.973
   159   6 C    3.959 --   158 C    1.634   160 C    1.191   177 H    0.973
   160   6 C    3.903 --   161 N    1.246   126 C    1.246   159 C    1.191
   161   7 N    3.369 --   160 C    1.246   157 C    1.204   125 Fe   0.652
   162   1 H    1.001 --   128 C    0.973
   163   1 H    1.004 --   129 C    0.973
   164   1 H    1.004 --   134 C    0.973
   165   1 H    1.013 --   135 C    0.972
   166   1 H    1.013 --   137 C    0.972
   167   1 H    1.004 --   138 C    0.973
   168   1 H    1.004 --   140 C    0.973
   169   1 H    1.001 --   141 C    0.973
   170   1 H    1.001 --   146 C    0.973
   171   1 H    1.004 --   147 C    0.973
   172   1 H    1.004 --   152 C    0.973
   173   1 H    1.013 --   153 C    0.972
   174   1 H    1.013 --   155 C    0.972
   175   1 H    1.004 --   156 C    0.973
   176   1 H    1.004 --   158 C    0.973
   177   1 H    1.001 --   159 C    0.973
 ---------------------------------------------------------------------------

           -------------------------------------------------
          | TOTAL ENERGY             -316.987642172137 Eh   |
          | GRADIENT NORM               0.000987919429 Eh/α |
          | HOMO-LUMO GAP               0.055269613534 eV   |
           -------------------------------------------------

 * finished run on 2022/07/29 at 17:42:12.027
