   * xtb version 6.5.1 (b24c23e) compiled by 'conda@728c89f4b128' on 2022-07-12
          program call               : xtb Co_PhOH_C8_2.xyz --gfn 1 --opt -T 48

   ID    Z sym.   atoms
    1   27 Co     1, 59
    2    6 C      2-6, 8-12, 14-18, 20-25, 27-31, 33-38, 60-64, 66-70, 72-76,
                  78-83, 85-89, 91-96, 117-124
    3    7 N      7, 19, 26, 39, 65, 77, 84, 97
    4    8 O      13, 32, 71, 90
    5    1 H      40-58, 98-116
########################################################################
[WARNING] Please study the warnings concerning your input carefully
-1- prog_main_parseArguments: Unknown option '-T' provided
########################################################################

          :  Hamiltonian                  GFN1-xTB          :
 * total energy  :  -222.9451095 Eh     change       -0.2160562E-08 Eh
 * total energy  :  -223.6142122 Eh     change       -0.6691027E+00 Eh
 * total energy  :  -223.7369929 Eh     change       -0.1227807E+00 Eh
 * total energy  :  -223.7920362 Eh     change       -0.5504338E-01 Eh
 * total energy  :  -223.8138894 Eh     change       -0.2185320E-01 Eh
 * total energy  :  -223.8247802 Eh     change       -0.1089075E-01 Eh
 * total energy  :  -223.8322175 Eh     change       -0.7437281E-02 Eh
 * total energy  :  -223.8378191 Eh     change       -0.5601638E-02 Eh
 * total energy  :  -223.8417658 Eh     change       -0.3946717E-02 Eh
 * total energy  :  -223.8445555 Eh     change       -0.2789704E-02 Eh
 * total energy  :  -223.8535208 Eh     change       -0.9858158E-05 Eh
 * total energy  :  -223.8535301 Eh     change       -0.9293726E-05 Eh
 * total energy  :  -223.8535231 Eh     change        0.7037118E-05 Eh
 * total energy  :  -223.8535364 Eh     change       -0.1333331E-04 Eh
 * total energy  :  -223.8535356 Eh     change        0.8495118E-06 Eh
 * total energy  :  -223.8535412 Eh     change       -0.5650031E-05 Eh
 * total energy  :  -223.8535354 Eh     change        0.5883774E-05 Eh
 * total energy  :  -223.8535494 Eh     change       -0.1400212E-04 Eh
 * total energy  :  -223.8535534 Eh     change       -0.4007608E-05 Eh
   *** GEOMETRY OPTIMIZATION CONVERGED AFTER 50 ITERATIONS ***

 final structure:
================
124
 xtb: 6.5.1 (b24c23e)
Co          13.04211127945189       -0.02972469401225       -0.12433266601567
C            9.67840961739011       -0.07812051629114       -0.35374766442230
C           10.36161121777303       -1.26900313539213       -0.47352548340445
C            9.72007255993798       -2.53240672103751       -0.67519041117870
C           10.66780911831939       -3.48159564568889       -0.49287653164804
C           11.89318218181451       -2.79610471376687       -0.20367746695525
N           11.70197147199498       -1.43862953063569       -0.23045402676113
C           13.06781504326559       -3.42704217908423        0.18646980404612
C           13.07658206706729       -4.90146645189397        0.34717354431210
C           12.88397742060870       -5.73717933510135       -0.75249678951892
C           12.89566429927819       -7.11559903720253       -0.60341952989757
C           13.09556864527779       -7.67281082572129        0.65742624724250
O           13.11064859140142       -9.01706730907929        0.84880908611397
C           13.28825839145715       -6.84771860631630        1.76397962534030
C           13.28205731971252       -5.47323032051383        1.60446362141307
C           14.24128106917439       -2.72212816395069        0.40358337647340
C           15.49599113950293       -3.34250339336140        0.70756234593437
C           16.44538824771575       -2.38376354520101        0.59000151353986
N           14.41873023967020       -1.37795258565243        0.15956980837888
C           15.76832075384281       -1.17928296125931        0.22766130753284
C           16.43239862529687        0.00583158836327       -0.10316996952725
C           15.73994813153539        1.19181234143405       -0.36180399628037
C           16.38604100883193        2.42894647723100       -0.66484599243326
C           15.42541597370827        3.38452155334016       -0.63957655241411
C           14.19430768120597        2.72509176638769       -0.32551353023307
N           14.39316053644673        1.36902303555806       -0.20856132892006
C           12.99275198875704        3.38367434312225       -0.10520284947295
C           12.97832365775073        4.86401842100585       -0.09611837689610
C           13.75748335200702        5.57552248824543        0.81989485151835
C           13.74800186833606        6.95878255588766        0.83440707413515
C           12.96069756233794        7.65456052789797       -0.08150182069050
O           12.97834815975164        9.01140718578867       -0.04301173371585
C           12.18420953444010        6.95885545092586       -1.00549754064039
C           12.19320269378559        5.57289311334152       -1.00648078990957
C           11.80166474044429        2.69086075005173        0.06722036967395
C           10.52860049912940        3.31704536029517        0.27508890298863
C            9.59199928785384        2.34552973221293        0.16500042163258
C           10.29544501451625        1.12357942428915       -0.07848144973044
N           11.65103119620422        1.33443451396940       -0.07637772865912
H            8.59867579975252       -0.09305853638112       -0.44520502421540
H            8.67219690186351       -2.65674220246403       -0.89777600756390
H           10.55570415068364       -4.55291716420604       -0.53228318629522
H           12.74200252372920       -5.30475218376862       -1.73664703613675
H           12.75198406204369       -7.76176228433863       -1.46277641935485
H           12.96681744352371       -9.49275678656159        0.01972105827806
H           13.44044123897596       -7.29485817790486        2.73852548738582
H           13.42253102148196       -4.83059205568205        2.46633308504436
H           15.62524534626831       -4.38547151009694        0.94642597400519
H           17.51172100366539       -2.46987975395566        0.72329219560724
H           17.44146161871920        2.53734531734414       -0.85633226675913
H           15.52879998378304        4.44153017507358       -0.82338876087956
H           14.36179087769713        5.03433891278538        1.53928246514267
H           14.34433166521995        7.51268541533880        1.54883770047667
H           12.39798308337601        9.39093521806765       -0.71648721312882
H           11.57834715172647        7.50439693826997       -1.72105011868480
H           11.60021005012941        5.03339328777556       -1.73661680481888
H           10.38339343611519        4.36668734398021        0.47290514870745
H            8.51947896790383        2.42803720033964        0.24233627794204
Co          31.55872869706251        0.00894433984429       -0.12750145034887
C           34.92272834930596        0.02644657724786       -0.35675869082079
C           34.23900926607320        1.18694792475932       -0.64848582864358
C           34.87982210695564        2.40846112817414       -1.03017629412376
C           33.93111703211484        3.37316150563092       -0.98826564410314
C           32.70603129368706        2.73566194271978       -0.60381165121498
N           32.89823307224157        1.38874884896309       -0.43396495126720
C           31.53106874488212        3.41542256160928       -0.30802870830480
C           31.52131863441328        4.89762656976941       -0.36096397154433
C           31.71183336858106        5.56661583883689       -1.56965923524208
C           31.69898000332260        6.95213267353985       -1.62035677679884
C           31.50008433356079        7.68473250135046       -0.45247956392370
O           31.48394515472637        9.04252902426820       -0.45643885473052
C           31.30956306497429        7.02723011781712        0.76149610218679
C           31.31687144153707        5.64408812622459        0.80130631853745
C           30.35835093845265        2.74832230884534        0.00932200584508
C           29.10351201248645        3.40504243534362        0.22299623711414
C           28.15471207961234        2.43879792157826        0.24482811911404
N           30.18161062128731        1.38292149393290       -0.03959376492079
C           28.83228499737346        1.19523749534996        0.05778543675800
C           28.16848640103760       -0.02527475486855       -0.09975761784373
C           28.86138615665498       -1.23564678226296       -0.18747077425833
C           28.21612119307340       -2.50373593688917       -0.31117279876540
C           29.17738114526919       -3.44532519754575       -0.14997318631418
C           30.40804367335488       -2.74705264865843        0.06693042883224
N           30.20834739517490       -1.38832611362106       -0.01093340288562
C           31.60978643865774       -3.36652344981135        0.38019891540674
C           31.62515761443900       -4.83025076777351        0.60118669776937
C           30.84406702421398       -5.40415974752923        1.60764969546100
C           30.85448626140852       -6.77107630496186        1.82005954157445
C           31.64483412829093       -7.58995732657225        1.01530231830684
O           31.62796027691670       -8.92732299690454        1.24758907452825
C           32.42346744267495       -7.03283222927107        0.00334643868753
C           32.41337182685884       -5.66131999664947       -0.19615956057972
C           32.80024875834506       -2.65523116851758        0.45334225814052
C           34.07326225417953       -3.24397775426235        0.75136478720836
C           35.00949870023873       -2.29738195510338        0.50517069550749
C           34.30584385833921       -1.12363017318942        0.08749912701544
N           32.95037347157026       -1.33323626354636        0.11721108998189
H           36.00262739203508        0.02894253435900       -0.44745046885282
H           35.92786556636452        2.50025475359294       -1.26730216517908
H           34.04237806245801        4.42759356202361       -1.18230993846441
H           31.85306500235299        4.99720816659075       -2.48153983140960
H           31.84092785044541        7.46812192691915       -2.56389853928334
H           31.62637405218761        9.39406541750508       -1.34553473890514
H           31.15813690943315        7.60974431884550        1.66181835602834
H           31.17808255120030        5.13198400283522        1.74683411281970
H           28.97378180506480        4.47135434987734        0.31065720438799
H           27.08846385791542        2.54241763063461        0.36575037409427
H           27.16076088846740       -2.63902639273556       -0.48508371457945
H           29.07465330087104       -4.51780790576047       -0.18109449528269
H           30.23749594269846       -4.76624858320708        2.24068272651552
H           30.25659078127732       -7.21764234088058        2.60487089240940
H           32.21086011834254       -9.39874365019705        0.63732610530831
H           33.03185561579664       -7.67448316115138       -0.62501904813131
H           33.00796352802706       -5.23127719648893       -0.99448442111808
H           34.21882412787755       -4.25424639378240        1.09796223698299
H           36.08189086291377       -2.36698514269736        0.59580143541489
C           17.83393786774853        0.00961527555152       -0.14087205168113
C           19.05912345492211        0.00418647891414       -0.16552949668059
C           20.40042001954868       -0.00308425568531       -0.18365000250009
C           21.63212600672511       -0.01277408452753       -0.19014782468598
C           22.96873191823063       -0.02261429760507       -0.18913659192319
C           24.20044549319230       -0.03095360096397       -0.18045251506240
C           25.54175458732217       -0.03312391447382       -0.16164790568898
C           26.76691968949349       -0.03475137702463       -0.13492248163014

          :  Hamiltonian                  GFN1-xTB          :
         :: total energy            -223.853553371806 Eh    ::
         :: gradient norm              0.000360999629 Eh/a0 ::
         :: HOMO-LUMO gap              0.008937666902 eV    ::
         :: SCC energy              -227.392821823205 Eh    ::
         :: repulsion energy           3.647249203068 Eh    ::

    * Orbital Energies and Occupations

         #    Occupation            Energy/Eh            Energy/eV
      -------------------------------------------------------------
         1        2.0000           -0.8065344             -21.9469
       ...           ...                  ...                  ...
       192        2.0000           -0.4156023             -11.3091
       193        2.0000           -0.4095799             -11.1452
       194        2.0000           -0.3961144             -10.7788
       195        2.0000           -0.3961120             -10.7788
       196        2.0000           -0.3947783             -10.7425
       197        2.0000           -0.3942597             -10.7284
       198        1.9999           -0.3919095             -10.6644
       199        1.9998           -0.3908876             -10.6366
       200        1.9998           -0.3908864             -10.6366
       201        1.9998           -0.3907949             -10.6341
       202        1.9998           -0.3907888             -10.6339
       203        1.8913           -0.3846435             -10.4667
       204        1.1407           -0.3821986             -10.4002 (HOMO)
       205        0.9687           -0.3818701             -10.3912 (LUMO)
       206                         -0.3386969              -9.2164
       207                         -0.3284624              -8.9379
       208                         -0.3265345              -8.8855
       209                         -0.3265302              -8.8853
       210                         -0.3024490              -8.2301
       211                         -0.3021732              -8.2226
       212                         -0.2925833              -7.9616
       213                         -0.2925490              -7.9607
       214                         -0.2920430              -7.9469
       215                         -0.2758135              -7.5053
       ...                                ...                  ...
       430                          1.6017340              43.5854
      -------------------------------------------------------------
                  HL-Gap            0.0003285 Eh            0.0089 eV

Wiberg/Mayer (AO) data.
largest (>0.10) Wiberg bond orders for each atom

     #   Z sym  total        # sym  WBO       # sym  WBO       # sym  WBO
 ---------------------------------------------------------------------------
     1  27 Co   3.048 --    39 N    0.639     7 N    0.636    19 N    0.636
                            26 N    0.632
     2   6 C    3.928 --     3 C    1.366    38 C    1.362    40 H    0.970
     3   6 C    3.925 --     2 C    1.366     7 N    1.200     4 C    1.174
     4   6 C    3.959 --     5 C    1.648     3 C    1.174    41 H    0.975
     5   6 C    3.963 --     4 C    1.648     6 C    1.178    42 H    0.973
     6   6 C    3.919 --     8 C    1.316     7 N    1.216     5 C    1.178
     7   7 N    3.347 --     6 C    1.216     3 C    1.200     1 Co   0.636
     8   6 C    3.932 --    16 C    1.338     6 C    1.316     9 C    1.022
     9   6 C    3.988 --    10 C    1.396    15 C    1.386     8 C    1.022
    10   6 C    3.988 --    11 C    1.451     9 C    1.396    43 H    0.973
                            14 C    0.105
    11   6 C    3.988 --    10 C    1.451    12 C    1.372    44 H    0.970
                            15 C    0.103
    12   6 C    3.902 --    11 C    1.372    14 C    1.365    13 O    1.041
    13   8 O    2.044 --    12 C    1.041    45 H    0.865
    14   6 C    3.990 --    15 C    1.466    12 C    1.365    46 H    0.971
                            10 C    0.105
    15   6 C    3.988 --    14 C    1.466     9 C    1.386    47 H    0.973
                            11 C    0.103
    16   6 C    3.916 --     8 C    1.338    19 N    1.189    17 C    1.180
    17   6 C    3.958 --    18 C    1.639    16 C    1.180    48 H    0.973
    18   6 C    3.962 --    17 C    1.639    20 C    1.190    49 H    0.973
    19   7 N    3.347 --    20 C    1.235    16 C    1.189     1 Co   0.636
    20   6 C    3.903 --    21 C    1.255    19 N    1.235    18 C    1.190
    21   6 C    3.933 --    22 C    1.258    20 C    1.255   117 C    1.196
    22   6 C    3.903 --    21 C    1.258    26 N    1.229    23 C    1.192
    23   6 C    3.961 --    24 C    1.634    22 C    1.192    50 H    0.973
    24   6 C    3.959 --    23 C    1.634    25 C    1.184    51 H    0.973
    25   6 C    3.916 --    27 C    1.327    26 N    1.197    24 C    1.184
    26   7 N    3.348 --    22 C    1.229    25 C    1.197     1 Co   0.632
    27   6 C    3.933 --    25 C    1.327    35 C    1.320    28 C    1.032
    28   6 C    3.988 --    34 C    1.391    29 C    1.381    27 C    1.032
    29   6 C    3.986 --    30 C    1.468    28 C    1.381    52 H    0.973
                            33 C    0.102
    30   6 C    3.990 --    29 C    1.468    31 C    1.363    53 H    0.971
                            34 C    0.104
    31   6 C    3.900 --    33 C    1.371    30 C    1.363    32 O    1.042
    32   8 O    2.044 --    31 C    1.042    54 H    0.865
    33   6 C    3.988 --    34 C    1.454    31 C    1.371    55 H    0.970
                            29 C    0.102
    34   6 C    3.987 --    33 C    1.454    28 C    1.391    56 H    0.972
                            30 C    0.104
    35   6 C    3.920 --    27 C    1.320    39 N    1.211    36 C    1.177
    36   6 C    3.963 --    37 C    1.647    35 C    1.177    57 H    0.973
    37   6 C    3.958 --    36 C    1.647    38 C    1.176    58 H    0.975
    38   6 C    3.925 --     2 C    1.362    39 N    1.203    37 C    1.176
    39   7 N    3.345 --    35 C    1.211    38 C    1.203     1 Co   0.639
    40   1 H    1.000 --     2 C    0.970
    41   1 H    0.998 --     4 C    0.975
    42   1 H    1.005 --     5 C    0.973
    43   1 H    1.004 --    10 C    0.973
    44   1 H    0.999 --    11 C    0.970
    45   1 H    0.887 --    13 O    0.865
    46   1 H    0.999 --    14 C    0.971
    47   1 H    1.004 --    15 C    0.973
    48   1 H    1.004 --    17 C    0.973
    49   1 H    1.001 --    18 C    0.973
    50   1 H    1.001 --    23 C    0.973
    51   1 H    1.004 --    24 C    0.973
    52   1 H    1.005 --    29 C    0.973
    53   1 H    0.999 --    30 C    0.971
    54   1 H    0.886 --    32 O    0.865
    55   1 H    0.999 --    33 C    0.970
    56   1 H    1.005 --    34 C    0.972
    57   1 H    1.005 --    36 C    0.973
    58   1 H    0.998 --    37 C    0.975
    59  27 Co   3.048 --    97 N    0.639    65 N    0.636    77 N    0.636
                            84 N    0.632
    60   6 C    3.928 --    61 C    1.366    96 C    1.362    98 H    0.970
    61   6 C    3.925 --    60 C    1.366    65 N    1.200    62 C    1.174
    62   6 C    3.960 --    63 C    1.648    61 C    1.174    99 H    0.975
    63   6 C    3.963 --    62 C    1.648    64 C    1.178   100 H    0.973
    64   6 C    3.919 --    66 C    1.316    65 N    1.216    63 C    1.178
    65   7 N    3.347 --    64 C    1.216    61 C    1.200    59 Co   0.636
    66   6 C    3.932 --    74 C    1.338    64 C    1.316    67 C    1.022
    67   6 C    3.988 --    68 C    1.396    73 C    1.386    66 C    1.022
    68   6 C    3.988 --    69 C    1.451    67 C    1.396   101 H    0.973
                            72 C    0.106
    69   6 C    3.988 --    68 C    1.451    70 C    1.372   102 H    0.970
                            73 C    0.103
    70   6 C    3.902 --    69 C    1.372    72 C    1.365    71 O    1.041
    71   8 O    2.044 --    70 C    1.041   103 H    0.865
    72   6 C    3.990 --    73 C    1.466    70 C    1.365   104 H    0.971
                            68 C    0.106
    73   6 C    3.988 --    72 C    1.466    67 C    1.386   105 H    0.973
                            69 C    0.103
    74   6 C    3.916 --    66 C    1.338    77 N    1.189    75 C    1.180
    75   6 C    3.958 --    76 C    1.639    74 C    1.180   106 H    0.973
    76   6 C    3.962 --    75 C    1.639    78 C    1.190   107 H    0.973
    77   7 N    3.347 --    78 C    1.235    74 C    1.189    59 Co   0.636
    78   6 C    3.903 --    79 C    1.254    77 N    1.235    76 C    1.190
    79   6 C    3.933 --    80 C    1.258    78 C    1.254   124 C    1.196
    80   6 C    3.903 --    79 C    1.258    84 N    1.229    81 C    1.192
    81   6 C    3.961 --    82 C    1.634    80 C    1.192   108 H    0.974
    82   6 C    3.959 --    81 C    1.634    83 C    1.184   109 H    0.973
    83   6 C    3.916 --    85 C    1.327    84 N    1.197    82 C    1.184
    84   7 N    3.348 --    80 C    1.229    83 C    1.197    59 Co   0.632
    85   6 C    3.933 --    83 C    1.327    93 C    1.320    86 C    1.033
    86   6 C    3.988 --    92 C    1.391    87 C    1.381    85 C    1.033
    87   6 C    3.986 --    88 C    1.468    86 C    1.381   110 H    0.973
                            91 C    0.102
    88   6 C    3.990 --    87 C    1.468    89 C    1.363   111 H    0.971
                            92 C    0.104
    89   6 C    3.900 --    91 C    1.371    88 C    1.363    90 O    1.042
    90   8 O    2.044 --    89 C    1.042   112 H    0.865
    91   6 C    3.988 --    92 C    1.454    89 C    1.371   113 H    0.970
                            87 C    0.102
    92   6 C    3.987 --    91 C    1.454    86 C    1.391   114 H    0.972
                            88 C    0.104
    93   6 C    3.920 --    85 C    1.320    97 N    1.211    94 C    1.177
    94   6 C    3.963 --    95 C    1.647    93 C    1.177   115 H    0.973
    95   6 C    3.958 --    94 C    1.647    96 C    1.176   116 H    0.975
    96   6 C    3.925 --    60 C    1.362    97 N    1.203    95 C    1.176
    97   7 N    3.345 --    93 C    1.211    96 C    1.203    59 Co   0.639
    98   1 H    1.000 --    60 C    0.970
    99   1 H    0.998 --    62 C    0.975
   100   1 H    1.005 --    63 C    0.973
   101   1 H    1.004 --    68 C    0.973
   102   1 H    0.999 --    69 C    0.970
   103   1 H    0.887 --    71 O    0.865
   104   1 H    0.999 --    72 C    0.971
   105   1 H    1.004 --    73 C    0.973
   106   1 H    1.004 --    75 C    0.973
   107   1 H    1.001 --    76 C    0.973
   108   1 H    1.001 --    81 C    0.974
   109   1 H    1.004 --    82 C    0.973
   110   1 H    1.005 --    87 C    0.973
   111   1 H    0.999 --    88 C    0.971
   112   1 H    0.886 --    90 O    0.865
   113   1 H    0.999 --    91 C    0.970
   114   1 H    1.005 --    92 C    0.972
   115   1 H    1.005 --    94 C    0.973
   116   1 H    0.998 --    95 C    0.975
   117   6 C    3.871 --   118 C    2.428    21 C    1.196   120 C    0.185
   118   6 C    3.930 --   117 C    2.428   119 C    1.352
   119   6 C    3.886 --   120 C    2.323   118 C    1.352   122 C    0.180
   120   6 C    3.920 --   119 C    2.323   121 C    1.378   117 C    0.185
   121   6 C    3.920 --   122 C    2.323   120 C    1.378   124 C    0.185
   122   6 C    3.886 --   121 C    2.323   123 C    1.352   119 C    0.180
   123   6 C    3.930 --   124 C    2.428   122 C    1.352
   124   6 C    3.871 --   123 C    2.428    79 C    1.196   121 C    0.185
 ---------------------------------------------------------------------------

           -------------------------------------------------
          | TOTAL ENERGY             -223.853553371806 Eh   |
          | GRADIENT NORM               0.000360999629 Eh/α |
          | HOMO-LUMO GAP               0.008937666902 eV   |
           -------------------------------------------------

 * finished run on 2022/07/30 at 02:53:49.964
