   * xtb version 6.5.1 (b24c23e) compiled by 'conda@728c89f4b128' on 2022-07-12
          program call               : xtb Cu_C2Py_C4_3.xyz --gfn 1 --opt -T 48

   ID    Z sym.   atoms
    1   29 Cu     1, 59, 125
    2    6 C      2-6, 8-13, 15-19, 21-26, 28-33, 35-40, 60-64, 66-71, 73-77,
                  79-84, 86-91, 93-98, 117-124, 126-130, 132-137, 139-143,
                  145-150, 152-157, 159-164
    3    7 N      7, 14, 20, 27, 34, 41, 65, 72, 78, 85, 92, 99, 131, 138,
                  144, 151, 158, 165
    4    1 H      42-58, 100-116, 166-181
########################################################################
[WARNING] Please study the warnings concerning your input carefully
-1- prog_main_parseArguments: Unknown option '-T' provided
########################################################################

          :  Hamiltonian                  GFN1-xTB          :
 * total energy  :  -329.1936854 Eh     change       -0.1679609E-08 Eh
 * total energy  :  -329.4577047 Eh     change       -0.2640193E+00 Eh
 * total energy  :  -329.6087027 Eh     change       -0.1509980E+00 Eh
 * total energy  :  -329.6966354 Eh     change       -0.8793267E-01 Eh
 * total energy  :  -329.7511817 Eh     change       -0.5454629E-01 Eh
 * total energy  :  -329.7812554 Eh     change       -0.3007373E-01 Eh
 * total energy  :  -329.8015028 Eh     change       -0.2024743E-01 Eh
 * total energy  :  -329.8137646 Eh     change       -0.1226178E-01 Eh
 * total energy  :  -329.8216409 Eh     change       -0.7876302E-02 Eh
 * total energy  :  -329.8282271 Eh     change       -0.6586147E-02 Eh
 * total energy  :  -329.8537600 Eh     change       -0.8838736E-05 Eh
 * total energy  :  -329.8537701 Eh     change       -0.1009475E-04 Eh
 * total energy  :  -329.8537813 Eh     change       -0.1115096E-04 Eh
 * total energy  :  -329.8537957 Eh     change       -0.1439833E-04 Eh
 * total energy  :  -329.8538160 Eh     change       -0.2039238E-04 Eh
 * total energy  :  -329.8538411 Eh     change       -0.2502793E-04 Eh
 * total energy  :  -329.8538621 Eh     change       -0.2102750E-04 Eh
 * total energy  :  -329.8538752 Eh     change       -0.1308995E-04 Eh
 * total energy  :  -329.8538780 Eh     change       -0.2833209E-05 Eh
   *** GEOMETRY OPTIMIZATION CONVERGED AFTER 94 ITERATIONS ***

 final structure:
================
181
 xtb: 6.5.1 (b24c23e)
Cu          32.27325224301627       -0.17539033752749       -0.13171071228209
C           28.85832197936216       -0.10053823997760       -0.10968224220586
C           29.50747905474444        0.75557573544892        0.76682651602064
C           28.85151045689113        1.65570131569155        1.67162304799627
C           29.82581500062938        2.31350472810850        2.34947505153465
C           31.08151436203208        1.81926220364921        1.86181613243092
N           30.86319664964140        0.87684073180703        0.90567119524769
C           32.33961160428505        2.25316882944754        2.30860633226653
C           32.36629983039040        3.24980649711726        3.30989193513100
C           32.38707886641708        4.10666872716597        4.16871627778285
C           32.41022183247488        5.10630654514552        5.16810012356928
C           33.61818285378229        5.59289396726257        5.68141044804881
C           33.58537339171298        6.57235109649624        6.65795499149661
N           32.45454910525507        7.08163798005507        7.14009033553086
C           31.30191206980350        6.62414619800889        6.65746453490145
C           31.22525959880537        5.64709229290287        5.68110583114075
C           33.57215306370320        1.77537604017130        1.83684831454413
C           34.84966576102680        2.23091711015611        2.29820084504014
C           35.79014422628459        1.53498399830551        1.60857589217614
N           33.74505334016728        0.81739772298421        0.88095992077623
C           35.09001635168654        0.65227302868976        0.72420445690515
C           35.71025488840998       -0.24225881373577       -0.16256795343458
C           35.03921563095532       -1.11414276123874       -1.03504472159898
C           35.68829527751353       -2.02734711384275       -1.92736309317528
C           34.70912617617692       -2.69066931059531       -2.59480015315147
C           33.45892251488922       -2.18369799155892       -2.11286230375381
N           33.68621879319540       -1.22820574568658       -1.16591078806581
C           32.20064668585500       -2.61483241699124       -2.56108576230360
C           32.17328160859731       -3.62068660436581       -3.55304779469748
C           32.15170250372842       -4.48720026448688       -4.40218231880172
C           32.13667599044165       -5.49713278311960       -5.39127719559033
C           33.32725934669588       -6.02638295861277       -5.90332044643405
C           33.26088967400222       -7.01384033705008       -6.86989847475316
N           32.11305729624097       -7.49236790062311       -7.34342101887998
C           30.97692727782111       -6.99461671026292       -6.86163038808068
C           30.93381155036809       -6.00601371970263       -5.89474334042541
C           30.96864401153487       -2.12510848811550       -2.09996943112405
C           29.68627855414778       -2.56632419675779       -2.56860790901997
C           28.75074843470378       -1.86123566075918       -1.88367527960687
C           29.45737785965927       -0.98651631747771       -0.99215427605194
N           30.80447523608776       -1.16850264364466       -1.14711831716270
H           27.77341760964459       -0.07589658436748       -0.10309537476695
H           27.78209044819627        1.75995997632028        1.76587589284390
H           29.71757534132627        3.06732852053442        3.11313274319359
H           34.56232080030663        5.20616551509633        5.31721041779102
H           34.50761628731190        6.96790853132237        7.07381668115036
H           30.39843276379234        7.06129340634793        7.07288364461669
H           30.26481490634248        5.30337420945943        5.31635196201114
H           34.99734892631133        2.98682093697872        3.05292620877334
H           36.86343469620644        1.60570715456381        1.68419066472293
H           36.75641275935899       -2.13977944112808       -2.02271712735209
H           34.81378449119750       -3.45569475838268       -3.34750640950694
H           34.28403979498071       -5.66554174447321       -5.54554687596653
H           34.16901210998866       -7.44205416674827       -7.28447399330027
H           30.05890587087191       -7.40762366677115       -7.26981087054278
H           29.98560963511648       -5.62938462133876       -5.53049086671662
H           29.53528633129579       -3.31941441981732       -3.32570802777051
H           27.67665753763124       -1.91826834200204       -1.96424612106479
Cu          59.25739948407431       -0.28928414938529       -0.14001284137451
C           62.67249617282420       -0.28980299059669       -0.07877221300180
C           62.05352476027458       -1.49372229520033       -0.37888089944140
C           62.74020716219898       -2.72117154099300       -0.66356093053781
C           61.78929419105410       -3.65677020145728       -0.91249166085194
C           60.51741623861742       -3.00626836788596       -0.77898233938999
N           60.70293493318877       -1.69823729752488       -0.45546206908444
C           59.27494878737405       -3.63507753081421       -0.95579983729883
C           59.28013796572067       -5.00438761020611       -1.30437606973288
C           59.28238828418086       -6.17830872584713       -1.61145666404222
C           59.27717147490422       -7.54495245611134       -1.97316512543073
C           58.07640588081571       -8.23923274506136       -2.16265893776915
C           58.12341812630919       -9.57542520148546       -2.51779466388966
N           59.26169347685843      -10.24262877997877       -2.69073576191378
C           60.40739894724749       -9.58980078185969       -2.51241073444047
C           60.46986645116288       -8.25425015239165       -2.15679464877903
C           58.02676383708366       -3.00893392632635       -0.81465598777036
C           56.76547429785150       -3.66564882218799       -0.98793928416646
C           55.80159687661561       -2.73471748787604       -0.76739648348164
N           57.82107387155448       -1.69869533749369       -0.49437812561796
C           56.47119983164229       -1.50631335462970       -0.46070669964173
C           55.82004892615235       -0.29392145223957       -0.18042230305084
C           56.46064699953389        0.92144274179292        0.11005163704527
C           55.78059226073600        2.14959488255312        0.39374630471858
C           56.73659019784461        3.08611660223127        0.62514039547582
C           58.00348005972927        2.43240256693158        0.48403351124660
N           57.80890123246577        1.11870271459856        0.17092054466242
C           59.24649039695974        3.06298595273939        0.64860475483500
C           59.24339794716054        4.43822307285971        0.97318498245103
C           59.24786047819462        5.61897320315187        1.25284202176990
C           59.25257082923140        6.99366271925481        1.58278760771721
C           58.05907232359376        7.71092257669430        1.72606385722334
C           58.11923523687966        9.05402118338281        2.05236036275101
N           59.26351698278881        9.70697870470369        2.23924067546313
C           60.40254053683568        9.03228996056855        2.10454638773894
C           60.45182082749871        7.68823897864003        1.78055018053581
C           60.49432934088301        2.43271736460236        0.51973188409506
C           61.76094310984818        3.08433538149193        0.69276197530966
C           62.71975433089700        2.14537221578358        0.49152311026070
C           62.04333193285696        0.91549774825534        0.19320770743671
N           60.69090969681554        1.12121366966838        0.21763795591586
H           63.75749691832840       -0.29020062206338       -0.05770294837857
H           63.81252837809327       -2.83737389434677       -0.66947802409220
H           61.92336405362055       -4.69698121552010       -1.16374388141936
H           57.12681643138060       -7.73431052297100       -2.03243224409094
H           57.20706163030052      -10.13812408967743       -2.67134815724136
H           61.31720819837340      -10.16417352761133       -2.66170183631660
H           61.42532155534818       -7.76173713916068       -2.02209572586854
H           56.64352091376128       -4.70581761325359       -1.24476855533808
H           54.73126765398813       -2.85851734200664       -0.80816302052158
H           54.70910796462637        2.26911203549151        0.41179198678126
H           56.60603265715810        4.12791124290154        0.87100362598960
H           57.10475261478503        7.21855983627495        1.58308257063245
H           57.20868956183968        9.63455480217928        2.16989991686850
H           61.31767040094819        9.59540545794866        2.26390840221179
H           61.40209510042266        7.17762955438029        1.68101535510744
H           61.88661014232808        4.12731025389934        0.93678001709619
H           63.79117707855928        2.26113971713604        0.53685457452574
C           38.34059815842540       -0.29891250446920       -0.19978210791868
C           37.12054449003890       -0.27024003891612       -0.17853350947274
C           39.69317505105847       -0.33519625075486       -0.22370186334582
C           40.91298500388734       -0.37093369561292       -0.25044007085023
C           51.83705439549840       -0.34027912094447       -0.22987657768432
C           50.61696787844123       -0.37459115724026       -0.25280413693954
C           53.18957237349718       -0.31717684243283       -0.21216887583612
C           54.41005416498969       -0.29954190416372       -0.19601370021725
Cu          45.76510542044985       -0.45282098674478       -0.31015614810928
C           42.32255354146593       -0.40687003614855       -0.27673930990554
C           42.96803116300677        0.29621014138261       -1.30707577931269
C           42.29380594602475        1.01681935932473       -2.34526023119985
C           43.25442660648473        1.54339564130288       -3.14819090027373
C           44.51780853773879        1.15281468180964       -2.59729842866735
N           44.31677318210131        0.39412559764186       -1.48198274969780
C           45.76515988471353        1.51941096298954       -3.12639963354998
C           45.76567408838434        2.29349198897905       -4.30876876202325
C           45.76498487326755        2.93725756848116       -5.33723715077218
C           45.76415976682077        3.68402247299998       -6.53765109069669
C           46.95822546401919        4.12724433277472       -7.11837001105893
C           46.90268678348415        4.84903447759999       -8.29730964159674
N           45.76239678596195        5.14684627031132       -8.91512990075627
C           44.62290959870976        4.72939084987309       -8.36926277962099
C           44.56911450110592        4.00258564998373       -7.19335212615556
C           47.01164857346518        1.18037333696633       -2.57744089953527
C           48.27440042620135        1.60214133375458       -3.10623684008390
C           49.23461659575342        1.07597038414127       -2.30254458650597
N           47.21260075752784        0.40853399477442       -1.47101212197151
C           48.56090119697401        0.32515933154744       -1.28572294967610
C           49.20777907559645       -0.40566733720138       -0.27553712566810
C           48.56212275626009       -1.17787436499095        0.70418686163021
C           49.23640769199911       -1.94750565992037        1.70647710778027
C           48.27580452470730       -2.55106707782596        2.45330745978783
C           47.01240856731408       -2.14587112955456        1.91309335347130
N           47.21348726505705       -1.31467375833906        0.85065989553679
C           45.76512789653192       -2.54110103834067        2.42127355193855
C           45.76604326825781       -3.42734299331382        3.52207477451546
C           45.77029572165701       -4.19989569398288        4.45774435291422
C           45.77687219130352       -5.10567142177384        5.54317695301082
C           44.58388713564074       -5.56161213303413        6.11623897636281
C           44.64549389747549       -6.45166098734249        7.17356552482354
N           45.79075274550193       -6.90190141509427        7.67989257358357
C           46.92923079335381       -6.47307916549100        7.14078030547063
C           46.97709829170950       -5.58396547177830        6.08195165531087
C           44.51840424547867       -2.12638869635921        1.92745858472525
C           43.25540555880470       -2.50858939484915        2.48506954384954
C           42.29516883891591       -1.90195799599690        1.74030437330076
C           42.96905387923263       -1.15439560400132        0.72111459289515
N           44.31755982510855       -1.30340157426332        0.85861217668751
H           41.22301783694894        1.09990356742949       -2.44105895019148
H           43.12875442855447        2.14678196024437       -4.03302538176341
H           47.90935319941664        3.90597790910834       -6.64934828654908
H           47.81370369036560        5.20485869210570       -8.76987766584372
H           43.71120949836213        4.98912161395583       -8.89961756345117
H           43.61871246867477        3.68190032802451       -6.78410436658157
H           48.39976973834056        2.22379408523130       -3.97837941806565
H           50.30494541900877        1.17718383055396       -2.38505089438212
H           50.30719196128580       -2.01329616347426        1.81493338913918
H           48.40158470829572       -3.20915652934781        3.29823558210595
H           43.62897573589225       -5.22102559390037        5.73448551988164
H           43.73545819684215       -6.82197210642768        7.63684512174771
H           47.84512121207754       -6.86028749880418        7.57799789920761
H           47.92696571409228       -5.26123228846717        5.67302192057432
H           43.13002491111718       -3.15557936478007        3.33858119814778
H           41.22470668600848       -1.95358227129628        1.85909484540809

          :  Hamiltonian                  GFN1-xTB          :
         :: total energy            -329.853878022367 Eh    ::
         :: gradient norm              0.000636849642 Eh/a0 ::
         :: HOMO-LUMO gap              0.000010295994 eV    ::
         :: SCC energy              -335.398238597960 Eh    ::
         :: repulsion energy           5.697666594765 Eh    ::

    * Orbital Energies and Occupations

         #    Occupation            Energy/Eh            Energy/eV
      -------------------------------------------------------------
         1        2.0000           -0.7732950             -21.0424
       ...           ...                  ...                  ...
       295        2.0000           -0.4167659             -11.3408
       296        2.0000           -0.4167579             -11.3406
       297        2.0000           -0.4167506             -11.3404
       298        2.0000           -0.4163232             -11.3287
       299        2.0000           -0.4162558             -11.3269
       300        2.0000           -0.4041798             -10.9983
       301        2.0000           -0.4041659             -10.9979
       302        2.0000           -0.4041380             -10.9972
       303        2.0000           -0.3937318             -10.7140
       304        2.0000           -0.3925117             -10.6808
       305        2.0000           -0.3891538             -10.5894
       306        1.0197           -0.3648990              -9.9294
       307        0.9902           -0.3648361              -9.9277 (HOMO)
       308        0.9901           -0.3648357              -9.9277 (LUMO)
       309                         -0.3447407              -9.3809
       310                         -0.3447354              -9.3807
       311                         -0.3446033              -9.3771
       312                         -0.3444939              -9.3742
       313                         -0.3400646              -9.2536
       314                         -0.3382224              -9.2035
       315                         -0.3189123              -8.6780
       316                         -0.3151954              -8.5769
       317                         -0.3148128              -8.5665
       318                         -0.2890303              -7.8649
       ...                                ...                  ...
       639                          1.5092940              41.0700
      -------------------------------------------------------------
                  HL-Gap            0.0000004 Eh            0.0000 eV

Wiberg/Mayer (AO) data.
largest (>0.10) Wiberg bond orders for each atom

     #   Z sym  total        # sym  WBO       # sym  WBO       # sym  WBO
 ---------------------------------------------------------------------------
     1  29 Cu   2.181 --     7 N    0.504    41 N    0.503    27 N    0.501
                            20 N    0.501
     2   6 C    3.932 --     3 C    1.364    40 C    1.364    42 H    0.971
     3   6 C    3.908 --     2 C    1.364     7 N    1.220     4 C    1.173
     4   6 C    3.955 --     5 C    1.651     3 C    1.173    43 H    0.975
     5   6 C    3.957 --     4 C    1.651     6 C    1.179    44 H    0.974
     6   6 C    3.905 --     8 C    1.271     7 N    1.257     5 C    1.179
     7   7 N    3.244 --     6 C    1.257     3 C    1.220     1 Cu   0.504
     8   6 C    3.934 --    17 C    1.275     6 C    1.271     9 C    1.159
     9   6 C    3.958 --    10 C    2.626     8 C    1.159
    10   6 C    3.934 --     9 C    2.626    11 C    1.141
    11   6 C    3.987 --    12 C    1.350    16 C    1.350    10 C    1.141
    12   6 C    3.973 --    13 C    1.457    11 C    1.350    45 H    0.974
                            15 C    0.104
    13   6 C    3.973 --    12 C    1.457    14 N    1.407    46 H    0.972
                            16 C    0.104
    14   7 N    2.994 --    13 C    1.407    15 C    1.407
    15   6 C    3.973 --    16 C    1.457    14 N    1.407    47 H    0.972
                            12 C    0.104
    16   6 C    3.973 --    15 C    1.457    11 C    1.350    48 H    0.974
                            13 C    0.104
    17   6 C    3.899 --     8 C    1.275    20 N    1.242    18 C    1.187
    18   6 C    3.955 --    19 C    1.638    17 C    1.187    49 H    0.974
    19   6 C    3.956 --    18 C    1.638    21 C    1.188    50 H    0.974
    20   7 N    3.246 --    17 C    1.242    21 C    1.242     1 Cu   0.501
    21   6 C    3.892 --    22 C    1.270    20 N    1.242    19 C    1.188
    22   6 C    3.938 --    21 C    1.270    23 C    1.270   118 C    1.168
    23   6 C    3.892 --    22 C    1.270    27 N    1.242    24 C    1.188
    24   6 C    3.956 --    25 C    1.638    23 C    1.188    51 H    0.974
    25   6 C    3.955 --    24 C    1.638    26 C    1.187    52 H    0.974
    26   6 C    3.899 --    28 C    1.275    27 N    1.242    25 C    1.187
    27   7 N    3.247 --    26 C    1.242    23 C    1.242     1 Cu   0.501
    28   6 C    3.934 --    26 C    1.275    37 C    1.271    29 C    1.159
    29   6 C    3.958 --    30 C    2.625    28 C    1.159
    30   6 C    3.934 --    29 C    2.625    31 C    1.141
    31   6 C    3.987 --    36 C    1.351    32 C    1.350    30 C    1.141
    32   6 C    3.973 --    33 C    1.457    31 C    1.350    53 H    0.974
                            35 C    0.104
    33   6 C    3.973 --    32 C    1.457    34 N    1.407    54 H    0.972
                            36 C    0.104
    34   7 N    2.994 --    35 C    1.407    33 C    1.407
    35   6 C    3.973 --    36 C    1.457    34 N    1.407    55 H    0.972
                            32 C    0.104
    36   6 C    3.973 --    35 C    1.457    31 C    1.351    56 H    0.974
                            33 C    0.104
    37   6 C    3.905 --    28 C    1.271    41 N    1.257    38 C    1.179
    38   6 C    3.957 --    39 C    1.651    37 C    1.179    57 H    0.974
    39   6 C    3.955 --    38 C    1.651    40 C    1.173    58 H    0.976
    40   6 C    3.908 --     2 C    1.364    41 N    1.220    39 C    1.173
    41   7 N    3.244 --    37 C    1.257    40 C    1.220     1 Cu   0.503
    42   1 H    1.001 --     2 C    0.971
    43   1 H    0.997 --     4 C    0.975
    44   1 H    1.002 --     5 C    0.974
    45   1 H    1.002 --    12 C    0.974
    46   1 H    1.013 --    13 C    0.972
    47   1 H    1.013 --    15 C    0.972
    48   1 H    1.002 --    16 C    0.974
    49   1 H    1.002 --    18 C    0.974
    50   1 H    1.002 --    19 C    0.974
    51   1 H    1.002 --    24 C    0.974
    52   1 H    1.002 --    25 C    0.974
    53   1 H    1.002 --    32 C    0.974
    54   1 H    1.013 --    33 C    0.972
    55   1 H    1.013 --    35 C    0.972
    56   1 H    1.002 --    36 C    0.974
    57   1 H    1.002 --    38 C    0.974
    58   1 H    0.997 --    39 C    0.976
    59  29 Cu   2.181 --    99 N    0.504    65 N    0.503    78 N    0.501
                            85 N    0.501
    60   6 C    3.931 --    98 C    1.364    61 C    1.364   100 H    0.971
    61   6 C    3.908 --    60 C    1.364    65 N    1.220    62 C    1.173
    62   6 C    3.955 --    63 C    1.651    61 C    1.173   101 H    0.976
    63   6 C    3.957 --    62 C    1.651    64 C    1.179   102 H    0.974
    64   6 C    3.905 --    66 C    1.271    65 N    1.257    63 C    1.179
    65   7 N    3.244 --    64 C    1.257    61 C    1.220    59 Cu   0.503
    66   6 C    3.933 --    75 C    1.275    64 C    1.271    67 C    1.159
    67   6 C    3.958 --    68 C    2.625    66 C    1.159
    68   6 C    3.934 --    67 C    2.625    69 C    1.141
    69   6 C    3.987 --    74 C    1.351    70 C    1.350    68 C    1.141
    70   6 C    3.973 --    71 C    1.457    69 C    1.350   103 H    0.974
                            73 C    0.104
    71   6 C    3.973 --    70 C    1.457    72 N    1.407   104 H    0.972
                            74 C    0.104
    72   7 N    2.994 --    73 C    1.407    71 C    1.407
    73   6 C    3.973 --    74 C    1.457    72 N    1.407   105 H    0.972
                            70 C    0.104
    74   6 C    3.973 --    73 C    1.457    69 C    1.351   106 H    0.974
                            71 C    0.104
    75   6 C    3.898 --    66 C    1.275    78 N    1.242    76 C    1.187
    76   6 C    3.955 --    77 C    1.638    75 C    1.187   107 H    0.974
    77   6 C    3.956 --    76 C    1.638    79 C    1.188   108 H    0.974
    78   7 N    3.247 --    79 C    1.243    75 C    1.242    59 Cu   0.501
    79   6 C    3.892 --    80 C    1.269    78 N    1.243    77 C    1.188
    80   6 C    3.938 --    81 C    1.269    79 C    1.269   124 C    1.171
    81   6 C    3.892 --    80 C    1.269    85 N    1.243    82 C    1.188
    82   6 C    3.956 --    83 C    1.638    81 C    1.188   109 H    0.974
    83   6 C    3.955 --    82 C    1.638    84 C    1.187   110 H    0.974
    84   6 C    3.898 --    86 C    1.275    85 N    1.242    83 C    1.187
    85   7 N    3.246 --    81 C    1.243    84 C    1.242    59 Cu   0.501
    86   6 C    3.933 --    84 C    1.275    95 C    1.270    87 C    1.159
    87   6 C    3.958 --    88 C    2.625    86 C    1.159
    88   6 C    3.933 --    87 C    2.625    89 C    1.141
    89   6 C    3.987 --    90 C    1.350    94 C    1.350    88 C    1.141
    90   6 C    3.973 --    91 C    1.457    89 C    1.350   111 H    0.974
                            93 C    0.104
    91   6 C    3.973 --    90 C    1.457    92 N    1.407   112 H    0.972
                            94 C    0.104
    92   7 N    2.994 --    91 C    1.407    93 C    1.407
    93   6 C    3.973 --    94 C    1.457    92 N    1.407   113 H    0.972
                            90 C    0.104
    94   6 C    3.973 --    93 C    1.457    89 C    1.350   114 H    0.974
                            91 C    0.104
    95   6 C    3.905 --    86 C    1.270    99 N    1.257    96 C    1.179
    96   6 C    3.957 --    97 C    1.651    95 C    1.179   115 H    0.974
    97   6 C    3.955 --    96 C    1.651    98 C    1.173   116 H    0.975
    98   6 C    3.908 --    60 C    1.364    99 N    1.219    97 C    1.173
    99   7 N    3.244 --    95 C    1.257    98 C    1.219    59 Cu   0.504
   100   1 H    1.001 --    60 C    0.971
   101   1 H    0.997 --    62 C    0.976
   102   1 H    1.002 --    63 C    0.974
   103   1 H    1.002 --    70 C    0.974
   104   1 H    1.013 --    71 C    0.972
   105   1 H    1.013 --    73 C    0.972
   106   1 H    1.002 --    74 C    0.974
   107   1 H    1.002 --    76 C    0.974
   108   1 H    1.002 --    77 C    0.974
   109   1 H    1.002 --    82 C    0.974
   110   1 H    1.002 --    83 C    0.974
   111   1 H    1.002 --    90 C    0.974
   112   1 H    1.013 --    91 C    0.972
   113   1 H    1.013 --    93 C    0.972
   114   1 H    1.002 --    94 C    0.974
   115   1 H    1.002 --    96 C    0.974
   116   1 H    0.997 --    97 C    0.975
   117   6 C    3.935 --   118 C    2.497   119 C    1.290
   118   6 C    3.920 --   117 C    2.497    22 C    1.168   120 C    0.197
   119   6 C    3.933 --   120 C    2.496   117 C    1.290
   120   6 C    3.920 --   119 C    2.496   126 C    1.170   118 C    0.197
   121   6 C    3.934 --   122 C    2.493   123 C    1.292
   122   6 C    3.921 --   121 C    2.493   146 C    1.172   124 C    0.197
   123   6 C    3.935 --   124 C    2.494   121 C    1.292
   124   6 C    3.921 --   123 C    2.494    80 C    1.171   122 C    0.197
   125  29 Cu   2.156 --   144 N    0.497   165 N    0.497   151 N    0.497
                           131 N    0.497
   126   6 C    3.931 --   164 C    1.269   127 C    1.268   120 C    1.170
   127   6 C    3.893 --   126 C    1.268   131 N    1.244   128 C    1.188
   128   6 C    3.955 --   129 C    1.638   127 C    1.188   166 H    0.974
   129   6 C    3.956 --   128 C    1.638   130 C    1.187   167 H    0.974
   130   6 C    3.897 --   132 C    1.273   131 N    1.243   129 C    1.187
   131   7 N    3.242 --   127 C    1.244   130 C    1.243   125 Cu   0.497
   132   6 C    3.931 --   141 C    1.273   130 C    1.273   133 C    1.159
   133   6 C    3.958 --   134 C    2.626   132 C    1.159
   134   6 C    3.933 --   133 C    2.626   135 C    1.141
   135   6 C    3.987 --   136 C    1.350   140 C    1.350   134 C    1.141
   136   6 C    3.973 --   137 C    1.457   135 C    1.350   168 H    0.974
                           139 C    0.104
   137   6 C    3.973 --   136 C    1.457   138 N    1.407   169 H    0.972
                           140 C    0.104
   138   7 N    2.994 --   137 C    1.407   139 C    1.407
   139   6 C    3.973 --   140 C    1.457   138 N    1.407   170 H    0.972
                           136 C    0.104
   140   6 C    3.973 --   139 C    1.457   135 C    1.350   171 H    0.974
                           137 C    0.104
   141   6 C    3.897 --   132 C    1.273   144 N    1.243   142 C    1.187
   142   6 C    3.956 --   143 C    1.637   141 C    1.187   172 H    0.974
   143   6 C    3.955 --   142 C    1.637   145 C    1.188   173 H    0.974
   144   7 N    3.242 --   145 C    1.245   141 C    1.243   125 Cu   0.497
   145   6 C    3.892 --   146 C    1.267   144 N    1.245   143 C    1.188
   146   6 C    3.931 --   145 C    1.267   147 C    1.267   122 C    1.172
   147   6 C    3.892 --   146 C    1.267   151 N    1.245   148 C    1.188
   148   6 C    3.955 --   149 C    1.638   147 C    1.188   174 H    0.974
   149   6 C    3.956 --   148 C    1.638   150 C    1.187   175 H    0.974
   150   6 C    3.897 --   152 C    1.273   151 N    1.243   149 C    1.187
   151   7 N    3.242 --   147 C    1.245   150 C    1.243   125 Cu   0.497
   152   6 C    3.931 --   150 C    1.273   161 C    1.273   153 C    1.159
   153   6 C    3.958 --   154 C    2.626   152 C    1.159
   154   6 C    3.933 --   153 C    2.626   155 C    1.141
   155   6 C    3.987 --   156 C    1.350   160 C    1.350   154 C    1.141
   156   6 C    3.973 --   157 C    1.457   155 C    1.350   176 H    0.974
                           159 C    0.104
   157   6 C    3.973 --   156 C    1.457   158 N    1.407   177 H    0.972
                           160 C    0.104
   158   7 N    2.994 --   159 C    1.407   157 C    1.407
   159   6 C    3.973 --   160 C    1.457   158 N    1.407   178 H    0.972
                           156 C    0.104
   160   6 C    3.973 --   159 C    1.457   155 C    1.350   179 H    0.974
                           157 C    0.104
   161   6 C    3.897 --   152 C    1.273   165 N    1.243   162 C    1.187
   162   6 C    3.956 --   163 C    1.638   161 C    1.187   180 H    0.974
   163   6 C    3.955 --   162 C    1.638   164 C    1.188   181 H    0.974
   164   6 C    3.893 --   126 C    1.269   165 N    1.244   163 C    1.188
   165   7 N    3.242 --   164 C    1.244   161 C    1.243   125 Cu   0.497
   166   1 H    1.002 --   128 C    0.974
   167   1 H    1.002 --   129 C    0.974
   168   1 H    1.002 --   136 C    0.974
   169   1 H    1.013 --   137 C    0.972
   170   1 H    1.013 --   139 C    0.972
   171   1 H    1.002 --   140 C    0.974
   172   1 H    1.002 --   142 C    0.974
   173   1 H    1.002 --   143 C    0.974
   174   1 H    1.002 --   148 C    0.974
   175   1 H    1.003 --   149 C    0.974
   176   1 H    1.002 --   156 C    0.974
   177   1 H    1.013 --   157 C    0.972
   178   1 H    1.013 --   159 C    0.972
   179   1 H    1.002 --   160 C    0.974
   180   1 H    1.002 --   162 C    0.974
   181   1 H    1.002 --   163 C    0.974
 ---------------------------------------------------------------------------

           -------------------------------------------------
          | TOTAL ENERGY             -329.853878022367 Eh   |
          | GRADIENT NORM               0.000636849642 Eh/α |
          | HOMO-LUMO GAP               0.000010295994 eV   |
           -------------------------------------------------

 * finished run on 2022/07/30 at 07:38:37.442
