   * xtb version 6.5.1 (b24c23e) compiled by 'conda@728c89f4b128' on 2022-07-12
          program call               : xtb Co_Py_C4_3.xyz --gfn 1 --opt -T 48

   ID    Z sym.   atoms
    1   27 Co     1, 55, 117
    2    6 C      2-6, 8-11, 13-17, 19-24, 26-29, 31-36, 56-60, 62-65, 67-71,
                  73-78, 80-83, 85-90, 109-116, 118-122, 124-127, 129-133,
                  135-140, 142-145, 147-152
    3    7 N      7, 12, 18, 25, 30, 37, 61, 66, 72, 79, 84, 91, 123, 128,
                  134, 141, 146, 153
    4    1 H      38-54, 92-108, 154-169

          :  Hamiltonian                  GFN1-xTB          :
 * total energy  :  -300.9995823 Eh     change       -0.1153921E-09 Eh
 * total energy  :  -301.3064584 Eh     change       -0.3068761E+00 Eh
 * total energy  :  -301.4211223 Eh     change       -0.1146639E+00 Eh
 * total energy  :  -301.4885296 Eh     change       -0.6740734E-01 Eh
 * total energy  :  -301.5478580 Eh     change       -0.5932840E-01 Eh
 * total energy  :  -301.6076395 Eh     change       -0.5978145E-01 Eh
 * total energy  :  -301.6433556 Eh     change       -0.3571618E-01 Eh
 * total energy  :  -301.6655947 Eh     change       -0.2223902E-01 Eh
 * total energy  :  -301.6786482 Eh     change       -0.1305359E-01 Eh
 * total energy  :  -301.6968103 Eh     change       -0.1816206E-01 Eh
 * total energy  :  -301.8228953 Eh     change       -0.4180451E-04 Eh
 * total energy  :  -301.8229402 Eh     change       -0.4484471E-04 Eh
 * total energy  :  -301.8229686 Eh     change       -0.2843718E-04 Eh
 * total energy  :  -301.8229860 Eh     change       -0.1745617E-04 Eh
 * total energy  :  -301.8229988 Eh     change       -0.1270679E-04 Eh
 * total energy  :  -301.8230066 Eh     change       -0.7828976E-05 Eh
 * total energy  :  -301.8230145 Eh     change       -0.7962278E-05 Eh
 * total energy  :  -301.8230230 Eh     change       -0.8487963E-05 Eh
 * total energy  :  -301.8230276 Eh     change       -0.4523940E-05 Eh
   *** GEOMETRY OPTIMIZATION CONVERGED AFTER 68 ITERATIONS ***

 final structure:
================
169
 xtb: 6.5.1 (b24c23e)
Co          24.80355336094283       -0.01994816450323       -0.01642872954146
C           21.43658556294294       -0.05268557731285       -0.04539265462496
C           22.10532666313254       -1.25103914019352       -0.17830941657454
C           21.45605090195320       -2.51765595597218       -0.33173609541154
C           22.41586650653012       -3.46414723626956       -0.20794897777363
C           23.65291033775732       -2.77480466908425        0.01768327062240
N           23.45813980889952       -1.41753110058177       -0.01955865864089
C           24.83081351488358       -3.39374261060948        0.41472877473404
C           24.84513247587645       -4.86405393969264        0.59689479056756
C           25.02648492098344       -5.43664241932952        1.85454884107584
C           25.03662052560900       -6.81785590845545        1.97145526621230
N           24.88483665016548       -7.63372946435568        0.93339605717059
C           24.71229527530633       -7.09479427981768       -0.26914535303176
C           24.68259682285441       -5.72610843273834       -0.48625302066069
C           25.99549475396362       -2.67752762856824        0.64501501519128
C           27.23832580424526       -3.26504878865021        1.04737912130716
C           28.18317652619484       -2.30122004640858        0.93145653412117
N           26.17436997968176       -1.34870990490831        0.33337422927546
C           27.51787928301647       -1.13076332605215        0.45262959044910
C           28.18780330529903        0.00675660961561       -0.00498020283868
C           27.50021915863369        1.13521803313570       -0.45798758466579
C           28.14326167043365        2.30933861998499       -0.95738514381411
C           27.18404817707971        3.26020883803720       -1.06760119175740
C           25.95860689197012        2.66398244525664       -0.62737497128465
N           26.15522715465106        1.33668472915969       -0.32366672746421
C           24.77606713707467        3.36008651386553       -0.42287804610535
C           24.77066382055309        4.82941634866519       -0.59060471244457
C           23.92332222314983        5.45459213872544       -1.50481278675762
C           23.96080377507368        6.83470691274422       -1.62646771463875
N           24.76848614971330        7.60424650777559       -0.90406635956753
C           25.57763426739160        7.01676894824812       -0.02826193921892
C           25.61719244341712        5.64457903873984        0.16069017738019
C           23.59920722533065        2.71200180745844       -0.06936470079569
C           22.35411346755171        3.37443554837428        0.18892240335489
C           21.40926386025846        2.40908193912889        0.28345753259290
C           22.07999056093570        1.15800728966804        0.09980929108550
N           23.43043835277210        1.35125850662664       -0.04911701218670
H           20.35306681868617       -0.06377382524702       -0.04955887789692
H           20.39737802625170       -2.64559692426213       -0.49211747553291
H           22.30655829014578       -4.53601424268802       -0.24052697147385
H           25.14360544152978       -4.81003181230941        2.73059824559826
H           25.17299799328037       -7.28835585544274        2.94077988810725
H           24.59340616680292       -7.78737210529574       -1.09726876330931
H           24.55095623846944       -5.33098249185918       -1.48644007819098
H           27.36474961951484       -4.29033674351231        1.35454816431283
H           29.24139634034034       -2.36694835839609        1.12687447936569
H           29.19577627889808        2.38327365945262       -1.17897571747949
H           27.28578740202500        4.27600152853132       -1.41329827396915
H           23.25729470947595        4.86703553937883       -2.12537619769176
H           23.31365597663692        7.34356840966887       -2.33485370870842
H           26.22424569853843        7.67197334921555        0.54809115508763
H           26.28523795087825        5.21051097031699        0.89505166100760
H           22.23204770024489        4.44162279206648        0.27927209394321
H           20.34994041671997        2.51487245300495        0.45527256668931
Co          51.55424856187882        0.04219812480198       -0.00929735125309
C           54.93072828876244        0.06042496493724       -0.02550819726444
C           54.26887428520707        1.17029882551937       -0.50419239686896
C           54.93376636182106        2.33480229694307       -1.00499240946408
C           53.97799212923020        3.27221000882742       -1.20244104550001
C           52.72893378914230        2.67655365383342       -0.82697072796810
N           52.91313906062516        1.37324440969165       -0.44107501970228
C           51.53838244791523        3.38097635734913       -0.71260236290106
C           51.53220992592901        4.83372336056689       -1.00580459835672
C           51.29829634256460        5.77038679717979       -0.00040802240698
C           51.30138781289138        7.11890085601834       -0.32083195404784
N           51.51382126188884        7.56977686425404       -1.55287530382188
C           51.73573866456146        6.68241263270295       -2.51697958408406
C           51.75732997178557        5.31430572732793       -2.29444968509536
C           50.35532279908143        2.77173292488254       -0.32640939125718
C           49.10288380883799        3.45810392942050       -0.21766786982315
C           48.15475358711862        2.51198642885318       -0.01914459696321
N           50.17734026301619        1.41676671858488       -0.15771823885967
C           48.82909230845137        1.25227003499021       -0.01254753198504
C           48.15904111577537        0.02700091080465        0.01188421467606
C           48.84141212869439       -1.19150896639278        0.02956182795131
C           48.18401970039437       -2.45974993075994        0.00514990597252
C           49.14408598847982       -3.39747207309804        0.18821238047816
C           50.38335314592248       -2.69522189913304        0.33642773129393
N           50.19122216751643       -1.34148382416894        0.17673396170816
C           51.57895820589128       -3.29910098308867        0.69308370467146
C           51.58991969167760       -4.74954030275869        0.98720111660757
C           52.36816890532156       -5.63329079913351        0.24058720782924
C           52.33804126352454       -6.98457249313789        0.54745236109848
N           51.60210646104097       -7.48732842755678        1.53333233771383
C           50.86089215661904       -6.65098521448419        2.25296003325158
C           50.81910049798583       -5.28579731091745        2.01814278173581
C           52.76619846242866       -2.58404819682844        0.77804147569916
C           54.01744354490057       -3.15108017253137        1.18820449472984
C           54.96209325536783       -2.20401076654114        0.98108978385570
C           54.28493313163784       -1.05752952247742        0.45600718057699
N           52.93230335706868       -1.27979940006732        0.38892234128282
H           56.01432832318093        0.06867216315025       -0.02490835860980
H           55.99822511819331        2.41070156805290       -1.15993529990633
H           54.09591992013207        4.28565707570166       -1.55000555583142
H           51.12997022253856        5.44808323992256        1.02019426805285
H           51.12534343225777        7.86837182207158        0.44522844302872
H           51.90327177504131        7.08194092738618       -3.51290613560717
H           51.93157933303407        4.62696635919337       -3.11358341541919
H           48.97474768111488        4.52451406990037       -0.30584019841375
H           47.09024141645419        2.63683293680452        0.09689381814776
H           47.12340349749868       -2.59683431420035       -0.13096755651578
H           49.03495785401731       -4.46913157162770        0.22246581246357
H           52.97486832223873       -5.26998565320375       -0.58029758192432
H           52.93017570691995       -7.69321053750568       -0.02415503049801
H           50.27334809605892       -7.09143572114347        3.05316547563868
H           50.20759395263008       -4.64025161942335        2.63720965606478
H           54.14180696546653       -4.14748383707473        1.58014288105600
H           56.02491316199482       -2.25899543375827        1.15494300218084
C           30.81314484595205        0.02214843641741       -0.01151934811496
C           29.59090498292935        0.01546598522386       -0.01038583680953
C           32.16162747455247        0.02446259100502       -0.01390209981096
C           33.38409134550133        0.02373162777064       -0.01753139108432
C           44.18586653312158        0.00646253592253        0.00817425740877
C           42.96312701422457        0.00427419417360        0.00460578783017
C           45.53377775470792        0.01174715210328        0.01352525178576
C           46.75626025315458        0.02008952840016        0.01304731129575
Co          38.17427225188330        0.02621208300651        0.00551584218362
C           34.78605367952819        0.01726688319934       -0.02009848466730
C           35.46462970359308       -0.66617207815331        0.99371469309363
C           34.81561419330681       -1.32685397720517        2.08074382454205
C           35.76936733978670       -2.04527632016201        2.72337278135259
C           36.99470281085837       -1.82803667788695        2.01636354245751
N           36.80529587117451       -0.92635217840306        0.99592620762073
C           38.16801969535858       -2.53764932162691        2.23653376206693
C           38.16747623678341       -3.63381112243431        3.22882003935682
C           37.29815421752203       -4.71795087235470        3.11154440726090
C           37.33454648357573       -5.71932929253708        4.06891856128092
N           38.16102111894661       -5.69672033685066        5.10955822651020
C           38.99117637161389       -4.66584659619273        5.23022487852075
C           39.03408671421497       -3.62043972567703        4.32144308598759
C           39.34202125499308       -2.24279340783138        1.55686849786235
C           40.56650961867046       -2.97054137178545        1.69884469961088
C           41.52373773806715       -2.25079599271987        1.06345877356981
N           39.53388940751267       -1.13244911738950        0.76801476209037
C           40.87789719789804       -1.09493075779349        0.52767579461682
C           41.56196234038146        0.00188575051210       -0.00611264462644
C           40.88266008806848        1.09503730547970       -0.55351458954512
C           41.53106284685121        2.24932839423268       -1.08918787926302
C           40.58110256212525        2.95624036794544       -1.75010001626333
C           39.35777233693862        2.22509692942127       -1.61878753237360
N           39.54408988895617        1.11876864298365       -0.82469619526482
C           38.18878146736223        2.51321878494336       -2.31104034500445
C           38.20232157918640        3.59574670355640       -3.31826243341401
C           39.07495067167687        3.55677770625744       -4.40553582727482
C           39.05006908355558        4.58975122525803       -5.32895063623937
N           38.23254123030648        5.63271483252029       -5.22667279345120
C           37.40119734449440        5.68013439068871       -4.19087011156339
C           37.34650129925881        4.69229796777584       -3.22021515091820
C           37.01023835935474        1.81629233332038       -2.08225364005686
C           35.78367120957787        2.04543014166953       -2.78410363496708
C           34.82266759466174        1.35159538083607       -2.12628050916926
C           35.46884599622202        0.68936495292917       -1.03811163317283
N           36.81508256375069        0.91978820811229       -1.05720550876640
H           33.76418414037440       -1.24810181388472        2.30551544621822
H           35.66225771172942       -2.66929241408570        3.59556462601873
H           36.61556847981745       -4.78420853248626        2.27275436794773
H           36.67047700297969       -6.57566049003589        3.99695432941667
H           39.65187224210256       -4.67488886408939        6.09211804796665
H           39.71864684140841       -2.79341906276616        4.46744935350752
H           40.67069390973874       -3.90615185509519        2.22357755239481
H           42.57627971127206       -2.46362765970231        0.96786834225255
H           42.58045322402852        2.46963877301574       -0.97747664845228
H           40.68878206086826        3.88764731102217       -2.28168712576571
H           39.75062809236369        2.71978381326289       -4.53516045722907
H           39.71566274998779        4.57887400761125       -6.18704413670179
H           36.74839606345275        6.54618784857275       -4.13374979333648
H           36.66072380312373        4.77939200134006       -2.38595495872727
H           35.68063936155211        2.66358008514160       -3.66092921660136
H           33.76807801867265        1.28973442045997       -2.34133433799393

          :  Hamiltonian                  GFN1-xTB          :
         :: total energy            -301.823027562097 Eh    ::
         :: gradient norm              0.000514110713 Eh/a0 ::
         :: HOMO-LUMO gap              0.008046066210 eV    ::
         :: SCC energy              -306.621892572706 Eh    ::
         :: repulsion energy           4.954165109109 Eh    ::

    * Orbital Energies and Occupations

         #    Occupation            Energy/Eh            Energy/eV
      -------------------------------------------------------------
         1        2.0000           -0.7809383             -21.2504
       ...           ...                  ...                  ...
       268        2.0000           -0.4019668             -10.9381
       269        2.0000           -0.4017071             -10.9310
       270        2.0000           -0.4017069             -10.9310
       271        1.9999           -0.3988300             -10.8527
       272        1.9998           -0.3987521             -10.8506
       273        1.9998           -0.3985050             -10.8439
       274        1.9998           -0.3984152             -10.8414
       275        1.9997           -0.3982573             -10.8371
       276        1.9997           -0.3981470             -10.8341
       277        1.9997           -0.3981303             -10.8337
       278        1.7764           -0.3917378             -10.6597
       279        1.1265           -0.3898975             -10.6097
       280        1.1200           -0.3898836             -10.6093 (HOMO)
       281        0.9788           -0.3895879             -10.6012 (LUMO)
       282                         -0.3499019              -9.5213
       283                         -0.3394152              -9.2360
       284                         -0.3382249              -9.2036
       285                         -0.3351911              -9.1210
       286                         -0.3350520              -9.1172
       287                         -0.3323691              -9.0442
       288                         -0.3126419              -8.5074
       289                         -0.3033689              -8.2551
       290                         -0.3017583              -8.2113
       291                         -0.3010544              -8.1921
       ...                                ...                  ...
       591                          1.5080724              41.0367
      -------------------------------------------------------------
                  HL-Gap            0.0002957 Eh            0.0080 eV

Wiberg/Mayer (AO) data.
largest (>0.10) Wiberg bond orders for each atom

     #   Z sym  total        # sym  WBO       # sym  WBO       # sym  WBO
 ---------------------------------------------------------------------------
     1  27 Co   3.046 --     7 N    0.640    37 N    0.639    18 N    0.635
                            25 N    0.635
     2   6 C    3.929 --     3 C    1.365    36 C    1.365    38 H    0.970
     3   6 C    3.924 --     2 C    1.365     7 N    1.200     4 C    1.173
     4   6 C    3.960 --     5 C    1.651     3 C    1.173    39 H    0.975
     5   6 C    3.963 --     4 C    1.651     6 C    1.175    40 H    0.973
     6   6 C    3.920 --     8 C    1.320     7 N    1.211     5 C    1.175
     7   7 N    3.347 --     6 C    1.211     3 C    1.200     1 Co   0.640
     8   6 C    3.932 --    15 C    1.334     6 C    1.320     9 C    1.022
     9   6 C    3.986 --    10 C    1.395    14 C    1.395     8 C    1.022
                            12 N    0.107
    10   6 C    3.988 --    11 C    1.441     9 C    1.395    41 H    0.973
                            13 C    0.109
    11   6 C    3.972 --    10 C    1.441    12 N    1.416    42 H    0.972
                            14 C    0.109
    12   7 N    3.031 --    11 C    1.416    13 C    1.416     9 C    0.107
    13   6 C    3.972 --    14 C    1.441    12 N    1.416    43 H    0.972
                            10 C    0.109
    14   6 C    3.987 --    13 C    1.441     9 C    1.395    44 H    0.973
                            11 C    0.109
    15   6 C    3.917 --     8 C    1.334    18 N    1.191    16 C    1.180
    16   6 C    3.958 --    17 C    1.640    15 C    1.180    45 H    0.973
    17   6 C    3.962 --    16 C    1.640    19 C    1.188    46 H    0.974
    18   7 N    3.348 --    19 C    1.230    15 C    1.191     1 Co   0.635
    19   6 C    3.904 --    20 C    1.260    18 N    1.230    17 C    1.188
    20   6 C    3.933 --    21 C    1.261    19 C    1.260   110 C    1.188
    21   6 C    3.904 --    20 C    1.261    25 N    1.228    22 C    1.189
    22   6 C    3.961 --    23 C    1.637    21 C    1.189    47 H    0.974
    23   6 C    3.959 --    22 C    1.637    24 C    1.181    48 H    0.973
    24   6 C    3.918 --    26 C    1.329    25 N    1.194    23 C    1.181
    25   7 N    3.347 --    21 C    1.228    24 C    1.194     1 Co   0.635
    26   6 C    3.933 --    24 C    1.329    33 C    1.317    27 C    1.033
    27   6 C    3.986 --    28 C    1.391    32 C    1.390    26 C    1.033
                            30 N    0.106
    28   6 C    3.986 --    29 C    1.442    27 C    1.391    49 H    0.972
                            31 C    0.108
    29   6 C    3.972 --    28 C    1.442    30 N    1.416    50 H    0.972
                            32 C    0.108
    30   7 N    3.029 --    29 C    1.416    31 C    1.415    27 C    0.106
    31   6 C    3.972 --    32 C    1.443    30 N    1.415    51 H    0.972
                            28 C    0.108
    32   6 C    3.985 --    31 C    1.443    27 C    1.390    52 H    0.973
                            29 C    0.108
    33   6 C    3.921 --    26 C    1.317    37 N    1.212    34 C    1.176
    34   6 C    3.963 --    35 C    1.649    33 C    1.176    53 H    0.973
    35   6 C    3.958 --    34 C    1.649    36 C    1.174    54 H    0.975
    36   6 C    3.924 --     2 C    1.365    37 N    1.200    35 C    1.174
    37   7 N    3.346 --    33 C    1.212    36 C    1.200     1 Co   0.639
    38   1 H    1.000 --     2 C    0.970
    39   1 H    0.997 --     4 C    0.975
    40   1 H    1.004 --     5 C    0.973
    41   1 H    1.003 --    10 C    0.973
    42   1 H    1.013 --    11 C    0.972
    43   1 H    1.013 --    13 C    0.972
    44   1 H    1.003 --    14 C    0.973
    45   1 H    1.004 --    16 C    0.973
    46   1 H    1.001 --    17 C    0.974
    47   1 H    1.001 --    22 C    0.974
    48   1 H    1.003 --    23 C    0.973
    49   1 H    1.004 --    28 C    0.972
    50   1 H    1.013 --    29 C    0.972
    51   1 H    1.013 --    31 C    0.972
    52   1 H    1.004 --    32 C    0.973
    53   1 H    1.004 --    34 C    0.973
    54   1 H    0.997 --    35 C    0.975
    55  27 Co   3.015 --    61 N    0.636    91 N    0.635    72 N    0.631
                            79 N    0.630
    56   6 C    3.927 --    57 C    1.365    90 C    1.365    92 H    0.970
    57   6 C    3.924 --    56 C    1.365    61 N    1.202    58 C    1.173
    58   6 C    3.960 --    59 C    1.651    57 C    1.173    93 H    0.975
    59   6 C    3.963 --    58 C    1.651    60 C    1.175    94 H    0.973
    60   6 C    3.920 --    62 C    1.319    61 N    1.213    59 C    1.175
    61   7 N    3.346 --    60 C    1.213    57 C    1.202    55 Co   0.636
    62   6 C    3.931 --    69 C    1.336    60 C    1.319    63 C    1.022
    63   6 C    3.986 --    68 C    1.395    64 C    1.395    62 C    1.022
                            66 N    0.107
    64   6 C    3.988 --    65 C    1.441    63 C    1.395    95 H    0.973
                            67 C    0.109
    65   6 C    3.972 --    64 C    1.441    66 N    1.416    96 H    0.972
                            68 C    0.109
    66   7 N    3.031 --    67 C    1.417    65 C    1.416    63 C    0.107
    67   6 C    3.972 --    68 C    1.441    66 N    1.417    97 H    0.972
                            64 C    0.109
    68   6 C    3.987 --    67 C    1.441    63 C    1.395    98 H    0.973
                            65 C    0.109
    69   6 C    3.917 --    62 C    1.336    72 N    1.192    70 C    1.180
    70   6 C    3.958 --    71 C    1.640    69 C    1.180    99 H    0.973
    71   6 C    3.962 --    70 C    1.640    73 C    1.188   100 H    0.973
    72   7 N    3.346 --    73 C    1.234    69 C    1.192    55 Co   0.631
    73   6 C    3.904 --    74 C    1.259    72 N    1.234    71 C    1.188
    74   6 C    3.931 --    73 C    1.259    75 C    1.259   116 C    1.191
    75   6 C    3.904 --    74 C    1.259    79 N    1.233    76 C    1.189
    76   6 C    3.961 --    77 C    1.638    75 C    1.189   101 H    0.973
    77   6 C    3.958 --    76 C    1.638    78 C    1.181   102 H    0.973
    78   6 C    3.918 --    80 C    1.333    79 N    1.193    77 C    1.181
    79   7 N    3.346 --    75 C    1.233    78 C    1.193    55 Co   0.630
    80   6 C    3.931 --    78 C    1.333    87 C    1.317    81 C    1.030
    81   6 C    3.986 --    82 C    1.392    86 C    1.392    80 C    1.030
                            84 N    0.106
    82   6 C    3.987 --    83 C    1.442    81 C    1.392   103 H    0.973
                            85 C    0.109
    83   6 C    3.972 --    82 C    1.442    84 N    1.416   104 H    0.972
                            86 C    0.109
    84   7 N    3.030 --    83 C    1.416    85 C    1.415    81 C    0.106
    85   6 C    3.972 --    86 C    1.442    84 N    1.415   105 H    0.972
                            82 C    0.109
    86   6 C    3.987 --    85 C    1.442    81 C    1.392   106 H    0.973
                            83 C    0.109
    87   6 C    3.921 --    80 C    1.317    91 N    1.215    88 C    1.176
    88   6 C    3.963 --    89 C    1.649    87 C    1.176   107 H    0.973
    89   6 C    3.959 --    88 C    1.649    90 C    1.174   108 H    0.975
    90   6 C    3.924 --    56 C    1.365    91 N    1.201    89 C    1.174
    91   7 N    3.345 --    87 C    1.215    90 C    1.201    55 Co   0.635
    92   1 H    1.000 --    56 C    0.970
    93   1 H    0.997 --    58 C    0.975
    94   1 H    1.004 --    59 C    0.973
    95   1 H    1.003 --    64 C    0.973
    96   1 H    1.013 --    65 C    0.972
    97   1 H    1.013 --    67 C    0.972
    98   1 H    1.003 --    68 C    0.973
    99   1 H    1.004 --    70 C    0.973
   100   1 H    1.001 --    71 C    0.973
   101   1 H    1.001 --    76 C    0.973
   102   1 H    1.004 --    77 C    0.973
   103   1 H    1.004 --    82 C    0.973
   104   1 H    1.013 --    83 C    0.972
   105   1 H    1.013 --    85 C    0.972
   106   1 H    1.004 --    86 C    0.973
   107   1 H    1.003 --    88 C    0.973
   108   1 H    0.997 --    89 C    0.975
   109   6 C    3.931 --   110 C    2.468   111 C    1.312
   110   6 C    3.914 --   109 C    2.468    20 C    1.188   112 C    0.197
   111   6 C    3.924 --   112 C    2.465   109 C    1.312
   112   6 C    3.919 --   111 C    2.465   118 C    1.194   110 C    0.197
   113   6 C    3.924 --   114 C    2.462   115 C    1.315
   114   6 C    3.920 --   113 C    2.462   136 C    1.197   116 C    0.197
   115   6 C    3.930 --   116 C    2.465   113 C    1.315
   116   6 C    3.915 --   115 C    2.465    74 C    1.191   114 C    0.197
   117  27 Co   3.056 --   134 N    0.632   153 N    0.632   141 N    0.627
                           123 N    0.627
   118   6 C    3.920 --   152 C    1.256   119 C    1.254   112 C    1.194
   119   6 C    3.906 --   118 C    1.254   123 N    1.232   120 C    1.193
   120   6 C    3.959 --   121 C    1.632   119 C    1.193   154 H    0.974
   121   6 C    3.960 --   120 C    1.632   122 C    1.185   155 H    0.973
   122   6 C    3.916 --   124 C    1.320   123 N    1.197   121 C    1.185
   123   7 N    3.340 --   119 C    1.232   122 C    1.197   117 Co   0.627
   124   6 C    3.926 --   131 C    1.323   122 C    1.320   125 C    1.033
   125   6 C    3.986 --   126 C    1.391   130 C    1.390   124 C    1.033
                           128 N    0.106
   126   6 C    3.985 --   127 C    1.442   125 C    1.391   156 H    0.972
                           129 C    0.108
   127   6 C    3.972 --   126 C    1.442   128 N    1.416   157 H    0.972
                           130 C    0.109
   128   7 N    3.029 --   129 C    1.416   127 C    1.416   125 C    0.106
   129   6 C    3.972 --   130 C    1.442   128 N    1.416   158 H    0.972
                           126 C    0.108
   130   6 C    3.985 --   129 C    1.442   125 C    1.390   159 H    0.972
                           127 C    0.109
   131   6 C    3.916 --   124 C    1.323   134 N    1.195   132 C    1.184
   132   6 C    3.960 --   133 C    1.634   131 C    1.184   160 H    0.973
   133   6 C    3.959 --   132 C    1.634   135 C    1.192   161 H    0.974
   134   7 N    3.338 --   135 C    1.233   131 C    1.195   117 Co   0.632
   135   6 C    3.905 --   136 C    1.255   134 N    1.233   133 C    1.192
   136   6 C    3.920 --   135 C    1.255   137 C    1.254   114 C    1.197
   137   6 C    3.905 --   136 C    1.254   141 N    1.231   138 C    1.193
   138   6 C    3.959 --   139 C    1.632   137 C    1.193   162 H    0.974
   139   6 C    3.960 --   138 C    1.632   140 C    1.185   163 H    0.973
   140   6 C    3.916 --   142 C    1.320   141 N    1.198   139 C    1.185
   141   7 N    3.339 --   137 C    1.231   140 C    1.198   117 Co   0.627
   142   6 C    3.926 --   149 C    1.324   140 C    1.320   143 C    1.033
   143   6 C    3.986 --   148 C    1.391   144 C    1.390   142 C    1.033
                           146 N    0.106
   144   6 C    3.985 --   145 C    1.442   143 C    1.390   164 H    0.972
                           147 C    0.109
   145   6 C    3.972 --   144 C    1.442   146 N    1.415   165 H    0.972
                           148 C    0.109
   146   7 N    3.030 --   147 C    1.416   145 C    1.415   143 C    0.106
   147   6 C    3.972 --   148 C    1.442   146 N    1.416   166 H    0.972
                           144 C    0.109
   148   6 C    3.985 --   147 C    1.442   143 C    1.391   167 H    0.972
                           145 C    0.109
   149   6 C    3.916 --   142 C    1.324   153 N    1.196   150 C    1.183
   150   6 C    3.960 --   151 C    1.634   149 C    1.183   168 H    0.973
   151   6 C    3.959 --   150 C    1.634   152 C    1.191   169 H    0.974
   152   6 C    3.906 --   118 C    1.256   153 N    1.233   151 C    1.191
   153   7 N    3.338 --   152 C    1.233   149 C    1.196   117 Co   0.632
   154   1 H    1.001 --   120 C    0.974
   155   1 H    1.003 --   121 C    0.973
   156   1 H    1.004 --   126 C    0.972
   157   1 H    1.013 --   127 C    0.972
   158   1 H    1.013 --   129 C    0.972
   159   1 H    1.004 --   130 C    0.972
   160   1 H    1.003 --   132 C    0.973
   161   1 H    1.001 --   133 C    0.974
   162   1 H    1.001 --   138 C    0.974
   163   1 H    1.003 --   139 C    0.973
   164   1 H    1.004 --   144 C    0.972
   165   1 H    1.013 --   145 C    0.972
   166   1 H    1.013 --   147 C    0.972
   167   1 H    1.004 --   148 C    0.972
   168   1 H    1.003 --   150 C    0.973
   169   1 H    1.001 --   151 C    0.974
 ---------------------------------------------------------------------------

           -------------------------------------------------
          | TOTAL ENERGY             -301.823027562097 Eh   |
          | GRADIENT NORM               0.000514110713 Eh/α |
          | HOMO-LUMO GAP               0.008046066210 eV   |
           -------------------------------------------------

 * finished run on 2022/07/29 at 22:45:45.093
