   * xtb version 6.5.1 (b24c23e) compiled by 'conda@728c89f4b128' on 2022-07-12
          program call               : xtb Fe_NMA_C4_3.xyz --gfn 1 --opt -T 48

   ID    Z sym.   atoms
    1   26 Fe     1, 67, 141
    2    6 C      2-6, 8-12, 14-19, 21-26, 28-32, 34-40, 68-72, 74-78, 80-85,
                  87-92, 94-98, 100-106, 133-140, 142-146, 148-152, 154-159,
                  161-166, 168-172, 174-180
    3    7 N      7, 13, 20, 27, 33, 41, 73, 79, 86, 93, 99, 107, 147, 153,
                  160, 167, 173, 181
    4    1 H      42-66, 108-132, 182-205

          :  Hamiltonian                  GFN1-xTB          :
 * total energy  :  -316.1881816 Eh     change       -0.4409344E-09 Eh
 * total energy  :  -332.8176714 Eh     change       -0.1662949E+02 Eh
 * total energy  :  -334.7171828 Eh     change       -0.1899511E+01 Eh
 * total energy  :  -336.0161196 Eh     change       -0.1298937E+01 Eh
 * total energy  :  -336.6797856 Eh     change       -0.6636660E+00 Eh
 * total energy  :  -337.0231644 Eh     change       -0.3433788E+00 Eh
 * total energy  :  -337.2339595 Eh     change       -0.2107951E+00 Eh
 * total energy  :  -337.3737741 Eh     change       -0.1398146E+00 Eh
 * total energy  :  -337.4782091 Eh     change       -0.1044350E+00 Eh
 * total energy  :  -337.5845600 Eh     change       -0.1063509E+00 Eh
 * total energy  :  -338.7645411 Eh     change       -0.7914812E-04 Eh
 * total energy  :  -338.7646035 Eh     change       -0.6244284E-04 Eh
 * total energy  :  -338.7646446 Eh     change       -0.4105732E-04 Eh
 * total energy  :  -338.7646712 Eh     change       -0.2666540E-04 Eh
 * total energy  :  -338.7646872 Eh     change       -0.1596295E-04 Eh
 * total energy  :  -338.7646956 Eh     change       -0.8385005E-05 Eh
 * total energy  :  -338.7647048 Eh     change       -0.9189176E-05 Eh
 * total energy  :  -338.7647125 Eh     change       -0.7719291E-05 Eh
 * total energy  :  -338.7647170 Eh     change       -0.4505380E-05 Eh
   *** GEOMETRY OPTIMIZATION CONVERGED AFTER 113 ITERATIONS ***

 final structure:
================
205
 xtb: 6.5.1 (b24c23e)
Fe          36.11017492846450        0.06351951598757       -0.07180833129647
C           32.73243920972641        0.18818224154984       -0.20750257318195
C           33.36706367741352        0.93789786720303        0.76243416011003
C           32.68060316021823        1.72432611966428        1.74160527288636
C           33.63114372023973        2.39287177364086        2.43785748854988
C           34.89605254092226        2.03046396504934        1.86674530724682
N           34.72286467318475        1.09977019552061        0.87895996821829
C           36.11021326375128        2.61622742094547        2.21806597170541
C           36.11228508543618        3.71402895039840        3.20815871297813
C           35.36359785488999        4.87510179007762        2.99232266462210
C           35.37678652680604        5.90591771285272        3.91199612918536
C           36.13440483426427        5.80307629357344        5.08561669258622
N           36.07150424551187        6.83843741111240        6.00498688815716
C           37.15446716857825        7.02295265135000        6.96138936913918
C           36.87121617493010        4.63710162629095        5.31488944805662
C           36.86460415725658        3.61590069645274        4.38070407852301
C           37.31934720580084        2.22028650576742        1.65949669863445
C           38.57360603075580        2.86238712498410        1.91828420984886
C           39.52403063036607        2.13861027756990        1.27745417324878
N           37.50167578352188        1.14232010943430        0.82697455160549
C           38.84735448736523        1.06135329229223        0.62662574606660
C           39.51262735378213        0.01243145911373       -0.02242762119432
C           38.83625508447228       -1.03534742312183       -0.66256020968465
C           39.49815659718701       -2.15627051135209       -1.25149713578928
C           38.54089636376117       -2.89082629790611       -1.86965467869668
C           37.29964603374158       -2.20271230172266       -1.67304965156625
N           37.49335408425192       -1.09314746638315       -0.88445880141842
C           36.09977105420248       -2.56937270226848       -2.26934423612384
C           36.08711728712226       -3.71058435886616       -3.20874843508298
C           36.90259811097821       -3.71471740249937       -4.34248243549316
C           36.88712284465594       -4.77487419784278       -5.23211422178590
C           36.06070585755448       -5.87764482604634       -4.99614126143647
N           35.97088420107460       -6.94425480788416       -5.87632880647498
C           37.08137860120155       -7.24143928327834       -6.77051800487590
C           35.23931068840034       -5.87783299500506       -3.86146816525486
C           35.25012280575565       -4.80862103046188       -2.98682487463512
C           34.90563500769711       -1.89296693215553       -2.02618477184317
C           33.66705946361653       -2.18183097688012       -2.68946853353428
C           32.72218333118745       -1.39975568217277       -2.11439687303966
C           33.38591620972114       -0.62917507389260       -1.10715904672062
N           34.72837268576706       -0.90717331815546       -1.09523641458172
H           31.65019320520356        0.23425509677184       -0.25710764030642
H           31.60971258985646        1.74636703781329        1.86840207095152
H           33.49854022862778        3.06903526195837        3.26685136339925
H           34.78831030336131        4.97765229502158        2.07872488310301
H           34.79997829732896        6.80599684195292        3.72688510040676
H           35.76561098158209        7.71160293126438        5.59292262582369
H           38.12943110537955        7.06518853663937        6.46256426651511
H           37.15691009323891        6.20712440178132        7.68537223437471
H           36.97982814666560        7.95916664443834        7.49151483514550
H           37.44984033717618        4.51994305908097        6.22293854415120
H           37.43367995441843        2.71298303362080        4.57384920485479
H           38.70103607110141        3.75676654936663        2.50628260020807
H           40.58883001979777        2.30490355101844        1.24395387578459
H           40.55767307397698       -2.34633403482848       -1.18879922370455
H           38.65653006374842       -3.81777004477895       -2.40749494232909
H           37.53912274396308       -2.85993130388900       -4.54364472630692
H           37.51752936721935       -4.73646706757534       -6.11193443040823
H           35.58400903066173       -7.77651209006038       -5.44835792123279
H           37.17744453345531       -6.45603495962740       -7.52117103500603
H           36.86420131623323       -8.18228407868284       -7.27614492167163
H           38.02596300817010       -7.33395116247098       -6.22260978607419
H           34.59235407086999       -6.72783098574274       -3.67189343035652
H           34.62157250876610       -4.83074494542314       -2.10334349993383
H           33.54814478042482       -2.88699823966076       -3.49610511679002
H           31.66848247932159       -1.33950823454024       -2.33672622100645
Fe          62.91219025928839        0.03668016373461       -0.03813170325289
C           66.29017865703409        0.13144689530320       -0.17999502671520
C           65.65339127254209       -0.98302640196760       -0.68807705796253
C           66.33627339128873       -2.12016534849370       -1.22571281502183
C           65.38435115427984       -2.94093403452516       -1.73128899635498
C           64.12224712525206       -2.29251738913710       -1.52060380175551
N           64.29774770832428       -1.12341225521713       -0.83220014307443
C           62.90954275223656       -2.75283278744065       -2.02936974687703
C           62.90883955384402       -3.95705805232667       -2.88633246417787
C           63.68073197989697       -4.00766970509789       -4.05120598611761
C           63.67320654914629       -5.13020586861035       -4.85634584252508
C           62.89743977173077       -6.24547151082624       -4.51551821489142
N           62.96716605012256       -7.36982267576439       -5.32307752093521
C           61.87603411544219       -8.33458534097774       -5.31562955883505
C           62.13618748157005       -6.20673392055703       -3.34346875846914
C           62.13821003892436       -5.07235100728075       -2.55055351452980
C           61.70232114069726       -2.11390859493262       -1.77299932225228
C           60.44873374694087       -2.49754732505015       -2.35070771084108
C           59.49837820581448       -1.71796857762289       -1.77857079826476
N           61.52004460914529       -1.07194188812928       -0.89574931673685
C           60.17449620127778       -0.85731050290687       -0.85994021221872
C           59.51026444652719       -0.00264495233624        0.03051097542182
C           60.18929695176335        0.84781250112933        0.91437936157995
C           59.53210119886943        1.66225972846440        1.88706406101215
C           60.49035871860043        2.43176251434010        2.45984578200679
C           61.72749017077334        2.09759997532660        1.81914644878855
N           61.53115355892364        1.08377834390473        0.91147099674491
C           62.92500732892065        2.76960028340147        2.03024278440142
C           62.93998808343535        3.94141084674472        2.93076146851943
C           62.11030939528885        5.03939258885878        2.69320738975798
C           62.13033053770260        6.14560679667796        3.52479880525995
C           62.97636970979882        6.17252184378273        4.63750707634676
N           63.07267787259020        7.27220144787159        5.47533608749795
C           61.95747943185450        8.20283770900315        5.58132027768833
C           63.81120940398986        5.07420269721878        4.88010781699755
C           63.79517902677223        3.98045757963909        4.03655348606057
C           64.11616578825488        2.38621580258756        1.41625318976779
C           65.35334082603849        3.10186466627685        1.53824222849661
C           66.29895660811039        2.36066267815007        0.91232090323345
C           65.63671678837979        1.19956632520078        0.40039987547119
N           64.29420573599305        1.25215490638439        0.67323898540308
H           67.37281903275004        0.16507644814576       -0.23072107926716
H           67.40591277485744       -2.25762094392499       -1.20709370639616
H           65.51456955545913       -3.90201820902489       -2.20179006547633
H           64.27070730808538       -3.14444105376574       -4.33894519712513
H           64.26908130992032       -5.15220845577304       -5.76263438997761
H           63.29379711518587       -7.16187112651417       -6.25892725205027
H           60.90871949271551       -7.84987460856360       -5.49026586073241
H           61.84723450487930       -8.85894411694876       -4.35969283194067
H           62.06329252826269       -9.06102644958873       -6.10634975686198
H           61.54251908790766       -7.06125963372603       -3.04297807275654
H           61.55119421101384       -5.05851519325858       -1.63868654245784
H           60.32140219701680       -3.25874443416926       -3.10323398941923
H           58.43398109569998       -1.71784289655365       -1.95084696609515
H           58.47471757883213        1.63610078197215        2.09657401050009
H           60.37808201246764        3.15784972895659        3.24856369633446
H           61.45887558867249        5.03678076062545        1.82608966053167
H           61.48834404705691        6.98830193189770        3.29966879229136
H           63.47665594709780        7.04676226106212        6.37616745347479
H           61.83837883882612        8.75165014745400        4.64640705385869
H           62.18595842776252        8.91314827014599        6.37577430547354
H           61.02121852953289        7.68429849249741        5.81686654215947
H           64.47304955883763        5.08732513969910        5.73956446160680
H           64.43449692962646        3.13017660433103        4.24712544687901
H           65.47120642727752        4.05220652316301        2.03321798897696
H           67.35214697175564        2.56467349423759        0.80033268343450
C           42.13644393305567        0.00538311502691       -0.02095599003510
C           40.91176354520388        0.00474091498183       -0.02009620114734
C           43.48145437759754        0.00829727578747       -0.02242142351522
C           44.70626724950792        0.01256132578143       -0.02440989742870
C           55.54107971724103       -0.00094761074394        0.04665579717372
C           54.31620600737615        0.00291714201617        0.03939958703305
C           56.88630711045848       -0.00351219026785        0.04761044289789
C           58.11102620649458       -0.00514600434744        0.04409013543043
Fe          49.51112671325667        0.02417395289252       -0.01549671662184
C           46.10446213272086        0.01814719295422       -0.02570518419863
C           46.78165311098499       -1.07506685264297       -0.58494628532698
C           46.12228673431334       -2.22424799531984       -1.11764262300278
C           47.08062978807032       -2.98107766287527       -1.70862071958370
C           48.31898285633746       -2.28174660380285       -1.54343028649839
N           48.12500281587361       -1.14120958421257       -0.80415850235183
C           49.52268643313346       -2.66826520477815       -2.12590858287488
C           49.52538388968348       -3.82795063736888       -3.04054038351978
C           50.35397068709317       -4.92862365133568       -2.79955907000662
C           50.35148153311625       -6.01547874652120       -3.65189436282620
C           49.53084328682756       -6.02831907068406       -4.78721063860228
N           49.53061712474479       -7.15761144271733       -5.58876923082630
C           49.09529106295244       -7.06437357170263       -6.97564116319321
C           48.69754562406506       -4.93202115858529       -5.03129788251656
C           48.69651831898268       -3.85334300333035       -4.16473329193773
C           50.72312829162649       -2.00858201462311       -1.87814943751797
C           51.96886879540595       -2.33709503822367       -2.50247208396565
C           52.92191317807550       -1.58983801313461       -1.89080954019429
N           50.90772129276602       -1.02173961025485       -0.94133833747386
C           52.25163790452090       -0.79838734324585       -0.90934996999219
C           52.91786220722920        0.00821129778009        0.02494642117997
C           52.23695444893990        0.82589324563027        0.93855219931000
C           52.89092016180782        1.62123470020448        1.92774769533781
C           51.93215089694098        2.39112151387351        2.50138471200852
C           50.69929207672254        2.06932622163928        1.84882543760799
N           50.89554625973608        1.06695690656887        0.93153937757359
C           49.49969292683875        2.74375036071352        2.05988619285200
C           49.49643912170121        3.92210656391378        2.95011819439802
C           48.64688951341095        3.98195941302960        4.05755366424237
C           48.64112505430207        5.08149534517081        4.89757216376630
C           49.48932600218879        6.16400989573943        4.64341307144532
N           49.48329785516073        7.31373671216950        5.41516340048506
C           49.00702957107279        7.26528555996493        6.79030968062458
C           50.33354915395302        6.11510834353020        3.52627470029681
C           50.34186298063800        5.00821323153761        2.70038348221986
C           48.30318911206680        2.35074542892894        1.46733947761598
C           47.06201025880000        3.04979306146702        1.61166229340002
C           46.10828633238785        2.27628631188273        1.03488127052977
C           46.77408640274008        1.12002039730765        0.52626856811565
N           48.11625996340742        1.19591926179408        0.74801774841350
H           45.06349307085405       -2.41439843600758       -1.04478476890751
H           46.96638200656661       -3.93076885742473       -2.20531025215216
H           50.98653845427001       -4.93802834982926       -1.91878841882104
H           50.98795122041647       -6.86926751218555       -3.44468041038551
H           50.36570906981115       -7.71997541757755       -5.48050741045866
H           48.02256374961252       -6.87155285063859       -7.01912656455945
H           49.62659749134016       -6.26941206367655       -7.51127411351920
H           49.29761919005212       -8.02106303587833       -7.45691701059873
H           48.04699662322638       -4.91573492527811       -5.89700599123088
H           48.05972497549140       -3.00115105665988       -4.37575373465344
H           52.09159586966901       -3.04312498074760       -3.30760499068940
H           53.98356800339469       -1.56805714285594       -2.07774635729008
H           53.94663259064117        1.58752483040052        2.14419710835902
H           52.04249009265219        3.10742121972149        3.29922510537637
H           47.99890275436533        3.14050061178883        4.27755281290022
H           47.97393130700101        5.09177500205859        5.75063781725041
H           50.32791161387965        7.86297387538545        5.31434000220926
H           49.51500995297494        6.48252809217639        7.36481655960312
H           49.20365353675508        8.23424648816790        7.24908194268192
H           47.93195702982354        7.08269914497067        6.80748118795316
H           50.98304315474252        6.95730150437020        3.31198487385101
H           50.99207980424735        4.99001426590261        1.83265022546549
H           46.94250721114295        4.00975982130603        2.08688627293144
H           45.04911045197625        2.46102697137684        0.95417917550322

          :  Hamiltonian                  GFN1-xTB          :
         :: total energy            -338.764717015876 Eh    ::
         :: gradient norm              0.000560629081 Eh/a0 ::
         :: HOMO-LUMO gap              0.042600274662 eV    ::
         :: SCC energy              -344.139536625663 Eh    ::
         :: repulsion energy           5.553222526180 Eh    ::

    * Orbital Energies and Occupations

         #    Occupation            Energy/Eh            Energy/eV
      -------------------------------------------------------------
         1        2.0000           -0.7823313             -21.2883
       ...           ...                  ...                  ...
       302        2.0000           -0.3860622             -10.5053
       303        2.0000           -0.3836722             -10.4403
       304        1.9990           -0.3773521             -10.2683
       305        1.9933           -0.3755114             -10.2182
       306        1.9929           -0.3754480             -10.2165
       307        1.9922           -0.3753598             -10.2141
       308        1.9753           -0.3742611             -10.1842
       309        1.9691           -0.3740444             -10.1783
       310        1.9667           -0.3739724             -10.1763
       311        1.9656           -0.3739417             -10.1755
       312        1.9632           -0.3738765             -10.1737
       313        1.9632           -0.3738757             -10.1737
       314        1.1175           -0.3703232             -10.0770 (HOMO)
       315        0.3919           -0.3687576             -10.0344 (LUMO)
       316        0.3557           -0.3686443             -10.0313
       317        0.3546           -0.3686406             -10.0312
       318                         -0.3344919              -9.1020
       319                         -0.3228059              -8.7840
       320                         -0.3191176              -8.6836
       321                         -0.3163909              -8.6094
       322                         -0.3162949              -8.6068
       323                         -0.3139438              -8.5428
       324                         -0.2945550              -8.0152
       325                         -0.2878783              -7.8336
       ...                                ...                  ...
       687                          1.5181351              41.3106
      -------------------------------------------------------------
                  HL-Gap            0.0015655 Eh            0.0426 eV

Wiberg/Mayer (AO) data.
largest (>0.10) Wiberg bond orders for each atom

     #   Z sym  total        # sym  WBO       # sym  WBO       # sym  WBO
 ---------------------------------------------------------------------------
     1  26 Fe   3.097 --     7 N    0.660    41 N    0.659    27 N    0.652
                            20 N    0.652
     2   6 C    3.915 --    40 C    1.364     3 C    1.361    42 H    0.970
     3   6 C    3.927 --     2 C    1.361     7 N    1.209     4 C    1.176
     4   6 C    3.958 --     5 C    1.645     3 C    1.176    43 H    0.975
     5   6 C    3.963 --     4 C    1.645     6 C    1.178    44 H    0.973
     6   6 C    3.919 --     8 C    1.306     7 N    1.228     5 C    1.178
     7   7 N    3.372 --     6 C    1.228     3 C    1.209     1 Fe   0.660
     8   6 C    3.918 --    17 C    1.328     6 C    1.306     9 C    1.040
     9   6 C    3.984 --    16 C    1.380    10 C    1.370     8 C    1.040
    10   6 C    3.986 --    11 C    1.479     9 C    1.370    45 H    0.972
    11   6 C    3.987 --    10 C    1.479    12 C    1.342    46 H    0.971
    12   6 C    3.950 --    15 C    1.351    11 C    1.342    13 N    1.112
    13   7 N    3.179 --    12 C    1.112    14 C    0.971    47 H    0.931
    14   6 C    3.967 --    50 H    0.990    49 H    0.986    48 H    0.984
                            13 N    0.971
    15   6 C    3.988 --    16 C    1.467    12 C    1.351    51 H    0.970
    16   6 C    3.985 --    15 C    1.467     9 C    1.380    52 H    0.972
    17   6 C    3.917 --     8 C    1.328    20 N    1.202    18 C    1.182
    18   6 C    3.958 --    19 C    1.634    17 C    1.182    53 H    0.973
    19   6 C    3.960 --    18 C    1.634    21 C    1.191    54 H    0.974
    20   7 N    3.371 --    21 C    1.247    17 C    1.202     1 Fe   0.652
    21   6 C    3.906 --    20 N    1.247    22 C    1.247    19 C    1.191
    22   6 C    3.913 --    21 C    1.247    23 C    1.244   134 C    1.210
    23   6 C    3.906 --    27 N    1.249    22 C    1.244    24 C    1.192
    24   6 C    3.959 --    25 C    1.634    23 C    1.192    55 H    0.974
    25   6 C    3.958 --    24 C    1.634    26 C    1.182    56 H    0.973
    26   6 C    3.918 --    28 C    1.331    27 N    1.200    25 C    1.182
    27   7 N    3.371 --    23 C    1.249    26 C    1.200     1 Fe   0.652
    28   6 C    3.918 --    26 C    1.331    37 C    1.303    29 C    1.041
    29   6 C    3.984 --    30 C    1.380    36 C    1.370    28 C    1.041
    30   6 C    3.986 --    31 C    1.467    29 C    1.380    57 H    0.972
    31   6 C    3.988 --    30 C    1.467    32 C    1.351    58 H    0.970
    32   6 C    3.949 --    31 C    1.351    35 C    1.342    33 N    1.113
    33   7 N    3.180 --    32 C    1.113    34 C    0.971    59 H    0.930
    34   6 C    3.967 --    61 H    0.990    60 H    0.986    62 H    0.984
                            33 N    0.971
    35   6 C    3.987 --    36 C    1.479    32 C    1.342    63 H    0.971
    36   6 C    3.984 --    35 C    1.479    29 C    1.370    64 H    0.972
    37   6 C    3.919 --    28 C    1.303    41 N    1.231    38 C    1.178
    38   6 C    3.963 --    39 C    1.645    37 C    1.178    65 H    0.973
    39   6 C    3.959 --    38 C    1.645    40 C    1.176    66 H    0.975
    40   6 C    3.927 --     2 C    1.364    41 N    1.206    39 C    1.176
    41   7 N    3.372 --    37 C    1.231    40 C    1.206     1 Fe   0.659
    42   1 H    1.001 --     2 C    0.970
    43   1 H    0.998 --     4 C    0.975
    44   1 H    1.005 --     5 C    0.973
    45   1 H    1.005 --    10 C    0.972
    46   1 H    0.999 --    11 C    0.971
    47   1 H    0.965 --    13 N    0.931
    48   1 H    1.003 --    14 C    0.984
    49   1 H    1.012 --    14 C    0.986
    50   1 H    1.007 --    14 C    0.990
    51   1 H    1.001 --    15 C    0.970
    52   1 H    1.005 --    16 C    0.972
    53   1 H    1.005 --    18 C    0.973
    54   1 H    1.002 --    19 C    0.974
    55   1 H    1.002 --    24 C    0.974
    56   1 H    1.005 --    25 C    0.973
    57   1 H    1.006 --    30 C    0.972
    58   1 H    1.001 --    31 C    0.970
    59   1 H    0.965 --    33 N    0.930
    60   1 H    1.011 --    34 C    0.986
    61   1 H    1.007 --    34 C    0.990
    62   1 H    1.003 --    34 C    0.984
    63   1 H    0.999 --    35 C    0.971
    64   1 H    1.005 --    36 C    0.972
    65   1 H    1.005 --    38 C    0.973
    66   1 H    0.998 --    39 C    0.975
    67  26 Fe   3.101 --    73 N    0.660   107 N    0.660    93 N    0.652
                            86 N    0.652
    68   6 C    3.915 --   106 C    1.363    69 C    1.361   108 H    0.970
    69   6 C    3.927 --    68 C    1.361    73 N    1.208    70 C    1.176
    70   6 C    3.958 --    71 C    1.645    69 C    1.176   109 H    0.975
    71   6 C    3.963 --    70 C    1.645    72 C    1.178   110 H    0.973
    72   6 C    3.919 --    74 C    1.305    73 N    1.228    71 C    1.178
    73   7 N    3.372 --    72 C    1.228    69 C    1.208    67 Fe   0.660
    74   6 C    3.919 --    83 C    1.328    72 C    1.305    75 C    1.041
    75   6 C    3.984 --    82 C    1.380    76 C    1.370    74 C    1.041
    76   6 C    3.986 --    77 C    1.479    75 C    1.370   111 H    0.972
    77   6 C    3.987 --    76 C    1.479    78 C    1.342   112 H    0.971
    78   6 C    3.949 --    81 C    1.351    77 C    1.342    79 N    1.112
    79   7 N    3.179 --    78 C    1.112    80 C    0.971   113 H    0.931
    80   6 C    3.967 --   116 H    0.990   115 H    0.986   114 H    0.984
                            79 N    0.971
    81   6 C    3.988 --    82 C    1.467    78 C    1.351   117 H    0.970
    82   6 C    3.985 --    81 C    1.467    75 C    1.380   118 H    0.972
    83   6 C    3.918 --    74 C    1.328    86 N    1.202    84 C    1.183
    84   6 C    3.958 --    85 C    1.633    83 C    1.183   119 H    0.973
    85   6 C    3.960 --    84 C    1.633    87 C    1.191   120 H    0.974
    86   7 N    3.371 --    87 C    1.246    83 C    1.202    67 Fe   0.652
    87   6 C    3.906 --    88 C    1.247    86 N    1.246    85 C    1.191
    88   6 C    3.913 --    87 C    1.247    89 C    1.244   140 C    1.210
    89   6 C    3.906 --    93 N    1.249    88 C    1.244    90 C    1.192
    90   6 C    3.959 --    91 C    1.633    89 C    1.192   121 H    0.974
    91   6 C    3.958 --    90 C    1.633    92 C    1.182   122 H    0.973
    92   6 C    3.918 --    94 C    1.330    93 N    1.200    91 C    1.182
    93   7 N    3.371 --    89 C    1.249    92 C    1.200    67 Fe   0.652
    94   6 C    3.919 --    92 C    1.330   103 C    1.303    95 C    1.042
    95   6 C    3.984 --    96 C    1.380   102 C    1.369    94 C    1.042
    96   6 C    3.986 --    97 C    1.467    95 C    1.380   123 H    0.972
    97   6 C    3.988 --    96 C    1.467    98 C    1.351   124 H    0.970
    98   6 C    3.949 --    97 C    1.351   101 C    1.342    99 N    1.112
    99   7 N    3.180 --    98 C    1.112   100 C    0.971   125 H    0.930
   100   6 C    3.967 --   127 H    0.990   126 H    0.986   128 H    0.984
                            99 N    0.971
   101   6 C    3.987 --   102 C    1.480    98 C    1.342   129 H    0.971
   102   6 C    3.984 --   101 C    1.480    95 C    1.369   130 H    0.972
   103   6 C    3.919 --    94 C    1.303   107 N    1.230   104 C    1.178
   104   6 C    3.963 --   105 C    1.645   103 C    1.178   131 H    0.973
   105   6 C    3.959 --   104 C    1.645   106 C    1.176   132 H    0.975
   106   6 C    3.927 --    68 C    1.363   107 N    1.206   105 C    1.176
   107   7 N    3.372 --   103 C    1.230   106 C    1.206    67 Fe   0.660
   108   1 H    1.001 --    68 C    0.970
   109   1 H    0.998 --    70 C    0.975
   110   1 H    1.005 --    71 C    0.973
   111   1 H    1.005 --    76 C    0.972
   112   1 H    0.999 --    77 C    0.971
   113   1 H    0.965 --    79 N    0.931
   114   1 H    1.003 --    80 C    0.984
   115   1 H    1.012 --    80 C    0.986
   116   1 H    1.007 --    80 C    0.990
   117   1 H    1.001 --    81 C    0.970
   118   1 H    1.005 --    82 C    0.972
   119   1 H    1.005 --    84 C    0.973
   120   1 H    1.002 --    85 C    0.974
   121   1 H    1.002 --    90 C    0.974
   122   1 H    1.005 --    91 C    0.973
   123   1 H    1.006 --    96 C    0.972
   124   1 H    1.001 --    97 C    0.970
   125   1 H    0.965 --    99 N    0.930
   126   1 H    1.011 --   100 C    0.986
   127   1 H    1.007 --   100 C    0.990
   128   1 H    1.003 --   100 C    0.984
   129   1 H    0.999 --   101 C    0.971
   130   1 H    1.005 --   102 C    0.972
   131   1 H    1.005 --   104 C    0.973
   132   1 H    0.998 --   105 C    0.975
   133   6 C    3.923 --   134 C    2.438   135 C    1.334
   134   6 C    3.911 --   133 C    2.438    22 C    1.210   136 C    0.195
   135   6 C    3.918 --   136 C    2.436   133 C    1.334
   136   6 C    3.914 --   135 C    2.436   142 C    1.215   134 C    0.195
   137   6 C    3.918 --   138 C    2.437   139 C    1.334
   138   6 C    3.914 --   137 C    2.437   162 C    1.215   140 C    0.195
   139   6 C    3.923 --   140 C    2.439   137 C    1.334
   140   6 C    3.911 --   139 C    2.439    88 C    1.210   138 C    0.195
   141  26 Fe   3.057 --   181 N    0.644   160 N    0.644   147 N    0.644
                           167 N    0.644
   142   6 C    3.899 --   143 C    1.243   180 C    1.241   136 C    1.215
   143   6 C    3.907 --   147 N    1.247   142 C    1.243   144 C    1.195
   144   6 C    3.957 --   145 C    1.628   143 C    1.195   182 H    0.974
   145   6 C    3.959 --   144 C    1.628   146 C    1.187   183 H    0.973
   146   6 C    3.914 --   148 C    1.314   147 N    1.208   145 C    1.187
   147   7 N    3.361 --   143 C    1.247   146 C    1.208   141 Fe   0.644
   148   6 C    3.910 --   157 C    1.314   146 C    1.314   149 C    1.045
   149   6 C    3.983 --   156 C    1.377   150 C    1.368   148 C    1.045
   150   6 C    3.984 --   151 C    1.481   149 C    1.368   184 H    0.972
   151   6 C    3.987 --   150 C    1.481   152 C    1.341   185 H    0.971
   152   6 C    3.949 --   155 C    1.349   151 C    1.341   153 N    1.115
   153   7 N    3.181 --   152 C    1.115   154 C    0.970   186 H    0.930
   154   6 C    3.967 --   189 H    0.990   187 H    0.986   188 H    0.983
                           153 N    0.970
   155   6 C    3.987 --   156 C    1.469   152 C    1.349   190 H    0.970
   156   6 C    3.984 --   155 C    1.469   149 C    1.377   191 H    0.972
   157   6 C    3.914 --   148 C    1.314   160 N    1.207   158 C    1.188
   158   6 C    3.959 --   159 C    1.627   157 C    1.188   192 H    0.973
   159   6 C    3.957 --   158 C    1.627   161 C    1.196   193 H    0.974
   160   7 N    3.361 --   161 C    1.248   157 C    1.207   141 Fe   0.644
   161   6 C    3.907 --   160 N    1.248   162 C    1.242   159 C    1.196
   162   6 C    3.900 --   163 C    1.242   161 C    1.242   138 C    1.215
   163   6 C    3.907 --   167 N    1.247   162 C    1.242   164 C    1.196
   164   6 C    3.957 --   165 C    1.627   163 C    1.196   194 H    0.974
   165   6 C    3.959 --   164 C    1.627   166 C    1.188   195 H    0.973
   166   6 C    3.914 --   168 C    1.313   167 N    1.208   165 C    1.188
   167   7 N    3.361 --   163 C    1.247   166 C    1.208   141 Fe   0.644
   168   6 C    3.910 --   177 C    1.315   166 C    1.313   169 C    1.045
   169   6 C    3.983 --   170 C    1.377   176 C    1.367   168 C    1.045
   170   6 C    3.984 --   171 C    1.469   169 C    1.377   196 H    0.972
   171   6 C    3.987 --   170 C    1.469   172 C    1.349   197 H    0.970
   172   6 C    3.948 --   171 C    1.349   175 C    1.340   173 N    1.116
   173   7 N    3.182 --   172 C    1.116   174 C    0.971   198 H    0.930
   174   6 C    3.967 --   200 H    0.990   201 H    0.986   199 H    0.983
                           173 N    0.971
   175   6 C    3.987 --   176 C    1.481   172 C    1.340   202 H    0.971
   176   6 C    3.984 --   175 C    1.481   169 C    1.367   203 H    0.972
   177   6 C    3.914 --   168 C    1.315   181 N    1.207   178 C    1.187
   178   6 C    3.959 --   179 C    1.628   177 C    1.187   204 H    0.973
   179   6 C    3.958 --   178 C    1.628   180 C    1.196   205 H    0.974
   180   6 C    3.907 --   181 N    1.249   142 C    1.241   179 C    1.196
   181   7 N    3.361 --   180 C    1.249   177 C    1.207   141 Fe   0.644
   182   1 H    1.002 --   144 C    0.974
   183   1 H    1.005 --   145 C    0.973
   184   1 H    1.005 --   150 C    0.972
   185   1 H    0.998 --   151 C    0.971
   186   1 H    0.965 --   153 N    0.930
   187   1 H    1.011 --   154 C    0.986
   188   1 H    1.003 --   154 C    0.983
   189   1 H    1.007 --   154 C    0.990
   190   1 H    1.001 --   155 C    0.970
   191   1 H    1.006 --   156 C    0.972
   192   1 H    1.005 --   158 C    0.973
   193   1 H    1.002 --   159 C    0.974
   194   1 H    1.002 --   164 C    0.974
   195   1 H    1.005 --   165 C    0.973
   196   1 H    1.006 --   170 C    0.972
   197   1 H    1.001 --   171 C    0.970
   198   1 H    0.965 --   173 N    0.930
   199   1 H    1.003 --   174 C    0.983
   200   1 H    1.007 --   174 C    0.990
   201   1 H    1.011 --   174 C    0.986
   202   1 H    0.998 --   175 C    0.971
   203   1 H    1.005 --   176 C    0.972
   204   1 H    1.005 --   178 C    0.973
   205   1 H    1.002 --   179 C    0.974
 ---------------------------------------------------------------------------

           -------------------------------------------------
          | TOTAL ENERGY             -338.764717015876 Eh   |
          | GRADIENT NORM               0.000560629081 Eh/α |
          | HOMO-LUMO GAP               0.042600274662 eV   |
           -------------------------------------------------

 * finished run on 2022/07/29 at 16:24:26.205
