   * xtb version 6.5.1 (b24c23e) compiled by 'conda@728c89f4b128' on 2022-07-12
          program call               : xtb Cu_Ph3Me_C4_3.xyz --gfn 1 --opt -T 48

   ID    Z sym.   atoms
    1   29 Cu     1, 75, 157
    2    6 C      2-6, 8-20, 22-27, 29-42, 76-80, 82-94, 96-101, 103-116,
                  149-156, 158-162, 164-176, 178-183, 185-198
    3    7 N      7, 21, 28, 43, 81, 95, 102, 117, 163, 177, 184, 199
    4    1 H      44-74, 118-148, 200-229

          :  Hamiltonian                  GFN1-xTB          :
 * total energy  :  -358.4267197 Eh     change        0.4586695E-09 Eh
 * total energy  :  -358.9298897 Eh     change       -0.5031700E+00 Eh
 * total energy  :  -359.0971493 Eh     change       -0.1672596E+00 Eh
 * total energy  :  -359.1895484 Eh     change       -0.9239912E-01 Eh
 * total energy  :  -359.2453211 Eh     change       -0.5577268E-01 Eh
 * total energy  :  -359.2723843 Eh     change       -0.2706318E-01 Eh
 * total energy  :  -359.2887101 Eh     change       -0.1632583E-01 Eh
 * total energy  :  -359.2991341 Eh     change       -0.1042399E-01 Eh
 * total energy  :  -359.3042816 Eh     change       -0.5147513E-02 Eh
 * total energy  :  -359.3115916 Eh     change       -0.7309982E-02 Eh
 * total energy  :  -359.3483585 Eh     change       -0.1178673E-04 Eh
 * total energy  :  -359.3483698 Eh     change       -0.1134798E-04 Eh
 * total energy  :  -359.3483811 Eh     change       -0.1126631E-04 Eh
 * total energy  :  -359.3483909 Eh     change       -0.9810693E-05 Eh
 * total energy  :  -359.3483986 Eh     change       -0.7701793E-05 Eh
 * total energy  :  -359.3484059 Eh     change       -0.7293727E-05 Eh
 * total energy  :  -359.3484149 Eh     change       -0.8951664E-05 Eh
 * total energy  :  -359.3484266 Eh     change       -0.1176869E-04 Eh
 * total energy  :  -359.3484310 Eh     change       -0.4355564E-05 Eh
   *** GEOMETRY OPTIMIZATION CONVERGED AFTER 68 ITERATIONS ***

 final structure:
================
229
 xtb: 6.5.1 (b24c23e)
Cu          32.95620643474908        0.01665162383282       -0.01622312727504
C           29.54185361051674        0.07680475424887       -0.02506787230545
C           30.18659970401364        1.20669082133064        0.45678686638530
C           29.52581068889051        2.38405138875419        0.94571345769147
C           30.49537701898801        3.25442030357748        1.32286421246701
C           31.75746956926028        2.61552233315714        1.06752299439566
N           31.53913645915171        1.37468651075062        0.54162682292821
C           33.00498904834291        3.18308081346238        1.32233796995328
C           33.03048377560140        4.55868423226226        1.90030547326013
C           33.05244064982644        5.67057939793161        1.05346519716746
C           33.04601240095116        5.47741431359436       -0.43967657195971
C           33.07962544451990        6.94719551050654        1.60219227822239
C           33.08469837815098        7.13237650696482        2.98107870571386
C           33.13643219632483        8.51983846400180        3.56173226278902
C           33.06313345773881        6.01887654050133        3.81427645136242
C           33.03579244365996        4.73297154712580        3.28695574507804
C           33.01132240502790        3.53208683403640        4.19473879641800
C           34.23274395348797        2.56935632324502        1.08027897818929
C           35.51021782559351        3.16658141288346        1.34825409365169
C           36.45513124648284        2.26510703346694        0.97853644235104
N           34.41859533528135        1.31867159555686        0.55447414663140
C           35.76232534996502        1.11285113994267        0.48230555693382
C           36.39228274887926       -0.04254043975872       -0.01012168189911
C           35.72604716708992       -1.17697836783077       -0.50308011477171
C           36.38100381523839       -2.35375602389398       -0.99303747862144
C           35.40714105571265       -3.22382196423525       -1.36331369038642
C           34.14978939801815       -2.58217679545133       -1.10284414093088
N           34.37647257681078       -1.33701029568394       -0.57993079059973
C           32.90185484762532       -3.15194788772467       -1.34922905157163
C           32.87763509615978       -4.53021104732365       -1.92105323675256
C           32.89551564021891       -4.71223172942072       -3.30732121671734
C           32.93607726697513       -3.51638681237407       -4.22117109912838
C           32.87332859994682       -6.00024492357077       -3.82729019997567
C           32.83388118994133       -7.11008876677554       -2.98774899687778
C           32.80446934650710       -8.49573345121792       -3.57441539922022
C           32.81504968992908       -6.91742499011179       -1.61134437838544
C           32.83673705994261       -5.63688539345144       -1.06919890833874
C           32.81549122582647       -5.43599427611223        0.42279897762553
C           31.67426942052967       -2.53889180383831       -1.10264339219284
C           30.39193329002701       -3.13267826951148       -1.36591452234959
C           29.45144386336860       -2.22824577410116       -0.99547256854466
C           30.15035044774357       -1.07477547461297       -0.50278847599089
N           31.49671684288059       -1.29039285058000       -0.57924197763664
H           28.45689940478036        0.09526389397640       -0.02854987672078
H           28.45574703951462        2.51375528213922        0.98909375420441
H           30.38063903978771        4.24292058221872        1.73855269819139
H           32.14161667270911        4.95002174764161       -0.74922280402533
H           33.90395969287205        4.87695408363647       -0.74789611009500
H           33.08580329098755        6.43568347017966       -0.95675094817127
H           33.09647989737791        7.81037288188680        0.94475895867719
H           32.69218807736316        8.54206723741595        4.55705895475028
H           34.17483960256943        8.84912785609543        3.64519707105700
H           32.60758847173870        9.22779029666923        2.92294725934930
H           33.06690431453150        6.15370518114928        4.89100843994231
H           33.87220698952840        2.89041920704133        3.99759857194386
H           33.03282323174829        3.83436660416069        5.24135796109141
H           32.10918350226085        2.94289790427716        4.01888935340559
H           35.65424424853332        4.15051845052818        1.76511598286247
H           37.52782267496986        2.36182075209621        1.03148545704947
H           37.45005374287059       -2.48695432450488       -1.04121216427813
H           35.51911197393987       -4.21381624234227       -1.77573261175377
H           32.05677905356264       -2.88903882845296       -4.06220621434159
H           32.96068971458678       -3.82528367953429       -5.26581037158457
H           33.82000690246217       -2.91022978803799       -4.01404854823544
H           32.88769410203970       -6.14270451270785       -4.90298477656592
H           33.62567779096659       -8.62812335527373       -4.28077707268499
H           32.88841156963401       -9.25266946316034       -2.79475408454577
H           31.86858762113089       -8.65630351529326       -4.11358340179271
H           32.78390937134354       -7.77587552576405       -0.94832149824066
H           31.92678469843626       -4.87367727628229        0.71601691989423
H           33.69043769156370       -4.86637043578040        0.74148379477414
H           32.81122043056660       -6.39241564186096        0.94476800283071
H           30.24500424117046       -4.11650277375490       -1.78251817464227
H           28.37776554907598       -2.31989685622513       -1.04576700497604
Cu          59.93383529903917       -0.02839412671826       -0.05801602132562
C           63.34798379127155       -0.06279893147004       -0.09994340526040
C           62.70476153316896       -1.20668788308584       -0.54980020835882
C           63.36721422708616       -2.38993936172647       -1.02199780897739
C           62.39883816663573       -3.27270928262115       -1.37244701666774
C           61.13577441589227       -2.63501568320808       -1.11890986086438
N           61.35240900409276       -1.38372691715372       -0.61757632098594
C           59.88901076503848       -3.21028821250550       -1.35983230833785
C           59.86525772734621       -4.59495590694334       -1.91585140368354
C           59.87878320471088       -4.79314400724256       -3.29935657751359
C           59.92181623149954       -3.60811723602281       -4.22707643967148
C           59.85283542397315       -6.08767227752607       -3.80476205227360
C           59.81433546682096       -7.18675932134985       -2.95278099678557
C           59.76428025559869       -8.58283444026274       -3.51256291826403
C           59.80070348728515       -6.97784624345192       -1.57764091446013
C           59.82595487058471       -5.69192317830783       -1.05055363410411
C           59.81199758406965       -5.47348321333185        0.43904879848905
C           58.66038648944161       -2.59679803562334       -1.12153360729011
C           57.38356990460848       -3.19793094035988       -1.38390845066099
C           56.43755693986159       -2.29785697141528       -1.01355663158329
N           58.47304184781360       -1.34433367176699       -0.60057603116501
C           57.12905512616607       -1.14283333487503       -0.52193315058931
C           56.49796556093374        0.00814148353819       -0.02086207128692
C           57.16286839902548        1.14563615750226        0.46674024477565
C           56.50646957100953        2.31491165742791        0.97246355988811
C           57.47906639857335        3.19408557903943        1.32402657162998
C           58.73705737810961        2.56585188139099        1.03543922003120
N           58.51209335069282        1.31822717871450        0.51776319380941
C           59.98382950834355        3.15156222732892        1.24789383705763
C           60.00485071284655        4.53473432597627        1.80781192644847
C           59.97502036383382        5.63547446421753        0.94587627152424
C           59.92421681233443        5.42169694046235       -0.54360421623829
C           59.99354576179358        6.91909421642627        1.47659135940513
C           60.04074519932998        7.12350106959698        2.85286386952554
C           60.06650805324848        8.52365183196160        3.40418730684170
C           60.07071242295869        6.02213766405836        3.70026402534594
C           60.05289699572212        4.72822526557942        3.19056401480280
C           60.08532172287169        3.53989383142151        4.11448868320312
C           61.21216881965795        2.55033671536720        0.97715402943293
C           62.49356415259702        3.16196832226539        1.20117343537812
C           63.43525892847738        2.26132815039100        0.82455473235246
C           62.73801991919966        1.09264393069662        0.36652159016957
N           61.39145212468095        1.29621490563378        0.46796330932328
H           64.43297024247455       -0.07289581337860       -0.11352641158178
H           64.43750084492973       -2.51497875842437       -1.07287978418310
H           62.51496708427221       -4.26898262150525       -1.76874074403090
H           60.83306328665183       -3.03029203985677       -4.06061706209394
H           59.07112062613641       -2.94985483193683       -4.04109528969031
H           59.89629493196026       -3.92742386888979       -5.26852859682943
H           59.86342508448566       -6.24134834115707       -4.87892924548726
H           60.20820171535683       -9.29643635499810       -2.81806217826663
H           58.72622711981418       -8.87699468249516       -3.68468400891748
H           60.29418286128506       -8.63919749027514       -4.46378334753987
H           59.77069738145413       -7.82925319513978       -0.90550827698527
H           58.94439654051470       -4.87641464972562        0.72630432492854
H           59.77447809187221       -6.42328470924293        0.97170635825318
H           60.70726341631033       -4.93209665268305        0.75091736059197
H           57.24070034527217       -4.18277366298527       -1.79903891416945
H           55.36494136792836       -2.39717392046819       -1.06324646227032
H           55.43740071624638        2.43721892073240        1.04349035070064
H           57.36582604589362        4.18158848779558        1.74201805357379
H           60.80220718988475        4.86441911657899       -0.87607852795047
H           59.89350348642829        6.37369473163560       -1.07280639134038
H           59.03944952052144        4.84203399713195       -0.81360470345208
H           59.96988681492363        7.77402959405919        0.80864767326560
H           59.24427809728781        9.11094227829062        2.99206598512655
H           59.98213610743884        8.51805602106268        4.49079128832119
H           61.00148883799618        9.01781446825490        3.13211965451045
H           60.10736245199988        6.17078483782389        4.77453904703925
H           60.97593511634045        2.93756872148514        3.92481353339486
H           59.21250854420050        2.90586944514176        3.94777539896436
H           60.09377570253810        3.85684024321685        5.15693230889556
H           62.63905410114526        4.15447696242744        1.59718898220002
H           64.50874018932663        2.36503106603112        0.84908557515803
C           39.02213629738068       -0.07246151514460       -0.00122502487316
C           37.80121839994167       -0.06338970588408       -0.00695514544868
C           40.37433376758624       -0.07694952789783        0.00504081164400
C           41.59532104010620       -0.08371511233780        0.00435548542458
C           52.51602886983213        0.02371354048135        0.00926959526100
C           51.29506534530705        0.01797736058997        0.01585722066206
C           53.86820327770325        0.02420219234529        0.00443156910424
C           55.08904387073292        0.02050017530700       -0.00704337937446
Cu          46.44522550536600       -0.04071704933635        0.01234364123465
C           43.00391832904229       -0.07686093501371        0.00834707669192
C           43.64867441411317        0.11268618158741        1.24271253457511
C           42.97206981599345        0.28940048446135        2.49367352153323
C           43.92999735083159        0.42381078871227        3.44618766652818
C           45.19842911308080        0.33201486973264        2.78097190097581
N           44.99462007541992        0.14371406351493        1.44037039936804
C           46.43626778082512        0.42163687898450        3.41535368894445
C           46.43383950595880        0.61042888983645        4.89582375747463
C           46.44334655240905        1.89896131476783        5.43645989348943
C           46.45312450242787        3.09616671276095        4.52361333056566
C           46.44211383090077        2.06105578202088        6.81728569502441
C           46.43056324831596        0.95933988245004        7.66580371048223
C           46.44891377806761        1.14240199193731        9.15949319996450
C           46.42141090165452       -0.31914080548105        7.11652823116735
C           46.42244000339586       -0.50439366869236        5.73932452136065
C           46.41131700599563       -1.89048957945663        5.15166948376239
C           47.67704591029793        0.34805354182990        2.78446116641348
C           48.94200994514993        0.44602816343412        3.45544195528017
C           49.90475863042037        0.33351405176060        2.50499917527723
N           47.88760520767452        0.17695465199601        1.44265539046590
C           49.23462804627525        0.16469386923423        1.24954601682734
C           49.88652821740227        0.00402087114217        0.01505422581879
C           49.24164692878591       -0.17268068393174       -1.22117725220195
C           49.91803378188249       -0.32247060427044       -2.47569951588052
C           48.96012842359675       -0.46107404437048       -3.42765259420692
C           47.69205932136781       -0.39854577542070       -2.75846013850050
N           47.89592164792649       -0.22151375681983       -1.41639683486682
C           46.45438342672568       -0.50645578273409       -3.39038040330374
C           46.45775596302175       -0.69600092496652       -4.87074792230682
C           46.40863403929175        0.41730336960792       -5.71480655823044
C           46.35325116467022        1.80284744972850       -5.12832031344568
C           46.41076509565529        0.23128010519418       -7.09198751152314
C           46.46003209038194       -1.04643509580285       -7.64060890684848
C           46.48062749224794       -1.23058736273794       -9.13412256839170
C           46.50993452194896       -2.14670966565275       -6.79146169455314
C           46.50892616977519       -1.98386661355393       -5.41079335472573
C           46.56097810315308       -3.17964038444193       -4.49750106544159
C           45.21395601945557       -0.44802861072292       -2.75739351727100
C           43.94935354924166       -0.57067572681142       -3.42487076822663
C           42.98660531439411       -0.45340860838969       -2.47498364790727
C           43.65638959801082       -0.25810027812402       -1.22319700306883
N           45.00319626136665       -0.26122941520599       -1.41758045030115
H           41.90085712991851        0.30539902124087        2.61668537369961
H           43.80003707138346        0.57340757713948        4.50610701368947
H           47.33889576132888        3.07886296193728        3.88573262817642
H           46.45310874565353        4.02299669249529        5.09649414023857
H           45.57502721984415        3.08504449933307        3.87508368547590
H           46.44873582281492        3.06194359665592        7.23647161677186
H           47.47154546397848        1.05105193897582        9.53294365549953
H           45.84142579177615        0.38112199678053        9.65005690927702
H           46.07194100480774        2.12706816310654        9.43635016602877
H           46.41198893897150       -1.18428655412892        7.77152241653822
H           45.52639594741677       -2.03030850065915        4.52785446114528
H           47.29024857201876       -2.04207003075125        4.52218480229499
H           46.40860045118726       -2.64637394230492        5.93643233339098
H           49.06642885936660        0.58270023524661        4.51775235438490
H           50.97534271902304        0.35953627632750        2.63177770185851
H           50.98900915109831       -0.31854078413489       -2.60166603302990
H           49.09010530998854       -0.59323639626628       -4.48987862447399
H           45.45830593778467        1.91849557498348       -4.51388047475341
H           46.33748661643080        2.55788047622215       -5.91375282194520
H           47.22100625639068        1.97917186554358       -4.48990963997173
H           46.37177073329508        1.09539471994599       -7.74724716887551
H           46.11159712601299       -2.21853935470919       -9.41009231788591
H           47.50285756722387       -1.13208421189706       -9.50690990430973
H           45.86763611101447       -0.47464341651548       -9.62597565295557
H           46.54838106973280       -3.14707994870611       -7.21017101093717
H           46.58256280138886       -4.10644660078903       -5.07001876136597
H           45.68896891652027       -3.19335247124008       -3.84091574058653
H           47.45175838646421       -3.13649910079738       -3.86783620678101
H           43.82518339346368       -0.72736109082748       -4.48444032922475
H           41.91627829923330       -0.49351233828992       -2.60016480304542

          :  Hamiltonian                  GFN1-xTB          :
         :: total energy            -359.348430981486 Eh    ::
         :: gradient norm              0.000730760630 Eh/a0 ::
         :: HOMO-LUMO gap              0.000018679535 eV    ::
         :: SCC energy              -365.026277095937 Eh    ::
         :: repulsion energy           5.886391531848 Eh    ::

    * Orbital Energies and Occupations

         #    Occupation            Energy/Eh            Energy/eV
      -------------------------------------------------------------
         1        2.0000           -0.7625367             -20.7497
       ...           ...                  ...                  ...
       325        2.0000           -0.4069682             -11.0742
       326        2.0000           -0.4069530             -11.0738
       327        2.0000           -0.4067299             -11.0677
       328        2.0000           -0.4064717             -11.0607
       329        2.0000           -0.4060367             -11.0488
       330        2.0000           -0.3938684             -10.7177
       331        2.0000           -0.3938503             -10.7172
       332        2.0000           -0.3935258             -10.7084
       333        2.0000           -0.3869491             -10.5294
       334        2.0000           -0.3838902             -10.4462
       335        2.0000           -0.3780354             -10.2869
       336        1.0184           -0.3540679              -9.6347
       337        0.9910           -0.3540093              -9.6331 (HOMO)
       338        0.9906           -0.3540086              -9.6331 (LUMO)
       339                         -0.3359797              -9.1425
       340                         -0.3299314              -8.9779
       341                         -0.3261038              -8.8737
       342                         -0.3241516              -8.8206
       343                         -0.3241335              -8.8201
       344                         -0.3235896              -8.8053
       345                         -0.2968691              -8.0782
       346                         -0.2908125              -7.9134
       347                         -0.2896784              -7.8826
       348                         -0.2546819              -6.9302
       ...                                ...                  ...
       747                          1.5207531              41.3818
      -------------------------------------------------------------
                  HL-Gap            0.0000007 Eh            0.0000 eV

Wiberg/Mayer (AO) data.
largest (>0.10) Wiberg bond orders for each atom

     #   Z sym  total        # sym  WBO       # sym  WBO       # sym  WBO
 ---------------------------------------------------------------------------
     1  29 Cu   2.198 --    43 N    0.509     7 N    0.508    21 N    0.506
                            28 N    0.505
     2   6 C    3.931 --    42 C    1.361     3 C    1.361    44 H    0.972
     3   6 C    3.918 --     2 C    1.361     7 N    1.231     4 C    1.170
     4   6 C    3.955 --     5 C    1.656     3 C    1.170    45 H    0.976
     5   6 C    3.958 --     4 C    1.656     6 C    1.171    46 H    0.974
     6   6 C    3.913 --     8 C    1.326     7 N    1.234     5 C    1.171
     7   7 N    3.245 --     6 C    1.234     3 C    1.231     1 Cu   0.508
     8   6 C    3.936 --    18 C    1.331     6 C    1.326     9 C    1.003
     9   6 C    3.987 --    16 C    1.382    10 C    1.381     8 C    1.003
                            13 C    0.104
    10   6 C    3.984 --    12 C    1.421     9 C    1.381    11 C    1.020
                            15 C    0.103
    11   6 C    3.996 --    10 C    1.020    49 H    0.986    48 H    0.974
                            47 H    0.974
    12   6 C    3.993 --    10 C    1.421    13 C    1.413    50 H    0.970
                            16 C    0.103
    13   6 C    3.988 --    15 C    1.415    12 C    1.413    14 C    1.020
                             9 C    0.104
    14   6 C    3.996 --    13 C    1.020    51 H    0.983    53 H    0.982
                            52 H    0.971
    15   6 C    3.993 --    16 C    1.420    13 C    1.415    54 H    0.970
                            10 C    0.103
    16   6 C    3.984 --    15 C    1.420     9 C    1.382    17 C    1.020
                            12 C    0.103
    17   6 C    3.996 --    16 C    1.020    56 H    0.986    55 H    0.974
                            57 H    0.974
    18   6 C    3.909 --     8 C    1.331    21 N    1.220    19 C    1.177
    19   6 C    3.956 --    20 C    1.644    18 C    1.177    58 H    0.974
    20   6 C    3.957 --    19 C    1.644    22 C    1.185    59 H    0.974
    21   7 N    3.250 --    22 C    1.254    18 C    1.220     1 Cu   0.506
    22   6 C    3.901 --    23 C    1.265    21 N    1.254    20 C    1.185
    23   6 C    3.940 --    24 C    1.266    22 C    1.265   150 C    1.174
    24   6 C    3.901 --    23 C    1.266    28 N    1.255    25 C    1.185
    25   6 C    3.957 --    26 C    1.644    24 C    1.185    60 H    0.974
    26   6 C    3.956 --    25 C    1.644    27 C    1.177    61 H    0.974
    27   6 C    3.909 --    29 C    1.331    28 N    1.220    26 C    1.177
    28   7 N    3.250 --    24 C    1.255    27 C    1.220     1 Cu   0.505
    29   6 C    3.936 --    27 C    1.331    39 C    1.326    30 C    1.003
    30   6 C    3.987 --    37 C    1.385    31 C    1.378    29 C    1.003
                            34 C    0.104
    31   6 C    3.984 --    33 C    1.425    30 C    1.378    32 C    1.020
                            36 C    0.102
    32   6 C    3.996 --    31 C    1.020    63 H    0.986    64 H    0.974
                            62 H    0.974
    33   6 C    3.993 --    31 C    1.425    34 C    1.409    65 H    0.971
                            37 C    0.104
    34   6 C    3.988 --    36 C    1.419    33 C    1.409    35 C    1.020
                            30 C    0.104
    35   6 C    3.996 --    34 C    1.020    67 H    0.986    66 H    0.977
                            68 H    0.974
    36   6 C    3.993 --    34 C    1.419    37 C    1.416    69 H    0.970
                            31 C    0.102
    37   6 C    3.984 --    36 C    1.416    30 C    1.385    38 C    1.020
                            33 C    0.104
    38   6 C    3.996 --    37 C    1.020    72 H    0.986    71 H    0.974
                            70 H    0.974
    39   6 C    3.913 --    29 C    1.326    43 N    1.234    40 C    1.171
    40   6 C    3.958 --    41 C    1.656    39 C    1.171    73 H    0.974
    41   6 C    3.955 --    40 C    1.656    42 C    1.170    74 H    0.976
    42   6 C    3.918 --     2 C    1.361    43 N    1.230    41 C    1.170
    43   7 N    3.246 --    39 C    1.234    42 C    1.230     1 Cu   0.509
    44   1 H    1.002 --     2 C    0.972
    45   1 H    0.998 --     4 C    0.976
    46   1 H    1.002 --     5 C    0.974
    47   1 H    1.008 --    11 C    0.974
    48   1 H    1.008 --    11 C    0.974
    49   1 H    1.004 --    11 C    0.986
    50   1 H    1.000 --    12 C    0.970
    51   1 H    1.004 --    14 C    0.983
    52   1 H    1.006 --    14 C    0.971
    53   1 H    1.005 --    14 C    0.982
    54   1 H    1.000 --    15 C    0.970
    55   1 H    1.008 --    17 C    0.974
    56   1 H    1.004 --    17 C    0.986
    57   1 H    1.008 --    17 C    0.974
    58   1 H    1.002 --    19 C    0.974
    59   1 H    1.002 --    20 C    0.974
    60   1 H    1.002 --    25 C    0.974
    61   1 H    1.002 --    26 C    0.974
    62   1 H    1.008 --    32 C    0.974
    63   1 H    1.004 --    32 C    0.986
    64   1 H    1.008 --    32 C    0.974
    65   1 H    0.999 --    33 C    0.971
    66   1 H    1.005 --    35 C    0.977
    67   1 H    1.004 --    35 C    0.986
    68   1 H    1.006 --    35 C    0.974
    69   1 H    1.000 --    36 C    0.970
    70   1 H    1.008 --    38 C    0.974
    71   1 H    1.008 --    38 C    0.974
    72   1 H    1.004 --    38 C    0.986
    73   1 H    1.002 --    40 C    0.974
    74   1 H    0.998 --    41 C    0.976
    75  29 Cu   2.198 --   117 N    0.508    81 N    0.508    95 N    0.505
                           102 N    0.505
    76   6 C    3.931 --   116 C    1.361    77 C    1.361   118 H    0.972
    77   6 C    3.918 --    76 C    1.361    81 N    1.231    78 C    1.170
    78   6 C    3.955 --    79 C    1.656    77 C    1.170   119 H    0.976
    79   6 C    3.958 --    78 C    1.656    80 C    1.171   120 H    0.974
    80   6 C    3.913 --    82 C    1.326    81 N    1.234    79 C    1.171
    81   7 N    3.245 --    80 C    1.234    77 C    1.231    75 Cu   0.508
    82   6 C    3.936 --    92 C    1.331    80 C    1.326    83 C    1.003
    83   6 C    3.987 --    90 C    1.381    84 C    1.381    82 C    1.003
                            87 C    0.104
    84   6 C    3.984 --    86 C    1.421    83 C    1.381    85 C    1.020
                            89 C    0.103
    85   6 C    3.996 --    84 C    1.020   123 H    0.986   122 H    0.974
                           121 H    0.974
    86   6 C    3.993 --    84 C    1.421    87 C    1.414   124 H    0.970
                            90 C    0.103
    87   6 C    3.988 --    89 C    1.414    86 C    1.414    88 C    1.020
                            83 C    0.104
    88   6 C    3.996 --    87 C    1.020   125 H    0.983   127 H    0.983
                           126 H    0.971
    89   6 C    3.993 --    90 C    1.420    87 C    1.414   128 H    0.970
                            84 C    0.103
    90   6 C    3.984 --    89 C    1.420    83 C    1.381    91 C    1.020
                            86 C    0.103
    91   6 C    3.996 --    90 C    1.020   130 H    0.986   131 H    0.974
                           129 H    0.974
    92   6 C    3.909 --    82 C    1.331    95 N    1.220    93 C    1.177
    93   6 C    3.956 --    94 C    1.645    92 C    1.177   132 H    0.974
    94   6 C    3.957 --    93 C    1.645    96 C    1.185   133 H    0.974
    95   7 N    3.250 --    96 C    1.254    92 C    1.220    75 Cu   0.505
    96   6 C    3.901 --    97 C    1.265    95 N    1.254    94 C    1.185
    97   6 C    3.940 --    98 C    1.266    96 C    1.265   156 C    1.174
    98   6 C    3.901 --    97 C    1.266   102 N    1.254    99 C    1.185
    99   6 C    3.957 --   100 C    1.645    98 C    1.185   134 H    0.974
   100   6 C    3.956 --    99 C    1.645   101 C    1.177   135 H    0.974
   101   6 C    3.909 --   103 C    1.331   102 N    1.220   100 C    1.177
   102   7 N    3.250 --    98 C    1.254   101 C    1.220    75 Cu   0.505
   103   6 C    3.936 --   101 C    1.331   113 C    1.326   104 C    1.003
   104   6 C    3.987 --   111 C    1.385   105 C    1.377   103 C    1.003
                           108 C    0.104
   105   6 C    3.984 --   107 C    1.425   104 C    1.377   106 C    1.020
                           110 C    0.102
   106   6 C    3.996 --   105 C    1.020   137 H    0.986   138 H    0.974
                           136 H    0.974
   107   6 C    3.993 --   105 C    1.425   108 C    1.409   139 H    0.971
                           111 C    0.104
   108   6 C    3.988 --   110 C    1.419   107 C    1.409   109 C    1.020
                           104 C    0.104
   109   6 C    3.996 --   108 C    1.020   141 H    0.986   140 H    0.977
                           142 H    0.974
   110   6 C    3.993 --   108 C    1.419   111 C    1.416   143 H    0.970
                           105 C    0.102
   111   6 C    3.984 --   110 C    1.416   104 C    1.385   112 C    1.020
                           107 C    0.104
   112   6 C    3.996 --   111 C    1.020   146 H    0.986   145 H    0.974
                           144 H    0.974
   113   6 C    3.913 --   103 C    1.326   117 N    1.234   114 C    1.171
   114   6 C    3.958 --   115 C    1.656   113 C    1.171   147 H    0.974
   115   6 C    3.955 --   114 C    1.656   116 C    1.170   148 H    0.976
   116   6 C    3.918 --    76 C    1.361   117 N    1.230   115 C    1.170
   117   7 N    3.246 --   113 C    1.234   116 C    1.230    75 Cu   0.508
   118   1 H    1.002 --    76 C    0.972
   119   1 H    0.998 --    78 C    0.976
   120   1 H    1.002 --    79 C    0.974
   121   1 H    1.008 --    85 C    0.974
   122   1 H    1.008 --    85 C    0.974
   123   1 H    1.004 --    85 C    0.986
   124   1 H    1.000 --    86 C    0.970
   125   1 H    1.004 --    88 C    0.983
   126   1 H    1.006 --    88 C    0.971
   127   1 H    1.004 --    88 C    0.983
   128   1 H    1.000 --    89 C    0.970
   129   1 H    1.008 --    91 C    0.974
   130   1 H    1.004 --    91 C    0.986
   131   1 H    1.008 --    91 C    0.974
   132   1 H    1.002 --    93 C    0.974
   133   1 H    1.002 --    94 C    0.974
   134   1 H    1.002 --    99 C    0.974
   135   1 H    1.002 --   100 C    0.974
   136   1 H    1.008 --   106 C    0.974
   137   1 H    1.004 --   106 C    0.986
   138   1 H    1.008 --   106 C    0.974
   139   1 H    0.999 --   107 C    0.971
   140   1 H    1.005 --   109 C    0.977
   141   1 H    1.004 --   109 C    0.986
   142   1 H    1.006 --   109 C    0.974
   143   1 H    1.000 --   110 C    0.970
   144   1 H    1.008 --   112 C    0.974
   145   1 H    1.008 --   112 C    0.974
   146   1 H    1.004 --   112 C    0.986
   147   1 H    1.002 --   114 C    0.974
   148   1 H    0.998 --   115 C    0.976
   149   6 C    3.935 --   150 C    2.491   151 C    1.295
   150   6 C    3.921 --   149 C    2.491    23 C    1.174   152 C    0.197
   151   6 C    3.932 --   152 C    2.489   149 C    1.295
   152   6 C    3.921 --   151 C    2.489   158 C    1.176   150 C    0.197
   153   6 C    3.932 --   154 C    2.489   155 C    1.295
   154   6 C    3.921 --   153 C    2.489   179 C    1.176   156 C    0.197
   155   6 C    3.935 --   156 C    2.491   153 C    1.295
   156   6 C    3.921 --   155 C    2.491    97 C    1.174   154 C    0.197
   157  29 Cu   2.171 --   199 N    0.501   177 N    0.501   163 N    0.501
                           184 N    0.500
   158   6 C    3.931 --   198 C    1.263   159 C    1.263   152 C    1.176
   159   6 C    3.902 --   158 C    1.263   163 N    1.257   160 C    1.186
   160   6 C    3.956 --   161 C    1.643   159 C    1.186   200 H    0.974
   161   6 C    3.957 --   160 C    1.643   162 C    1.178   201 H    0.974
   162   6 C    3.907 --   164 C    1.329   163 N    1.220   161 C    1.178
   163   7 N    3.243 --   159 C    1.257   162 C    1.220   157 Cu   0.501
   164   6 C    3.932 --   162 C    1.329   174 C    1.329   165 C    1.003
   165   6 C    3.987 --   166 C    1.383   172 C    1.380   164 C    1.003
                           169 C    0.104
   166   6 C    3.984 --   168 C    1.419   165 C    1.383   167 C    1.020
                           171 C    0.103
   167   6 C    3.996 --   166 C    1.020   203 H    0.986   204 H    0.974
                           202 H    0.974
   168   6 C    3.993 --   166 C    1.419   169 C    1.416   205 H    0.970
                           172 C    0.102
   169   6 C    3.988 --   168 C    1.416   171 C    1.412   170 C    1.020
                           165 C    0.104
   170   6 C    3.996 --   169 C    1.020   208 H    0.984   207 H    0.981
                           206 H    0.972
   171   6 C    3.993 --   172 C    1.422   169 C    1.412   209 H    0.971
                           166 C    0.103
   172   6 C    3.984 --   171 C    1.422   165 C    1.380   173 C    1.020
                           168 C    0.102
   173   6 C    3.996 --   172 C    1.020   212 H    0.986   211 H    0.974
                           210 H    0.974
   174   6 C    3.907 --   164 C    1.329   177 N    1.220   175 C    1.178
   175   6 C    3.957 --   176 C    1.643   174 C    1.178   213 H    0.974
   176   6 C    3.956 --   175 C    1.643   178 C    1.186   214 H    0.974
   177   7 N    3.243 --   178 C    1.256   174 C    1.220   157 Cu   0.501
   178   6 C    3.902 --   179 C    1.264   177 N    1.256   176 C    1.186
   179   6 C    3.931 --   178 C    1.264   180 C    1.263   154 C    1.176
   180   6 C    3.902 --   179 C    1.263   184 N    1.257   181 C    1.186
   181   6 C    3.956 --   182 C    1.643   180 C    1.186   215 H    0.974
   182   6 C    3.957 --   181 C    1.643   183 C    1.178   216 H    0.974
   183   6 C    3.907 --   185 C    1.329   184 N    1.220   182 C    1.178
   184   7 N    3.243 --   180 C    1.257   183 C    1.220   157 Cu   0.500
   185   6 C    3.932 --   195 C    1.329   183 C    1.329   186 C    1.003
   186   6 C    3.987 --   193 C    1.382   187 C    1.380   185 C    1.003
                           190 C    0.104
   187   6 C    3.984 --   189 C    1.422   186 C    1.380   188 C    1.020
                           192 C    0.103
   188   6 C    3.996 --   187 C    1.020   218 H    0.986   219 H    0.974
                           217 H    0.974
   189   6 C    3.993 --   187 C    1.422   190 C    1.412   220 H    0.970
                           193 C    0.103
   190   6 C    3.988 --   192 C    1.416   189 C    1.412   191 C    1.020
                           186 C    0.104
   191   6 C    3.996 --   190 C    1.020   221 H    0.984   223 H    0.982
                           222 H    0.972
   192   6 C    3.993 --   193 C    1.419   190 C    1.416   224 H    0.970
                           187 C    0.103
   193   6 C    3.984 --   192 C    1.419   186 C    1.382   194 C    1.020
                           189 C    0.103
   194   6 C    3.996 --   193 C    1.020   225 H    0.986   226 H    0.974
                           227 H    0.974
   195   6 C    3.907 --   185 C    1.329   199 N    1.220   196 C    1.178
   196   6 C    3.957 --   197 C    1.643   195 C    1.178   228 H    0.974
   197   6 C    3.956 --   196 C    1.643   198 C    1.186   229 H    0.974
   198   6 C    3.902 --   158 C    1.263   199 N    1.257   197 C    1.186
   199   7 N    3.244 --   198 C    1.257   195 C    1.220   157 Cu   0.501
   200   1 H    1.002 --   160 C    0.974
   201   1 H    1.002 --   161 C    0.974
   202   1 H    1.008 --   167 C    0.974
   203   1 H    1.004 --   167 C    0.986
   204   1 H    1.008 --   167 C    0.974
   205   1 H    1.000 --   168 C    0.970
   206   1 H    1.006 --   170 C    0.972
   207   1 H    1.005 --   170 C    0.981
   208   1 H    1.004 --   170 C    0.984
   209   1 H    1.000 --   171 C    0.971
   210   1 H    1.008 --   173 C    0.974
   211   1 H    1.008 --   173 C    0.974
   212   1 H    1.004 --   173 C    0.986
   213   1 H    1.002 --   175 C    0.974
   214   1 H    1.002 --   176 C    0.974
   215   1 H    1.002 --   181 C    0.974
   216   1 H    1.002 --   182 C    0.974
   217   1 H    1.008 --   188 C    0.974
   218   1 H    1.004 --   188 C    0.986
   219   1 H    1.008 --   188 C    0.974
   220   1 H    1.000 --   189 C    0.970
   221   1 H    1.004 --   191 C    0.984
   222   1 H    1.006 --   191 C    0.972
   223   1 H    1.005 --   191 C    0.982
   224   1 H    1.000 --   192 C    0.970
   225   1 H    1.004 --   194 C    0.986
   226   1 H    1.008 --   194 C    0.974
   227   1 H    1.008 --   194 C    0.974
   228   1 H    1.002 --   196 C    0.974
   229   1 H    1.002 --   197 C    0.974
 ---------------------------------------------------------------------------

           -------------------------------------------------
          | TOTAL ENERGY             -359.348430981486 Eh   |
          | GRADIENT NORM               0.000730760630 Eh/α |
          | HOMO-LUMO GAP               0.000018679535 eV   |
           -------------------------------------------------

 * finished run on 2022/07/30 at 08:17:18.558
