   * xtb version 6.5.1 (b24c23e) compiled by 'conda@728c89f4b128' on 2022-07-12
          program call               : xtb Ni_Ph2OMe_C6_2.xyz --gfn 1 --opt -T 48

   ID    Z sym.   atoms
    1   28 Ni     1, 73
    2    6 C      2-6, 8-11, 13-21, 23-27, 29-33, 36, 37, 39-43, 45, 74-78,
                  80-83, 85-93, 95-99, 101-105, 108, 109, 111-115, 117,
                  145-150
    3    7 N      7, 12, 34, 35, 79, 84, 106, 107
    4    8 O      22, 28, 38, 44, 94, 100, 110, 116
    5    1 H      46-72, 118-144
########################################################################
[WARNING] Please study the warnings concerning your input carefully
-1- prog_main_parseArguments: Unknown option '-T' provided
########################################################################

          :  Hamiltonian                  GFN1-xTB          :
 * total energy  :  -264.3600524 Eh     change       -0.1916646E-08 Eh
 * total energy  :  -265.0940483 Eh     change       -0.7339959E+00 Eh
 * total energy  :  -265.2081866 Eh     change       -0.1141384E+00 Eh
 * total energy  :  -265.2654758 Eh     change       -0.5728919E-01 Eh
 * total energy  :  -265.2900397 Eh     change       -0.2456390E-01 Eh
 * total energy  :  -265.3029137 Eh     change       -0.1287399E-01 Eh
 * total energy  :  -265.3104399 Eh     change       -0.7526156E-02 Eh
 * total energy  :  -265.3151952 Eh     change       -0.4755297E-02 Eh
 * total energy  :  -265.3183672 Eh     change       -0.3171989E-02 Eh
 * total energy  :  -265.3207690 Eh     change       -0.2401856E-02 Eh
 * total energy  :  -265.3270309 Eh     change       -0.1881600E-04 Eh
 * total energy  :  -265.3270395 Eh     change       -0.8621909E-05 Eh
 * total energy  :  -265.3270489 Eh     change       -0.9314340E-05 Eh
 * total energy  :  -265.3270662 Eh     change       -0.1731842E-04 Eh
 * total energy  :  -265.3270759 Eh     change       -0.9697316E-05 Eh
 * total energy  :  -265.3270889 Eh     change       -0.1304529E-04 Eh
 * total energy  :  -265.3271039 Eh     change       -0.1494647E-04 Eh
 * total energy  :  -265.3271157 Eh     change       -0.1184127E-04 Eh
 * total energy  :  -265.3271197 Eh     change       -0.3968695E-05 Eh
   *** GEOMETRY OPTIMIZATION CONVERGED AFTER 44 ITERATIONS ***

 final structure:
================
150
 xtb: 6.5.1 (b24c23e)
Ni          13.17258860963205        0.01149990742843        0.04572069069137
C            9.77372086744723        0.09378511500865        0.02603539425452
C           10.43430573596895        0.89571018199524        0.93322499096858
C            9.76449302985985        1.75429779057492        1.86281361646606
C           10.72924677875952        2.41712458949288        2.54240433901267
C           11.98607549119971        1.96080463464980        2.02725484381770
N           11.79583449710139        1.01782638051081        1.04873933420416
C           13.21148738629262        2.44147363618659        2.45986377496138
C           14.42022134542724        1.98053453675861        1.96660070453955
C           15.68979080955117        2.47572422517889        2.40311678627507
C           16.63400429287826        1.76928799097500        1.73716732019131
N           14.58479736753656        0.98538423197187        1.02898668644346
C           15.93802443073580        0.84691633105628        0.89602807456200
C           16.59059773127277       -0.08167272184139        0.08011075191483
C           15.90338853962356       -0.97239874146046       -0.74872311589009
C           16.56466466318891       -1.93689471110866       -1.56981127432289
C           15.59806367577520       -2.58562392037628       -2.26137769709386
C           14.34858068394525       -2.01070479682663       -1.86515913473513
C           13.12605107473818       -2.39842911003860       -2.39214130683572
C           13.10698609893514       -3.43999634034838       -3.45645113502575
C           13.61362314332004       -3.15728238519902       -4.73212489088278
O           14.09703157903469       -1.90030710970593       -4.91345353961711
C           14.65074536290904       -1.51714980186031       -6.15598441766712
C           13.59255779176972       -4.13041081866859       -5.73074986835383
C           13.06995763242464       -5.38340507831960       -5.44848773959025
C           12.56497344807464       -5.68672949420781       -4.19317827399634
C           12.58086393852683       -4.71227262534919       -3.19573279468103
O           12.11507440529655       -4.91538721840965       -1.93506981009613
C           11.54476323147385       -6.15669402997667       -1.57319797316503
C           11.91931234315260       -1.85834394046184       -1.97079408296785
C           10.64755933371039       -2.23182373451942       -2.51619895098710
C            9.70836432465243       -1.53765154079044       -1.83279289647816
C           10.40773330859434       -0.73308088214463       -0.87750638951707
N           11.76329281730615       -0.92289691676874       -0.97872881449903
N           14.54757142958654       -1.03127029371335       -0.91763856876497
C           13.22951389383656        3.50838023811973        3.50242520158182
C           13.37358297406160        3.17451536066112        4.85387279074266
O           13.48542367606287        1.84826887225501        5.12709040283617
C           13.62791392305830        1.40289611256886        6.46079569428846
C           13.39228634720397        4.17500287485770        5.82570308853164
C           13.26817512751203        5.50071707074974        5.43806441958456
C           13.12388434403777        5.85295575666580        4.10444664858690
C           13.10348608850244        4.85251708446376        3.13288257003102
O           12.96822687990562        5.08871290703576        1.80162324388830
C           12.85142911681085        6.41144086699147        1.31804930878573
H            8.69009186440642        0.11946744950103        0.01850508624077
H            8.69303584697810        1.82755133190664        1.96329868329167
H           10.61896943724821        3.15234648600771        3.32341924194497
H           15.82518265671199        3.26172916344754        3.12846118684764
H           17.70726911068198        1.85084907231150        1.79961768015105
H           17.63218150663867       -2.08526057081247       -1.59994059839899
H           15.70811298633164       -3.38255154338596       -2.97855122403137
H           13.90679844877824       -1.56740928049453       -6.96032261522966
H           14.97925631999484       -0.48316234739343       -6.03574822078443
H           15.51338282346931       -2.14060973568466       -6.42054865261664
H           13.97701712448679       -3.92045077829034       -6.71986200904526
H           13.05559368960667       -6.14074083582807       -6.22459749394511
H           12.16514481331162       -6.67325572312552       -4.00044333174918
H           11.23976682136724       -6.05792063557004       -0.52973969958226
H           10.66430265540521       -6.38768459001906       -2.18518002692270
H           12.27108343153459       -6.97389075171717       -1.66015220877930
H           10.50711195561603       -2.93929636741497       -3.31720793309821
H            8.63620992344373       -1.55262422615242       -1.95004954737568
H           13.69421241291800        0.31444276450007        6.41227345662702
H           12.76203181012740        1.68393603147328        7.07265487239191
H           14.54098623604000        1.79914029809126        6.92146708594755
H           13.50254614343829        3.93105436836993        6.87385519145874
H           13.28410730970345        6.27841329117215        6.19381435328738
H           13.02898439618575        6.89564395658410        3.83224749491142
H           13.73625580393376        7.00976890379086        1.56718773422331
H           12.76671655039047        6.33160489361719        0.23269879108110
H           11.95611542483782        6.90643880442858        1.71358795841437
Ni          29.18362755496655       -0.04419833415321       -0.01798553645632
C           32.58243428741316       -0.01207741926593       -0.09700916358070
C           31.92194168713764       -0.79703407713250       -1.01898398643851
C           32.59191065405749       -1.59577342939740       -2.00038154475440
C           31.62727236486618       -2.17530315767069       -2.75239919657325
C           30.37033624056204       -1.73012605253317       -2.22782272130395
N           30.56043150200452       -0.89463416268487       -1.15599552135280
C           29.14502338521061       -2.09001838575808       -2.76530175345032
C           27.93619960924230       -1.66627559745622       -2.23985353531112
C           26.66672589892812       -2.02710092235503       -2.79292579549481
C           25.72237389439092       -1.46717777005010       -1.99994461745596
N           27.77145137626367       -0.87914805309098       -1.12198076421340
C           26.41814933330147       -0.76589725064416       -0.96711335805808
C           25.76556342105624       -0.09017985314058        0.06784285967859
C           26.45277648781018        0.60262789352346        1.06815968655808
C           25.79138614786698        1.27744867907149        2.14003414846065
C           26.75792160727999        1.86902178054242        2.88115677124941
C           28.00746934576230        1.55883130768738        2.25581410637920
C           29.22988453868934        2.02566790212642        2.71444624442696
C           29.24874472643017        2.93135315007961        3.89653158307611
C           28.74150897678669        4.23400314122675        3.79755720007342
O           28.25765675381287        4.59139063816458        2.57907680203262
C           27.70375453083802        5.87559178855582        2.37582484677655
C           28.76253352634772        5.08469995144794        4.90233707935317
C           29.28570621952911        4.62799420102904        6.10253770900352
C           29.79135785020799        3.34261757835891        6.22477279749588
C           29.77550576303118        2.49327068333699        5.11884256588163
O           30.24192619817341        1.21677085237944        5.14117065582722
C           30.81422720552152        0.68352019399283        6.31810733496883
C           30.43662225487132        1.68613950552027        2.11951916115567
C           31.70821894136120        2.17372787246138        2.56628284300911
C           32.64750149423150        1.59657496131982        1.78164574333665
C           31.94832469412326        0.76484335814846        0.84976559932333
N           30.59279991684686        0.83725287764179        1.05248424334736
N           27.80858646875764        0.76082896369825        1.15108040598547
C           29.12719868127989       -2.97027891215954       -3.96964707823436
C           28.98508663708106       -4.35570315747867       -3.83180532314038
O           28.87502702046065       -4.81548165850998       -2.55800077708708
C           28.73334604594666       -6.19915243781490       -2.30737656640899
C           28.96635960489026       -5.17490105337558       -4.96068711870416
C           29.08858067113544       -4.60199621891775       -6.21768071461870
C           29.23091555863195       -3.23158564347731       -6.37625278435433
C           29.25127891026305       -2.41265070888769       -5.24747297084503
O           29.38477125323390       -1.06114360009597       -5.29142824272447
C           29.49872024294763       -0.39347840747279       -6.53171261895325
H           33.66604947360749       -0.00044180938870       -0.12169789587937
H           33.66339604674632       -1.68445715807851       -2.08722725855851
H           31.73774627965656       -2.84457888886912       -3.59059216495661
H           26.53153585927502       -2.63361407251865       -3.67391301719016
H           24.64911354183175       -1.51627735865641       -2.09038040073774
H           24.72385753348153        1.28650440137477        2.29097052637560
H           26.64773311405544        2.46496408832550        3.77236108323991
H           28.44803331365484        6.66469713728867        2.53805389695223
H           27.37382742091753        5.90246559522688        1.33566334825740
H           26.84202713345774        6.04965603221971        3.03153613856345
H           28.37766236864109        6.09342913459364        4.83470985825740
H           29.30003276608611        5.28897914131093        6.96219025112356
H           30.19171044051103        3.01227679939712        7.17389629069526
H           31.11872043835057       -0.33562857534320        6.07274115291798
H           31.69528068631933        1.25681665228002        6.63145061537253
H           30.08938464699455        0.65447644726604        7.14070693051800
H           31.84844325707234        2.86612161198924        3.38039887775097
H           33.71959117453505        1.71121158632755        1.81275504211468
H           28.66957609648993       -6.30662698568719       -1.22300609121721
H           29.59841597359108       -6.76453431534510       -2.67491798704143
H           27.81925836566070       -6.59858483915149       -2.76326569186056
H           28.85750539808371       -6.24727082101799       -4.86865598708812
H           29.07268388107684       -5.23912529432655       -7.09520007564986
H           29.32430043561815       -2.81329552143688       -7.36953579199028
H           28.61250036068770       -0.55472987509571       -7.15748861424724
H           29.58376594014329        0.66933083565910       -6.29775406473290
H           30.39284564973114       -0.71401594493625       -7.08019539447619
C           21.79211709563086       -0.12349630681165        0.11940499410036
C           20.56420953254323       -0.12670729881217        0.11359263937312
C           19.21888721534159       -0.12436108858345        0.10739187743415
C           17.99553263150796       -0.11316653127556        0.09129160416182
C           23.13739983023486       -0.11678243605260        0.11328617628363
C           24.36062854060681       -0.10495127199602        0.09766117694839

          :  Hamiltonian                  GFN1-xTB          :
         :: total energy            -265.327119675096 Eh    ::
         :: gradient norm              0.000627515926 Eh/a0 ::
         :: HOMO-LUMO gap              1.215245961006 eV    ::
         :: SCC energy              -269.044141134282 Eh    ::
         :: repulsion energy           3.847281956019 Eh    ::

    * Orbital Energies and Occupations

         #    Occupation            Energy/Eh            Energy/eV
      -------------------------------------------------------------
         1        2.0000           -0.8058847             -21.9292
       ...           ...                  ...                  ...
       225        2.0000           -0.4009950             -10.9116
       226        2.0000           -0.3830237             -10.4226
       227        2.0000           -0.3830193             -10.4225
       228        2.0000           -0.3825747             -10.4104
       229        2.0000           -0.3825738             -10.4104
       230        2.0000           -0.3818431             -10.3905
       231        2.0000           -0.3818418             -10.3904
       232        2.0000           -0.3808403             -10.3632
       233        2.0000           -0.3808387             -10.3631
       234        2.0000           -0.3808121             -10.3624
       235        2.0000           -0.3808091             -10.3623
       236        2.0000           -0.3793503             -10.3226
       237        2.0000           -0.3693695             -10.0511 (HOMO)
       238                         -0.3247100              -8.8358 (LUMO)
       239                         -0.3137468              -8.5375
       240                         -0.3137222              -8.5368
       241                         -0.3133697              -8.5272
       242                         -0.3129956              -8.5170
       243                         -0.3129940              -8.5170
       244                         -0.2846939              -7.7469
       245                         -0.2772127              -7.5433
       246                         -0.2711487              -7.3783
       247                         -0.2549247              -6.9369
       248                         -0.2544077              -6.9228
       ...                                ...                  ...
       502                          1.5922968              43.3286
      -------------------------------------------------------------
                  HL-Gap            0.0446595 Eh            1.2152 eV

Wiberg/Mayer (AO) data.
largest (>0.10) Wiberg bond orders for each atom

     #   Z sym  total        # sym  WBO       # sym  WBO       # sym  WBO
 ---------------------------------------------------------------------------
     1  28 Ni   3.011 --    34 N    0.665     7 N    0.664    35 N    0.663
                            12 N    0.661
     2   6 C    3.934 --    33 C    1.364     3 C    1.363    46 H    0.971
     3   6 C    3.925 --     2 C    1.363     7 N    1.217     4 C    1.174
     4   6 C    3.960 --     5 C    1.650     3 C    1.174    47 H    0.975
     5   6 C    3.963 --     4 C    1.650     6 C    1.177    48 H    0.974
     6   6 C    3.918 --     8 C    1.331     7 N    1.219     5 C    1.177
     7   7 N    3.403 --     6 C    1.219     3 C    1.217     1 Ni   0.664
     8   6 C    3.939 --     9 C    1.340     6 C    1.331    36 C    1.002
     9   6 C    3.914 --     8 C    1.340    12 N    1.201    10 C    1.182
    10   6 C    3.959 --    11 C    1.639     9 C    1.182    49 H    0.974
    11   6 C    3.961 --    10 C    1.639    13 C    1.189    50 H    0.973
    12   7 N    3.408 --    13 C    1.244     9 C    1.201     1 Ni   0.661
    13   6 C    3.905 --    14 C    1.261    12 N    1.244    11 C    1.189
    14   6 C    3.944 --    15 C    1.264    13 C    1.261   148 C    1.184
    15   6 C    3.905 --    14 C    1.264    35 N    1.241    16 C    1.189
    16   6 C    3.962 --    17 C    1.639    15 C    1.189    51 H    0.973
    17   6 C    3.960 --    16 C    1.639    18 C    1.183    52 H    0.974
    18   6 C    3.914 --    19 C    1.336    35 N    1.203    17 C    1.183
    19   6 C    3.940 --    18 C    1.336    30 C    1.327    20 C    1.014
    20   6 C    3.977 --    27 C    1.343    21 C    1.342    19 C    1.014
                            25 C    0.101
    21   6 C    3.904 --    24 C    1.362    20 C    1.342    22 O    1.032
    22   8 O    2.145 --    21 C    1.032    23 C    0.935
    23   6 C    3.907 --    54 H    0.983    55 H    0.980    53 H    0.980
                            22 O    0.935
    24   6 C    3.983 --    25 C    1.442    21 C    1.362    56 H    0.969
    25   6 C    3.993 --    24 C    1.442    26 C    1.442    57 H    0.974
                            20 C    0.101
    26   6 C    3.983 --    25 C    1.442    27 C    1.362    58 H    0.969
    27   6 C    3.903 --    26 C    1.362    20 C    1.343    28 O    1.031
    28   8 O    2.145 --    27 C    1.031    29 C    0.935
    29   6 C    3.907 --    59 H    0.983    60 H    0.980    61 H    0.980
                            28 O    0.935
    30   6 C    3.918 --    19 C    1.327    34 N    1.220    31 C    1.177
    31   6 C    3.963 --    32 C    1.650    30 C    1.177    62 H    0.974
    32   6 C    3.960 --    31 C    1.650    33 C    1.174    63 H    0.975
    33   6 C    3.925 --     2 C    1.364    34 N    1.215    32 C    1.174
    34   7 N    3.404 --    30 C    1.220    33 C    1.215     1 Ni   0.665
    35   7 N    3.408 --    15 C    1.241    18 C    1.203     1 Ni   0.663
    36   6 C    3.978 --    37 C    1.347    43 C    1.347     8 C    1.002
                            41 C    0.102
    37   6 C    3.905 --    40 C    1.360    36 C    1.347    38 O    1.033
    38   8 O    2.145 --    37 C    1.033    39 C    0.935
    39   6 C    3.908 --    64 H    0.983    65 H    0.980    66 H    0.980
                            38 O    0.935
    40   6 C    3.983 --    41 C    1.444    37 C    1.360    67 H    0.969
    41   6 C    3.995 --    40 C    1.444    42 C    1.443    68 H    0.974
                            36 C    0.102
    42   6 C    3.983 --    41 C    1.443    43 C    1.360    69 H    0.969
    43   6 C    3.905 --    42 C    1.360    36 C    1.347    44 O    1.032
    44   8 O    2.145 --    43 C    1.032    45 C    0.936
    45   6 C    3.908 --    71 H    0.983    72 H    0.980    70 H    0.980
                            44 O    0.936
    46   1 H    1.001 --     2 C    0.971
    47   1 H    0.998 --     4 C    0.975
    48   1 H    1.002 --     5 C    0.974
    49   1 H    1.002 --    10 C    0.974
    50   1 H    1.002 --    11 C    0.973
    51   1 H    1.002 --    16 C    0.973
    52   1 H    1.002 --    17 C    0.974
    53   1 H    1.009 --    23 C    0.980
    54   1 H    1.015 --    23 C    0.983
    55   1 H    1.009 --    23 C    0.980
    56   1 H    1.000 --    24 C    0.969
    57   1 H    1.003 --    25 C    0.974
    58   1 H    1.000 --    26 C    0.969
    59   1 H    1.015 --    29 C    0.983
    60   1 H    1.009 --    29 C    0.980
    61   1 H    1.009 --    29 C    0.980
    62   1 H    1.002 --    31 C    0.974
    63   1 H    0.998 --    32 C    0.975
    64   1 H    1.015 --    39 C    0.983
    65   1 H    1.009 --    39 C    0.980
    66   1 H    1.009 --    39 C    0.980
    67   1 H    1.000 --    40 C    0.969
    68   1 H    1.003 --    41 C    0.974
    69   1 H    1.000 --    42 C    0.969
    70   1 H    1.009 --    45 C    0.980
    71   1 H    1.015 --    45 C    0.983
    72   1 H    1.009 --    45 C    0.980
    73  28 Ni   3.011 --   106 N    0.665    79 N    0.664   107 N    0.663
                            84 N    0.661
    74   6 C    3.934 --   105 C    1.364    75 C    1.363   118 H    0.971
    75   6 C    3.925 --    74 C    1.363    79 N    1.217    76 C    1.174
    76   6 C    3.960 --    77 C    1.650    75 C    1.174   119 H    0.975
    77   6 C    3.963 --    76 C    1.650    78 C    1.177   120 H    0.974
    78   6 C    3.918 --    80 C    1.331    79 N    1.219    77 C    1.177
    79   7 N    3.403 --    78 C    1.219    75 C    1.217    73 Ni   0.664
    80   6 C    3.939 --    81 C    1.340    78 C    1.331   108 C    1.002
    81   6 C    3.914 --    80 C    1.340    84 N    1.201    82 C    1.182
    82   6 C    3.959 --    83 C    1.639    81 C    1.182   121 H    0.974
    83   6 C    3.961 --    82 C    1.639    85 C    1.189   122 H    0.973
    84   7 N    3.408 --    85 C    1.244    81 C    1.201    73 Ni   0.661
    85   6 C    3.905 --    86 C    1.262    84 N    1.244    83 C    1.189
    86   6 C    3.944 --    87 C    1.264    85 C    1.262   150 C    1.184
    87   6 C    3.905 --    86 C    1.264   107 N    1.242    88 C    1.189
    88   6 C    3.962 --    89 C    1.639    87 C    1.189   123 H    0.973
    89   6 C    3.960 --    88 C    1.639    90 C    1.183   124 H    0.974
    90   6 C    3.914 --    91 C    1.336   107 N    1.203    89 C    1.183
    91   6 C    3.940 --    90 C    1.336   102 C    1.327    92 C    1.014
    92   6 C    3.977 --    99 C    1.343    93 C    1.342    91 C    1.014
                            97 C    0.101
    93   6 C    3.904 --    96 C    1.362    92 C    1.342    94 O    1.032
    94   8 O    2.145 --    93 C    1.032    95 C    0.935
    95   6 C    3.907 --   126 H    0.983   127 H    0.980   125 H    0.980
                            94 O    0.935
    96   6 C    3.983 --    97 C    1.442    93 C    1.362   128 H    0.969
    97   6 C    3.993 --    96 C    1.442    98 C    1.442   129 H    0.974
                            92 C    0.101
    98   6 C    3.983 --    97 C    1.442    99 C    1.362   130 H    0.969
    99   6 C    3.903 --    98 C    1.362    92 C    1.343   100 O    1.031
   100   8 O    2.145 --    99 C    1.031   101 C    0.935
   101   6 C    3.907 --   131 H    0.983   132 H    0.980   133 H    0.980
                           100 O    0.935
   102   6 C    3.918 --    91 C    1.327   106 N    1.220   103 C    1.177
   103   6 C    3.963 --   104 C    1.650   102 C    1.177   134 H    0.974
   104   6 C    3.960 --   103 C    1.650   105 C    1.174   135 H    0.975
   105   6 C    3.925 --    74 C    1.364   106 N    1.215   104 C    1.174
   106   7 N    3.404 --   102 C    1.220   105 C    1.215    73 Ni   0.665
   107   7 N    3.408 --    87 C    1.242    90 C    1.203    73 Ni   0.663
   108   6 C    3.978 --   109 C    1.347   115 C    1.347    80 C    1.002
                           113 C    0.102
   109   6 C    3.905 --   112 C    1.360   108 C    1.347   110 O    1.033
   110   8 O    2.145 --   109 C    1.033   111 C    0.935
   111   6 C    3.908 --   136 H    0.983   137 H    0.980   138 H    0.980
                           110 O    0.935
   112   6 C    3.983 --   113 C    1.444   109 C    1.360   139 H    0.969
   113   6 C    3.995 --   112 C    1.444   114 C    1.443   140 H    0.974
                           108 C    0.102
   114   6 C    3.983 --   113 C    1.443   115 C    1.360   141 H    0.969
   115   6 C    3.905 --   114 C    1.360   108 C    1.347   116 O    1.032
   116   8 O    2.145 --   115 C    1.032   117 C    0.936
   117   6 C    3.908 --   143 H    0.983   144 H    0.980   142 H    0.980
                           116 O    0.936
   118   1 H    1.001 --    74 C    0.971
   119   1 H    0.998 --    76 C    0.975
   120   1 H    1.002 --    77 C    0.974
   121   1 H    1.002 --    82 C    0.974
   122   1 H    1.002 --    83 C    0.973
   123   1 H    1.002 --    88 C    0.973
   124   1 H    1.002 --    89 C    0.974
   125   1 H    1.009 --    95 C    0.980
   126   1 H    1.015 --    95 C    0.983
   127   1 H    1.009 --    95 C    0.980
   128   1 H    1.000 --    96 C    0.969
   129   1 H    1.003 --    97 C    0.974
   130   1 H    1.000 --    98 C    0.969
   131   1 H    1.015 --   101 C    0.983
   132   1 H    1.009 --   101 C    0.980
   133   1 H    1.009 --   101 C    0.980
   134   1 H    1.002 --   103 C    0.974
   135   1 H    0.998 --   104 C    0.975
   136   1 H    1.015 --   111 C    0.983
   137   1 H    1.009 --   111 C    0.980
   138   1 H    1.009 --   111 C    0.980
   139   1 H    1.000 --   112 C    0.969
   140   1 H    1.003 --   113 C    0.974
   141   1 H    0.999 --   114 C    0.969
   142   1 H    1.009 --   117 C    0.980
   143   1 H    1.015 --   117 C    0.983
   144   1 H    1.009 --   117 C    0.980
   145   6 C    3.928 --   146 C    2.376   149 C    1.330   148 C    0.191
   146   6 C    3.928 --   145 C    2.376   147 C    1.330   150 C    0.191
   147   6 C    3.938 --   148 C    2.457   146 C    1.330
   148   6 C    3.892 --   147 C    2.457    14 C    1.184   145 C    0.191
   149   6 C    3.938 --   150 C    2.457   145 C    1.330
   150   6 C    3.892 --   149 C    2.457    86 C    1.184   146 C    0.191
 ---------------------------------------------------------------------------

           -------------------------------------------------
          | TOTAL ENERGY             -265.327119675096 Eh   |
          | GRADIENT NORM               0.000627515926 Eh/α |
          | HOMO-LUMO GAP               1.215245961006 eV   |
           -------------------------------------------------

 * finished run on 2022/07/30 at 10:09:16.978
