   * xtb version 6.5.1 (b24c23e) compiled by 'conda@728c89f4b128' on 2022-07-12
          program call               : xtb Ni_C2Py_C4_3.xyz --gfn 1 --opt -T 48

   ID    Z sym.   atoms
    1   28 Ni     1, 59, 125
    2    6 C      2-6, 8-13, 15-19, 21-26, 28-33, 35-40, 60-64, 66-71, 73-77,
                  79-84, 86-91, 93-98, 117-124, 126-130, 132-137, 139-143,
                  145-150, 152-157, 159-164
    3    7 N      7, 14, 20, 27, 34, 41, 65, 72, 78, 85, 92, 99, 131, 138,
                  144, 151, 158, 165
    4    1 H      42-58, 100-116, 166-181
########################################################################
[WARNING] Please study the warnings concerning your input carefully
-1- prog_main_parseArguments: Unknown option '-T' provided
########################################################################

          :  Hamiltonian                  GFN1-xTB          :
 * total energy  :  -328.0987027 Eh     change       -0.1106991E-07 Eh
 * total energy  :  -328.3590241 Eh     change       -0.2603214E+00 Eh
 * total energy  :  -328.5058485 Eh     change       -0.1468244E+00 Eh
 * total energy  :  -328.5935231 Eh     change       -0.8767454E-01 Eh
 * total energy  :  -328.6486845 Eh     change       -0.5516144E-01 Eh
 * total energy  :  -328.6805985 Eh     change       -0.3191403E-01 Eh
 * total energy  :  -328.7026226 Eh     change       -0.2202408E-01 Eh
 * total energy  :  -328.7159438 Eh     change       -0.1332120E-01 Eh
 * total energy  :  -328.7243973 Eh     change       -0.8453527E-02 Eh
 * total energy  :  -328.7315918 Eh     change       -0.7194485E-02 Eh
 * total energy  :  -328.7590164 Eh     change       -0.1340642E-04 Eh
 * total energy  :  -328.7590220 Eh     change       -0.5672205E-05 Eh
 * total energy  :  -328.7590109 Eh     change        0.1115836E-04 Eh
 * total energy  :  -328.7590288 Eh     change       -0.1790971E-04 Eh
 * total energy  :  -328.7590320 Eh     change       -0.3219556E-05 Eh
 * total energy  :  -328.7590375 Eh     change       -0.5482016E-05 Eh
 * total energy  :  -328.7590018 Eh     change        0.3569371E-04 Eh
 * total energy  :  -328.7590377 Eh     change       -0.3595068E-04 Eh
 * total energy  :  -328.7590427 Eh     change       -0.4966657E-05 Eh
   *** GEOMETRY OPTIMIZATION CONVERGED AFTER 101 ITERATIONS ***

 final structure:
================
181
 xtb: 6.5.1 (b24c23e)
Ni          32.34212809675125        0.00249316017158       -0.04071066259608
C           28.94005183835342        0.09254175821388       -0.13664952067362
C           29.58388694015816        0.93453227201585        0.74507972174823
C           28.89759368496939        1.83498219507821        1.62017371787828
C           29.84856778649940        2.46966889629539        2.34577935971851
C           31.11058266290529        1.95806069761475        1.90620019462235
N           30.94405865002244        1.01940310874896        0.92608727853717
C           32.33309694273265        2.38664987766114        2.42438648980625
C           32.33010272315004        3.36753024652667        3.44045205353161
C           32.32561194083937        4.21465480332213        4.30898156424298
C           32.32647360133970        5.20633643861384        5.31686127254632
C           33.52422719502228        5.70046055130972        5.84643150009903
C           33.47161907343185        6.67356271854964        6.82847677298583
N           32.33073913476812        7.16898595547693        7.30117113890013
C           31.18776069407005        6.70356116890087        6.80364707587558
C           31.13088413876118        5.73210375600990        5.82016988676838
C           33.55909890471128        1.90025171215332        1.96973237791686
C           34.81541734499584        2.35214552121319        2.47872998580735
C           35.77499514018454        1.68747479276410        1.79028437482675
N           33.73841774754026        0.96298967991914        0.98511607068988
C           35.09796017400532        0.83075650660438        0.86948582694821
C           35.76554803415625       -0.01545229804619       -0.01642046409938
C           35.10007337061318       -0.87241336667211       -0.89481958221882
C           35.78002606231430       -1.76450267576833       -1.77937949209980
C           34.82295297871907       -2.45817701477584       -2.44201402455894
C           33.56505221880652       -1.97972280294802       -1.96280867096166
N           33.74100413123750       -1.00443214207058       -1.01505086919932
C           32.34063170199502       -2.46054263491770       -2.42721499938534
C           32.34142979480509       -3.48712374132014       -3.39709488600849
C           32.34103991406647       -4.37272705827238       -4.22636488601371
C           32.34146396386380       -5.40487805252502       -5.19278152006732
C           33.53797721906871       -5.95491381116837       -5.66706948825516
C           33.48327477336100       -6.96415078264785       -6.61191642545804
N           32.34158896121574       -7.44397533259959       -7.09853324637595
C           31.19979613660665       -6.92601706519947       -6.65292370645437
C           31.14502649643895       -5.91515523575667       -5.70989672041700
C           31.11566270975509       -1.96116129390697       -1.98391456898013
C           29.85441912118614       -2.41963950821186       -2.48043510213255
C           28.90111331663837       -1.69424099025460       -1.84894852808569
C           29.58538291284993       -0.80175398197966       -0.96414531494197
N           30.94637133807896       -0.97334039724740       -1.05391302529094
H           27.85730759401860        0.12675084772649       -0.17233847557498
H           27.82602986676874        1.94850669351010        1.66120786229107
H           29.72654395660927        3.21923092372844        3.11113778245256
H           34.47578353888521        5.32505275958206        5.48975414939241
H           34.38550721352646        7.07581641821693        7.25615253239859
H           30.27574899078678        7.12971964340320        7.21173278300405
H           30.17771488712846        5.38180497007361        5.44281672269467
H           34.93105085037006        3.08636570655732        3.25963404379025
H           36.84653636386789        1.75778657867125        1.88553363263406
H           36.85161421292436       -1.84163829402628       -1.86714002797515
H           34.94149996276919       -3.22437781110380       -3.19102747638121
H           34.49021642409146       -5.59382119314122       -5.29763383791669
H           34.39610324302210       -7.40937640508274       -6.99716483458061
H           30.28703415851356       -7.34063174905788       -7.07109193209518
H           30.19282986802666       -5.52213778227707       -5.37452116093641
H           29.73465016837460       -3.19460892023407       -3.22045257450093
H           27.82931316644816       -1.74555153248238       -1.95583782835655
Ni          59.19104645295707       -0.12291316076336       -0.06992301465953
C           62.59287308514873       -0.15349710323861       -0.18561583948055
C           61.92611831668609       -1.32171319833720       -0.48863235562026
C           62.58767046677244       -2.53855469229081       -0.84816654752070
C           61.61885064620436       -3.46788067887359       -1.02605864587582
C           60.37110202817617       -2.81366974169945       -0.77597232017321
N           60.56312457680385       -1.49816208256705       -0.45679217305833
C           59.13855321492575       -3.46489242961938       -0.83555010168937
C           59.11445580640933       -4.83831000457539       -1.16363936160299
C           59.09524648555968       -6.01507749977853       -1.45802777453713
C           59.07192901097427       -7.38484265352571       -1.80809744162136
C           57.86496000539487       -8.08334428363265       -1.92884277763333
C           57.89729093012389       -9.42089838915875       -2.28132263959036
N           59.02676392093225      -10.08491113873220       -2.51347201662754
C           60.17839204177471       -9.42803851063512       -2.40008413006074
C           60.25539405861461       -8.09077622817027       -2.05372905814212
C           57.92770408662120       -2.81277523881122       -0.60179787231195
C           56.66162795580360       -3.47139984293630       -0.66533930185340
C           55.71929297817737       -2.52313901373119       -0.44303784826870
N           57.77181501979862       -1.47803272188181       -0.32791490077576
C           56.41654469711325       -1.29257506035924       -0.24297464072377
C           55.76874767432385       -0.07385298654140       -0.03036153920358
C           56.45496229394126        1.12129879601812        0.18909987404234
C           55.79734015277767        2.36524113020222        0.43443178272588
C           56.77074128398895        3.27874587552476        0.66869000496569
C           58.01618770906641        2.58738250506652        0.55808434996952
N           57.81655641631442        1.26543673837078        0.25338559493956
C           59.25177005870177        3.20382602319978        0.75762988678658
C           59.27683091814661        4.57016331611341        1.11382194954160
C           59.30072158944979        5.74220833068708        1.42627423985413
C           59.32653677719020        7.10816985238701        1.79062169218987
C           58.14289805077097        7.83373769098547        1.96898150647516
C           58.22224833504372        9.16761414546791        2.32769213344778
N           59.37625896552311        9.80346910599635        2.51350894262944
C           60.50594665806399        9.12077697220505        2.34520576309867
C           60.53607742878369        7.78457984733470        1.98760312722513
C           60.46487057649050        2.53024672853216        0.61040496227416
C           61.73861153964916        3.15850575141195        0.78512306089373
C           62.67585858319752        2.22036723417438        0.51077020587551
C           61.96931121513476        1.02210793785454        0.17530072087941
N           60.61081414869465        1.22005015315907        0.24773826021558
H           63.67593368798683       -0.16186134713563       -0.22658405278912
H           63.65632999474658       -2.64781274003847       -0.94232167330755
H           61.72013322896337       -4.50612559727246       -1.29867284132713
H           56.92199229277966       -7.58103127553514       -1.74949605031769
H           56.97591499984073       -9.98717264197604       -2.38302487595236
H           61.08071538136758       -9.99997541875025       -2.59664731877896
H           61.21488038738092       -7.59417150276330       -1.97359676558622
H           56.52767087782923       -4.52319873536999       -0.86035508144205
H           54.64711308193672       -2.63118760820697       -0.41591361810871
H           54.72807092141160        2.50264290468487        0.43152537292990
H           56.67118895724713        4.32768275240893        0.89685725404099
H           57.18144085631166        7.35479211178294        1.82797521089114
H           57.31981942105283        9.75438738986222        2.47349424171823
H           61.42928240413540        9.67027814152873        2.50477488536786
H           61.47922070845508        7.26670246577118        1.86128128463459
H           61.87734815786850        4.18781332700873        1.07461747955510
H           63.75023506468730        2.31118493463659        0.52770040186002
C           38.39484271907816       -0.05504888475384       -0.03983748576162
C           37.17504016708104       -0.02400270269674       -0.01765031599929
C           39.74604114002567       -0.11691604668385       -0.07818866055763
C           40.96223665728884       -0.20051900217073       -0.13735836643053
C           51.78878230453399       -0.12036976802592       -0.10596025233877
C           50.57179755822649       -0.19394996526603       -0.16603872143993
C           53.13988795092738       -0.07324702613269       -0.06489618848928
C           54.36012969086236       -0.05842161562017       -0.03810777653657
Ni          45.76669315696295       -0.54212292681646       -0.40463112916866
C           42.36322453552484       -0.31868489139370       -0.22684695999541
C           43.01356641088942        0.25826466716858       -1.32021646650611
C           42.32588698160435        0.89511327468366       -2.39781880768372
C           43.27071842293842        1.26480759503049       -3.29739989602125
C           44.53182081618849        0.88196093494367       -2.74669847548603
N           44.36568021579647        0.25195223538462       -1.54068587111309
C           45.75619689736366        1.21356144929312       -3.32873951244789
C           45.75622946670249        1.86049637188311       -4.58362422124626
C           45.75699098095496        2.39991032363008       -5.67039064611686
C           45.75745681129309        3.02929024846071       -6.93652184620067
C           46.95278655686050        3.41098379693618       -7.55707500865023
C           46.89826981109064        4.02139133083184       -8.79755432336318
N           45.75787803018685        4.26695092906142       -9.43788351261257
C           44.61722478158617        3.90726251811533       -8.85443929742224
C           44.56232852487084        3.29151294628116       -7.61667782038286
C           46.97785672594685        0.99120312220565       -2.69098353963128
C           48.22284248437057        1.49473107631028       -3.17695748166718
C           49.16843764525316        1.12722351159679       -2.27722190610889
N           47.15310056481385        0.31038449718550       -1.51471089731213
C           48.49944628266520        0.37199558366776       -1.26620983933471
C           49.17092047036405       -0.30978547208002       -0.24876290360382
C           48.52064297170690       -1.18405915685053        0.62591272145025
C           49.20858092748519       -2.02409183836737        1.55359781565419
C           48.26301474573125       -2.76630963438360        2.18109667469232
C           47.00158830580106       -2.35112639372378        1.65520820617261
N           47.16812609431940       -1.39146798859334        0.69043948994552
C           45.77723896050502       -2.80214364370158        2.15045039031137
C           45.77849334366125       -3.79290269679446        3.15642199119224
C           45.77991245434340       -4.64952617201513        4.01563338182040
C           45.78391336618098       -5.64380747705651        5.02093884915171
C           44.58975691225682       -6.13703538963381        5.55934087797143
C           44.64914638337977       -7.10833876413774        6.54288315180035
N           45.79323685598053       -7.60293921587493        7.00855169222199
C           46.93280371129185       -7.13921607469899        6.50174559044162
C           46.98292481470845       -6.16961452578133        5.51605208915782
C           44.55519363898038       -2.26421287640073        1.74305811119477
C           43.30951587870079       -2.57947112397200        2.36656728363298
C           42.36362595967641       -1.83333456528706        1.74433822224703
C           43.03329103247264       -1.09265856784818        0.72302049573828
N           44.38000913238196       -1.34703690731478        0.74009760952223
H           41.25680906494618        1.02278098209606       -2.45158468765889
H           43.14242700871613        1.76992091189070       -4.24114480907723
H           47.90388259848000        3.22957373631339       -7.07087817597266
H           47.81014246553699        4.32778506138765       -9.30231004102025
H           43.70559120785251        4.12245339795783       -9.40462760840018
H           43.61116929474287        3.01483321677276       -7.17785399612221
H           48.34025219756285        2.06630075415802       -4.08347526539985
H           50.22832525092223        1.32347653211751       -2.29387014896787
H           50.27815811302781       -2.04173402834894        1.68713915922031
H           48.39138890320516       -3.51524566859926        2.94588599269660
H           43.63578439871132       -5.76191679160326        5.20895895060648
H           43.73830495026930       -7.50953075456512        6.97792625788598
H           47.84760172780778       -7.56403485157603        6.90490029853261
H           47.93344812551150       -5.81983249462537        5.13163835661310
H           43.19177480262557       -3.27366321339689        3.18295392025766
H           41.30326101951584       -1.79278201129222        1.93440335298373

          :  Hamiltonian                  GFN1-xTB          :
         :: total energy            -328.759042715934 Eh    ::
         :: gradient norm              0.000827344115 Eh/a0 ::
         :: HOMO-LUMO gap              1.214571006222 eV    ::
         :: SCC energy              -334.342799403047 Eh    ::
         :: repulsion energy           5.737838098106 Eh    ::

    * Orbital Energies and Occupations

         #    Occupation            Energy/Eh            Energy/eV
      -------------------------------------------------------------
         1        2.0000           -0.7914532             -21.5365
       ...           ...                  ...                  ...
       293        2.0000           -0.4067308             -11.0677
       294        2.0000           -0.4067246             -11.0675
       295        2.0000           -0.4063365             -11.0570
       296        2.0000           -0.4063308             -11.0568
       297        2.0000           -0.4061080             -11.0508
       298        2.0000           -0.4060781             -11.0499
       299        2.0000           -0.4052924             -11.0286
       300        2.0000           -0.4052856             -11.0284
       301        2.0000           -0.4051307             -11.0242
       302        2.0000           -0.4051257             -11.0240
       303        2.0000           -0.3977455             -10.8232
       304        2.0000           -0.3958540             -10.7717
       305        2.0000           -0.3924918             -10.6802 (HOMO)
       306                         -0.3478572              -9.4657 (LUMO)
       307                         -0.3473636              -9.4522
       308                         -0.3463433              -9.4245
       309                         -0.3463217              -9.4239
       310                         -0.3420057              -9.3064
       311                         -0.3397975              -9.2464
       312                         -0.3389751              -9.2240
       313                         -0.3388480              -9.2205
       314                         -0.3373617              -9.1801
       315                         -0.3215337              -8.7494
       316                         -0.3166498              -8.6165
       ...                                ...                  ...
       639                          1.5076321              41.0248
      -------------------------------------------------------------
                  HL-Gap            0.0446347 Eh            1.2146 eV

Wiberg/Mayer (AO) data.
largest (>0.10) Wiberg bond orders for each atom

     #   Z sym  total        # sym  WBO       # sym  WBO       # sym  WBO
 ---------------------------------------------------------------------------
     1  28 Ni   2.991 --     7 N    0.660    41 N    0.660    27 N    0.658
                            20 N    0.658
     2   6 C    3.935 --     3 C    1.366    40 C    1.366    42 H    0.970
     3   6 C    3.915 --     2 C    1.366     7 N    1.205     4 C    1.177
     4   6 C    3.959 --     5 C    1.644     3 C    1.177    43 H    0.975
     5   6 C    3.962 --     4 C    1.644     6 C    1.184    44 H    0.973
     6   6 C    3.911 --     8 C    1.275     7 N    1.241     5 C    1.184
     7   7 N    3.402 --     6 C    1.241     3 C    1.205     1 Ni   0.660
     8   6 C    3.938 --    17 C    1.278     6 C    1.275     9 C    1.156
     9   6 C    3.958 --    10 C    2.628     8 C    1.156
    10   6 C    3.935 --     9 C    2.628    11 C    1.140
    11   6 C    3.987 --    16 C    1.351    12 C    1.351    10 C    1.140
    12   6 C    3.974 --    13 C    1.457    11 C    1.351    45 H    0.974
                            15 C    0.104
    13   6 C    3.973 --    12 C    1.457    14 N    1.407    46 H    0.972
                            16 C    0.104
    14   7 N    2.995 --    15 C    1.407    13 C    1.407
    15   6 C    3.973 --    16 C    1.457    14 N    1.407    47 H    0.972
                            12 C    0.104
    16   6 C    3.974 --    15 C    1.457    11 C    1.351    48 H    0.974
                            13 C    0.104
    17   6 C    3.905 --     8 C    1.278    20 N    1.227    18 C    1.191
    18   6 C    3.960 --    19 C    1.632    17 C    1.191    49 H    0.973
    19   6 C    3.961 --    18 C    1.632    21 C    1.192    50 H    0.973
    20   7 N    3.405 --    17 C    1.227    21 C    1.226     1 Ni   0.658
    21   6 C    3.899 --    22 C    1.274    20 N    1.226    19 C    1.192
    22   6 C    3.942 --    21 C    1.274    23 C    1.272   118 C    1.166
    23   6 C    3.899 --    22 C    1.272    27 N    1.227    24 C    1.192
    24   6 C    3.961 --    25 C    1.632    23 C    1.192    51 H    0.973
    25   6 C    3.960 --    24 C    1.632    26 C    1.191    52 H    0.973
    26   6 C    3.905 --    28 C    1.278    27 N    1.226    25 C    1.191
    27   7 N    3.405 --    23 C    1.227    26 C    1.226     1 Ni   0.658
    28   6 C    3.938 --    26 C    1.278    37 C    1.275    29 C    1.156
    29   6 C    3.958 --    30 C    2.628    28 C    1.156
    30   6 C    3.935 --    29 C    2.628    31 C    1.140
    31   6 C    3.987 --    32 C    1.351    36 C    1.351    30 C    1.140
    32   6 C    3.974 --    33 C    1.456    31 C    1.351    53 H    0.974
                            35 C    0.104
    33   6 C    3.973 --    32 C    1.456    34 N    1.407    54 H    0.972
                            36 C    0.104
    34   7 N    2.995 --    33 C    1.407    35 C    1.407
    35   6 C    3.973 --    36 C    1.457    34 N    1.407    55 H    0.972
                            32 C    0.104
    36   6 C    3.974 --    35 C    1.457    31 C    1.351    56 H    0.974
                            33 C    0.104
    37   6 C    3.911 --    28 C    1.275    41 N    1.240    38 C    1.184
    38   6 C    3.962 --    39 C    1.644    37 C    1.184    57 H    0.973
    39   6 C    3.959 --    38 C    1.644    40 C    1.177    58 H    0.975
    40   6 C    3.915 --     2 C    1.366    41 N    1.205    39 C    1.177
    41   7 N    3.402 --    37 C    1.240    40 C    1.205     1 Ni   0.660
    42   1 H    1.000 --     2 C    0.970
    43   1 H    0.997 --     4 C    0.975
    44   1 H    1.002 --     5 C    0.973
    45   1 H    1.002 --    12 C    0.974
    46   1 H    1.013 --    13 C    0.972
    47   1 H    1.013 --    15 C    0.972
    48   1 H    1.002 --    16 C    0.974
    49   1 H    1.003 --    18 C    0.973
    50   1 H    1.001 --    19 C    0.973
    51   1 H    1.002 --    24 C    0.973
    52   1 H    1.003 --    25 C    0.973
    53   1 H    1.002 --    32 C    0.974
    54   1 H    1.013 --    33 C    0.972
    55   1 H    1.013 --    35 C    0.972
    56   1 H    1.002 --    36 C    0.974
    57   1 H    1.002 --    38 C    0.973
    58   1 H    0.997 --    39 C    0.975
    59  28 Ni   2.992 --    99 N    0.660    65 N    0.660    78 N    0.658
                            85 N    0.658
    60   6 C    3.935 --    98 C    1.366    61 C    1.366   100 H    0.970
    61   6 C    3.915 --    60 C    1.366    65 N    1.205    62 C    1.177
    62   6 C    3.959 --    63 C    1.644    61 C    1.177   101 H    0.975
    63   6 C    3.962 --    62 C    1.644    64 C    1.184   102 H    0.973
    64   6 C    3.911 --    66 C    1.274    65 N    1.241    63 C    1.184
    65   7 N    3.402 --    64 C    1.241    61 C    1.205    59 Ni   0.660
    66   6 C    3.938 --    75 C    1.278    64 C    1.274    67 C    1.156
    67   6 C    3.958 --    68 C    2.628    66 C    1.156
    68   6 C    3.935 --    67 C    2.628    69 C    1.140
    69   6 C    3.987 --    70 C    1.351    74 C    1.351    68 C    1.140
    70   6 C    3.974 --    71 C    1.456    69 C    1.351   103 H    0.974
                            73 C    0.104
    71   6 C    3.973 --    70 C    1.456    72 N    1.407   104 H    0.972
                            74 C    0.104
    72   7 N    2.995 --    71 C    1.407    73 C    1.407
    73   6 C    3.973 --    74 C    1.457    72 N    1.407   105 H    0.972
                            70 C    0.104
    74   6 C    3.974 --    73 C    1.457    69 C    1.351   106 H    0.974
                            71 C    0.104
    75   6 C    3.905 --    66 C    1.278    78 N    1.225    76 C    1.192
    76   6 C    3.959 --    77 C    1.631    75 C    1.192   107 H    0.973
    77   6 C    3.961 --    76 C    1.631    79 C    1.193   108 H    0.973
    78   7 N    3.404 --    79 C    1.228    75 C    1.225    59 Ni   0.658
    79   6 C    3.898 --    80 C    1.270    78 N    1.228    77 C    1.193
    80   6 C    3.941 --    81 C    1.273    79 C    1.270   124 C    1.169
    81   6 C    3.899 --    80 C    1.273    85 N    1.227    82 C    1.192
    82   6 C    3.961 --    83 C    1.631    81 C    1.192   109 H    0.973
    83   6 C    3.959 --    82 C    1.631    84 C    1.191   110 H    0.973
    84   6 C    3.905 --    86 C    1.278    85 N    1.226    83 C    1.191
    85   7 N    3.404 --    81 C    1.227    84 C    1.226    59 Ni   0.658
    86   6 C    3.938 --    84 C    1.278    95 C    1.274    87 C    1.156
    87   6 C    3.958 --    88 C    2.628    86 C    1.156
    88   6 C    3.935 --    87 C    2.628    89 C    1.140
    89   6 C    3.987 --    94 C    1.351    90 C    1.351    88 C    1.140
    90   6 C    3.974 --    91 C    1.457    89 C    1.351   111 H    0.974
                            93 C    0.104
    91   6 C    3.973 --    90 C    1.457    92 N    1.407   112 H    0.972
                            94 C    0.104
    92   7 N    2.995 --    93 C    1.407    91 C    1.407
    93   6 C    3.973 --    94 C    1.457    92 N    1.407   113 H    0.972
                            90 C    0.104
    94   6 C    3.974 --    93 C    1.457    89 C    1.351   114 H    0.974
                            91 C    0.104
    95   6 C    3.911 --    86 C    1.274    99 N    1.240    96 C    1.184
    96   6 C    3.962 --    97 C    1.644    95 C    1.184   115 H    0.973
    97   6 C    3.959 --    96 C    1.644    98 C    1.177   116 H    0.975
    98   6 C    3.915 --    60 C    1.366    99 N    1.205    97 C    1.177
    99   7 N    3.402 --    95 C    1.240    98 C    1.205    59 Ni   0.660
   100   1 H    1.000 --    60 C    0.970
   101   1 H    0.997 --    62 C    0.975
   102   1 H    1.002 --    63 C    0.973
   103   1 H    1.002 --    70 C    0.974
   104   1 H    1.013 --    71 C    0.972
   105   1 H    1.013 --    73 C    0.972
   106   1 H    1.002 --    74 C    0.974
   107   1 H    1.002 --    76 C    0.973
   108   1 H    1.002 --    77 C    0.973
   109   1 H    1.001 --    82 C    0.973
   110   1 H    1.002 --    83 C    0.973
   111   1 H    1.002 --    90 C    0.974
   112   1 H    1.013 --    91 C    0.972
   113   1 H    1.013 --    93 C    0.972
   114   1 H    1.002 --    94 C    0.974
   115   1 H    1.002 --    96 C    0.973
   116   1 H    0.997 --    97 C    0.975
   117   6 C    3.937 --   118 C    2.498   119 C    1.290
   118   6 C    3.921 --   117 C    2.498    22 C    1.166   120 C    0.198
   119   6 C    3.935 --   120 C    2.497   117 C    1.290
   120   6 C    3.922 --   119 C    2.497   126 C    1.169   118 C    0.198
   121   6 C    3.935 --   122 C    2.494   123 C    1.292
   122   6 C    3.923 --   121 C    2.494   146 C    1.171   124 C    0.198
   123   6 C    3.937 --   124 C    2.495   121 C    1.292
   124   6 C    3.922 --   123 C    2.495    80 C    1.169   122 C    0.198
   125  28 Ni   2.991 --   165 N    0.659   144 N    0.659   151 N    0.658
                           131 N    0.658
   126   6 C    3.935 --   164 C    1.271   127 C    1.269   120 C    1.169
   127   6 C    3.899 --   126 C    1.269   131 N    1.228   128 C    1.193
   128   6 C    3.960 --   129 C    1.629   127 C    1.193   166 H    0.973
   129   6 C    3.960 --   128 C    1.629   130 C    1.193   167 H    0.973
   130   6 C    3.904 --   132 C    1.276   131 N    1.225   129 C    1.193
   131   7 N    3.402 --   127 C    1.228   130 C    1.225   125 Ni   0.658
   132   6 C    3.934 --   130 C    1.276   141 C    1.274   133 C    1.157
   133   6 C    3.958 --   134 C    2.627   132 C    1.157
   134   6 C    3.934 --   133 C    2.627   135 C    1.140
   135   6 C    3.987 --   136 C    1.351   140 C    1.351   134 C    1.140
   136   6 C    3.974 --   137 C    1.456   135 C    1.351   168 H    0.974
                           139 C    0.104
   137   6 C    3.973 --   136 C    1.456   138 N    1.407   169 H    0.972
                           140 C    0.104
   138   7 N    2.994 --   137 C    1.407   139 C    1.407
   139   6 C    3.973 --   140 C    1.457   138 N    1.407   170 H    0.972
                           136 C    0.104
   140   6 C    3.974 --   139 C    1.457   135 C    1.351   171 H    0.974
                           137 C    0.104
   141   6 C    3.904 --   132 C    1.274   144 N    1.226   142 C    1.193
   142   6 C    3.960 --   143 C    1.629   141 C    1.193   172 H    0.973
   143   6 C    3.959 --   142 C    1.629   145 C    1.193   173 H    0.973
   144   7 N    3.402 --   141 C    1.226   145 C    1.226   125 Ni   0.659
   145   6 C    3.898 --   146 C    1.270   144 N    1.226   143 C    1.193
   146   6 C    3.935 --   145 C    1.270   147 C    1.268   122 C    1.171
   147   6 C    3.898 --   146 C    1.268   151 N    1.229   148 C    1.194
   148   6 C    3.960 --   149 C    1.629   147 C    1.194   174 H    0.973
   149   6 C    3.960 --   148 C    1.629   150 C    1.193   175 H    0.973
   150   6 C    3.904 --   152 C    1.276   151 N    1.224   149 C    1.193
   151   7 N    3.402 --   147 C    1.229   150 C    1.224   125 Ni   0.658
   152   6 C    3.934 --   150 C    1.276   161 C    1.274   153 C    1.157
   153   6 C    3.958 --   154 C    2.627   152 C    1.157
   154   6 C    3.934 --   153 C    2.627   155 C    1.140
   155   6 C    3.987 --   156 C    1.351   160 C    1.351   154 C    1.140
   156   6 C    3.974 --   157 C    1.456   155 C    1.351   176 H    0.974
                           159 C    0.104
   157   6 C    3.973 --   156 C    1.456   158 N    1.407   177 H    0.972
                           160 C    0.104
   158   7 N    2.995 --   157 C    1.407   159 C    1.407
   159   6 C    3.973 --   160 C    1.456   158 N    1.407   178 H    0.972
                           156 C    0.104
   160   6 C    3.974 --   159 C    1.456   155 C    1.351   179 H    0.974
                           157 C    0.104
   161   6 C    3.904 --   152 C    1.274   165 N    1.227   162 C    1.193
   162   6 C    3.960 --   163 C    1.629   161 C    1.193   180 H    0.973
   163   6 C    3.959 --   162 C    1.629   164 C    1.193   181 H    0.973
   164   6 C    3.899 --   126 C    1.271   165 N    1.226   163 C    1.193
   165   7 N    3.402 --   161 C    1.227   164 C    1.226   125 Ni   0.659
   166   1 H    1.001 --   128 C    0.973
   167   1 H    1.002 --   129 C    0.973
   168   1 H    1.002 --   136 C    0.974
   169   1 H    1.013 --   137 C    0.972
   170   1 H    1.013 --   139 C    0.972
   171   1 H    1.002 --   140 C    0.974
   172   1 H    1.002 --   142 C    0.973
   173   1 H    1.001 --   143 C    0.973
   174   1 H    1.001 --   148 C    0.973
   175   1 H    1.002 --   149 C    0.973
   176   1 H    1.002 --   156 C    0.974
   177   1 H    1.013 --   157 C    0.972
   178   1 H    1.013 --   159 C    0.972
   179   1 H    1.002 --   160 C    0.974
   180   1 H    1.002 --   162 C    0.973
   181   1 H    1.001 --   163 C    0.973
 ---------------------------------------------------------------------------

           -------------------------------------------------
          | TOTAL ENERGY             -328.759042715934 Eh   |
          | GRADIENT NORM               0.000827344115 Eh/α |
          | HOMO-LUMO GAP               1.214571006222 eV   |
           -------------------------------------------------

 * finished run on 2022/07/30 at 04:45:29.704
