   * xtb version 6.5.1 (b24c23e) compiled by 'conda@728c89f4b128' on 2022-07-12
          program call               : xtb DHP_C6_2.xyz --gfn 1 --opt -T 48

   ID    Z sym.   atoms
    1    6 C      1-5, 7-10, 12-16, 18-23, 25-28, 30-35, 60-64, 66-69, 71-75,
                  77-82, 84-87, 89-94, 119-124
    2    7 N      6, 11, 17, 24, 29, 36, 65, 70, 76, 83, 88, 95
    3    1 H      37-59, 96-118
########################################################################
[WARNING] Please study the warnings concerning your input carefully
-1- prog_main_parseArguments: Unknown option '-T' provided
########################################################################

          :  Hamiltonian                  GFN1-xTB          :
 * total energy  :  -201.8727772 Eh     change       -0.5975949E-09 Eh
 * total energy  :  -202.1689186 Eh     change       -0.2961413E+00 Eh
 * total energy  :  -202.2495496 Eh     change       -0.8063101E-01 Eh
 * total energy  :  -202.2792628 Eh     change       -0.2971320E-01 Eh
 * total energy  :  -202.2901736 Eh     change       -0.1091080E-01 Eh
 * total energy  :  -202.2968576 Eh     change       -0.6684044E-02 Eh
 * total energy  :  -202.2999424 Eh     change       -0.3084740E-02 Eh
 * total energy  :  -202.3018980 Eh     change       -0.1955637E-02 Eh
 * total energy  :  -202.3036430 Eh     change       -0.1745029E-02 Eh
 * total energy  :  -202.3051833 Eh     change       -0.1540301E-02 Eh
 * total energy  :  -202.3136821 Eh     change       -0.5796798E-04 Eh
 * total energy  :  -202.3137336 Eh     change       -0.5159156E-04 Eh
 * total energy  :  -202.3137709 Eh     change       -0.3722668E-04 Eh
 * total energy  :  -202.3138049 Eh     change       -0.3397739E-04 Eh
 * total energy  :  -202.3138267 Eh     change       -0.2186673E-04 Eh
 * total energy  :  -202.3138451 Eh     change       -0.1841267E-04 Eh
 * total energy  :  -202.3138561 Eh     change       -0.1093191E-04 Eh
 * total energy  :  -202.3138688 Eh     change       -0.1274000E-04 Eh
 * total energy  :  -202.3138711 Eh     change       -0.2257123E-05 Eh
   *** GEOMETRY OPTIMIZATION CONVERGED AFTER 44 ITERATIONS ***

 final structure:
================
124
 xtb: 6.5.1 (b24c23e)
C            9.29282628065661        0.06624434507441        0.08484674995649
C            9.89735744577511        1.24863922204904        0.49176312312547
C            9.24037542725048        2.43204322955883        0.93156643067738
C           10.19816091706295        3.36278936369565        1.22173405344277
C           11.47154997708435        2.78096420786652        0.96145910627305
N           11.23894986330687        1.50380087536535        0.53420700879539
C           12.73142215912695        3.36778434698364        1.12354081105950
C           12.76018449997329        4.78479441090081        1.56196865674336
C           12.20876085674348        5.76041971376735        0.82455436279665
C           12.21630730012971        7.20361999457893        1.25766592189283
N           13.20520295981738        7.43307677636470        2.31404284162375
C           13.58630456849567        6.41064373782407        3.14402101300830
C           13.42385666043844        5.11708242696720        2.81450149344223
C           13.94874496966353        2.71905629164991        0.90230576956003
C           15.24386412125411        3.35978884306973        1.04031985443911
C           16.16831634609482        2.42234845345047        0.74576492424420
N           14.10801798034393        1.42363827269377        0.51339282650933
C           15.43646922728156        1.21426961915121        0.41764123548743
C           16.07813416865526        0.01240761067235        0.05502664800395
C           15.44679804910093       -1.18630166362194       -0.32976605776386
C           16.09649518042421       -2.39569366680612       -0.69189500455226
C           15.13356232935922       -3.31015181405480       -1.01888508945375
C           13.86532462609541       -2.68444785931793       -0.87045657210040
N           14.10674645527623       -1.40396354177404       -0.44624833705867
C           12.60655939749368       -3.25832994418339       -1.08109969250561
C           12.58870095059297       -4.66039052215160       -1.56308019978014
C           12.01831101530095       -5.64437158168665       -0.85181345828407
C           11.97861052279788       -7.07086520373872       -1.33473899630215
N           12.95825632159115       -7.29519077336945       -2.40119777301928
C           13.35852444752775       -6.25732519164947       -3.20321254290777
C           13.23408758033163       -4.97110247643287       -2.83139428228051
C           11.38771716886739       -2.60614787237146       -0.86836279315382
C           10.08471173284547       -3.19586691670970       -1.13244315801115
C            9.16803940531099       -2.26613484333190       -0.79494362802078
C            9.90975283737706       -1.10355251122729       -0.34047133535633
N           11.24240364573925       -1.34121450872584       -0.40534033852972
H            8.20741181011700        0.06781331630448        0.09684467093286
H            8.17083099002063        2.54231273885953        1.01540512063811
H           10.04330118624003        4.36294903219802        1.59285779188872
H           11.96779468374491        0.84344400794259        0.28520130719906
H           11.71800257419031        5.55536874809904       -0.11979303926020
H           11.21017130981309        7.50314092786453        1.60731296886070
H           12.47059651704422        7.85200458276134        0.40836795132698
H           13.14982136795003        8.35044348923282        2.73234056656639
H           14.10392299739617        6.72464700580329        4.04481532194220
H           13.77544338487194        4.32297105030738        3.45760300102581
H           15.40208234487159        4.38945343046520        1.31746332188922
H           17.24250597225806        2.51614869866454        0.73583981588013
H           17.16507672020471       -2.53875433747722       -0.69555155427752
H           15.28438745500077       -4.33094815408355       -1.33028049801105
H           13.38152195382323       -0.72443329706844       -0.24149308011442
H           11.54220260682475       -5.45652653918445        0.10337658502777
H           10.96289542093876       -7.32509263389497       -1.69203039856415
H           12.21353563209763       -7.75641443888401       -0.50965878013253
H           12.87064752358503       -8.19547222278868       -2.85036594650957
H           13.85991130757830       -6.55607870360106       -4.11829121978937
H           13.59950277044110       -4.16702509594663       -3.45438077608675
H            9.91858612395582       -4.18288754316840       -1.53317042077782
H            8.09218647973195       -2.32784275976866       -0.84835687100426
C           32.03615255075410       -0.10097246111870        0.04103457637543
C           31.43231699672668       -1.32068373699030       -0.23606873072502
C           32.09035605112505       -2.55810349468566       -0.48374932149027
C           31.13352339140209       -3.50265245835906       -0.72897435556070
C           29.85970306131936       -2.87150278541766       -0.64669271236224
N           30.09106174874742       -1.56064287643565       -0.33692844046623
C           28.60032045801252       -3.45584392098706       -0.82119144834738
C           28.57199871702774       -4.89101485903855       -1.19563464590169
C           29.12791296304955       -5.33201650716671       -2.33419015384428
C           29.12020736245169       -6.78676926733133       -2.72678443098236
N           28.12527638554247       -7.53657629083089       -1.95589932609925
C           27.73973338890316       -7.10537194910851       -0.71293028994672
C           27.90312503823264       -5.83301661983019       -0.30958150688509
C           27.38289751728542       -2.78746010298278       -0.66970461379244
C           26.08787406801702       -3.40377969636616       -0.89325171576518
C           25.16349287347066       -2.45182941600459       -0.64938116052078
N           27.22369038586869       -1.48195069214823       -0.31624628683039
C           25.89530528669591       -1.25300997134069       -0.28883248192850
C           25.25343640251949       -0.04104002854948        0.03804091867306
C           25.88392966332717        1.18048674782854        0.34447579255118
C           25.23317523701981        2.39810120039866        0.67585071848738
C           26.19519962853827        3.34850633966715        0.87996436255766
C           27.46397069332649        2.74014502948535        0.67496490410689
N           27.22374183658924        1.42830480339914        0.35978627343186
C           28.72238930816381        3.33995159168936        0.79788450837549
C           28.73957723948335        4.78545977818146        1.12705967517960
C           29.31511887039129        5.24754637504982        2.24730182790826
C           29.35441707138047        6.71404567320566        2.58991754486317
N           28.37500323699075        7.46787858657724        1.80257247669173
C           27.96712379748805        7.00684175673888        0.57741884218790
C           28.08858625314018        5.71726326407067        0.21624871561577
C           29.94141732425871        2.67375472232532        0.63501842528084
C           31.24456053656196        3.31395803847433        0.72064476639282
C           32.16108219329542        2.34542470987745        0.51928419816347
C           31.41920132777692        1.11774771547753        0.29412687089951
N           30.08660859993351        1.35438191387133        0.36331745979741
H           33.12156634508328       -0.10864028880170        0.05175191686355
H           33.15994010642947       -2.69545547957968       -0.46833452330249
H           31.28927357043172       -4.54833501133544       -0.93948796995355
H           29.36137149012261       -0.86872320941658       -0.20236698237940
H           29.62232620029486       -4.66056882348579       -3.02657537667802
H           30.12468531337552       -7.22743816376028       -2.58148725755783
H           28.87207240931741       -6.88977347537547       -3.79172681125720
H           28.17845516622119       -8.53666577775934       -2.08476419762695
H           27.21786218362920       -7.84631760646658       -0.11575429974559
H           27.54818884064817       -5.49710040720623        0.65427264651675
H           25.92960959581505       -4.42427527965081       -1.20241755743452
H           24.08937073593705       -2.52574141952919       -0.70918681388843
H           24.16450437496952        2.52031107055537        0.74897727875500
H           26.04327920769236        4.37968482341622        1.15443552149811
H           27.94993833821641        0.74410452915334        0.17496336155093
H           29.79557664620920        4.58491297062435        2.95757207551689
H           30.37006000677453        7.11871953468293        2.42085080328557
H           29.11958460246847        6.86062003685201        3.65269683041450
H           28.46435774385709        8.46964168087240        1.89367315790090
H           27.46294074313207        7.74266041298673       -0.04101699699530
H           27.71738828938899        5.36170672749614       -0.73452721415283
H           31.41110304453003        4.36420605368064        0.89849116101077
H           33.23695384597576        2.42582313486238        0.50674582710173
C           21.28007974898213       -0.02567739956070        0.07746215700045
C           20.05147386484162       -0.01835622437908        0.07886020541851
C           18.70745659972382       -0.01525881750775        0.07301758691790
C           17.48337528780192       -0.00178978634798        0.06290070544398
C           22.62406494935502       -0.03027058636646        0.06886903530340
C           23.84817375615253       -0.03512348348875        0.05413008374693

          :  Hamiltonian                  GFN1-xTB          :
         :: total energy            -202.313871064154 Eh    ::
         :: gradient norm              0.000697352894 Eh/a0 ::
         :: HOMO-LUMO gap              0.930934077660 eV    ::
         :: SCC energy              -205.603505334827 Eh    ::
         :: repulsion energy           3.390420039688 Eh    ::

    * Orbital Energies and Occupations

         #    Occupation            Energy/Eh            Energy/eV
      -------------------------------------------------------------
         1        2.0000           -0.7949830             -21.6326
       ...           ...                  ...                  ...
       173        2.0000           -0.4077777             -11.0962
       174        2.0000           -0.4070338             -11.0760
       175        2.0000           -0.4065790             -11.0636
       176        2.0000           -0.4062748             -11.0553
       177        2.0000           -0.4046784             -11.0119
       178        2.0000           -0.3902043             -10.6180
       179        2.0000           -0.3899356             -10.6107
       180        2.0000           -0.3799350             -10.3386
       181        2.0000           -0.3727701             -10.1436
       182        2.0000           -0.3700773             -10.0703
       183        2.0000           -0.3699833             -10.0678
       184        2.0000           -0.3687040             -10.0329
       185        2.0000           -0.3666089              -9.9759 (HOMO)
       186                         -0.3323977              -9.0450 (LUMO)
       187                         -0.3221114              -8.7651
       188                         -0.3216271              -8.7519
       189                         -0.3207168              -8.7271
       190                         -0.2925058              -7.9595
       191                         -0.2853591              -7.7650
       192                         -0.2766212              -7.5272
       193                         -0.2651826              -7.2160
       194                         -0.2646099              -7.2004
       195                         -0.2643688              -7.1938
       196                         -0.2630038              -7.1567
       ...                                ...                  ...
       404                          1.5872347              43.1909
      -------------------------------------------------------------
                  HL-Gap            0.0342112 Eh            0.9309 eV

Wiberg/Mayer (AO) data.
largest (>0.10) Wiberg bond orders for each atom

     #   Z sym  total        # sym  WBO       # sym  WBO       # sym  WBO
 ---------------------------------------------------------------------------
     1   6 C    3.923 --    35 C    1.363     2 C    1.347    37 H    0.971
     2   6 C    3.904 --     1 C    1.347     3 C    1.230     6 N    1.170
     3   6 C    3.953 --     4 C    1.594     2 C    1.230    38 H    0.977
     4   6 C    3.960 --     3 C    1.594     5 C    1.236    39 H    0.975
     5   6 C    3.896 --     7 C    1.303     4 C    1.236     6 N    1.175
     6   7 N    3.468 --     5 C    1.175     2 C    1.170    40 H    0.873
     7   6 C    3.940 --    14 C    1.335     5 C    1.303     8 C    1.026
     8   6 C    3.988 --     9 C    1.767    13 C    1.098     7 C    1.026
     9   6 C    3.969 --     8 C    1.767    10 C    1.013    41 H    0.972
    10   6 C    3.961 --     9 C    1.013    43 H    0.976    42 H    0.966
                            11 N    0.949
    11   7 N    3.248 --    12 C    1.160    10 C    0.949    44 H    0.928
                            13 C    0.127
    12   6 C    3.958 --    13 C    1.692    11 N    1.160    45 H    0.971
    13   6 C    3.968 --    12 C    1.692     8 C    1.098    46 H    0.974
                            11 N    0.127
    14   6 C    3.913 --     7 C    1.335    17 N    1.285    15 C    1.126
    15   6 C    3.966 --    16 C    1.709    14 C    1.126    47 H    0.973
    16   6 C    3.964 --    15 C    1.709    18 C    1.128    48 H    0.974
    17   7 N    3.021 --    18 C    1.344    14 C    1.285
    18   6 C    3.908 --    17 N    1.344    19 C    1.254    16 C    1.128
    19   6 C    3.936 --    18 C    1.254    20 C    1.249   122 C    1.193
    20   6 C    3.885 --    21 C    1.250    19 C    1.249    24 N    1.190
    21   6 C    3.959 --    22 C    1.581    20 C    1.250    49 H    0.975
    22   6 C    3.955 --    21 C    1.581    23 C    1.243    50 H    0.974
    23   6 C    3.897 --    25 C    1.307    22 C    1.243    24 N    1.164
    24   7 N    3.474 --    20 C    1.190    23 C    1.164    51 H    0.873
    25   6 C    3.926 --    32 C    1.322    23 C    1.307    26 C    1.028
    26   6 C    3.988 --    27 C    1.767    31 C    1.097    25 C    1.028
    27   6 C    3.970 --    26 C    1.767    28 C    1.013    52 H    0.972
    28   6 C    3.961 --    27 C    1.013    54 H    0.976    53 H    0.966
                            29 N    0.949
    29   7 N    3.246 --    30 C    1.160    28 C    0.949    55 H    0.928
                            31 C    0.127
    30   6 C    3.958 --    31 C    1.693    29 N    1.160    56 H    0.971
    31   6 C    3.967 --    30 C    1.693    26 C    1.097    57 H    0.974
                            29 N    0.127
    32   6 C    3.929 --    25 C    1.322    36 N    1.315    33 C    1.119
    33   6 C    3.967 --    34 C    1.720    32 C    1.119    58 H    0.974
    34   6 C    3.966 --    33 C    1.720    35 C    1.118    59 H    0.976
    35   6 C    3.932 --     1 C    1.363    36 N    1.302    34 C    1.118
    36   7 N    3.011 --    32 C    1.315    35 C    1.302
    37   1 H    1.002 --     1 C    0.971
    38   1 H    0.998 --     3 C    0.977
    39   1 H    1.007 --     4 C    0.975
    40   1 H    0.986 --     6 N    0.873
    41   1 H    1.003 --     9 C    0.972
    42   1 H    1.008 --    10 C    0.966
    43   1 H    1.019 --    10 C    0.976
    44   1 H    0.964 --    11 N    0.928
    45   1 H    1.001 --    12 C    0.971
    46   1 H    1.003 --    13 C    0.974
    47   1 H    1.006 --    15 C    0.973
    48   1 H    1.003 --    16 C    0.974
    49   1 H    1.002 --    21 C    0.975
    50   1 H    1.006 --    22 C    0.974
    51   1 H    0.988 --    24 N    0.873
    52   1 H    1.003 --    27 C    0.972
    53   1 H    1.007 --    28 C    0.966
    54   1 H    1.019 --    28 C    0.976
    55   1 H    0.964 --    29 N    0.928
    56   1 H    1.001 --    30 C    0.971
    57   1 H    1.003 --    31 C    0.974
    58   1 H    1.007 --    33 C    0.974
    59   1 H    0.999 --    34 C    0.976
    60   6 C    3.923 --    94 C    1.363    61 C    1.347    96 H    0.971
    61   6 C    3.904 --    60 C    1.347    62 C    1.230    65 N    1.170
    62   6 C    3.953 --    63 C    1.594    61 C    1.230    97 H    0.977
    63   6 C    3.960 --    62 C    1.594    64 C    1.236    98 H    0.975
    64   6 C    3.896 --    66 C    1.303    63 C    1.236    65 N    1.175
    65   7 N    3.468 --    64 C    1.175    61 C    1.170    99 H    0.873
    66   6 C    3.940 --    73 C    1.335    64 C    1.303    67 C    1.027
    67   6 C    3.988 --    68 C    1.767    72 C    1.098    66 C    1.027
    68   6 C    3.969 --    67 C    1.767    69 C    1.013   100 H    0.972
    69   6 C    3.962 --    68 C    1.013   102 H    0.976   101 H    0.966
                            70 N    0.949
    70   7 N    3.248 --    71 C    1.160    69 C    0.949   103 H    0.928
                            72 C    0.127
    71   6 C    3.958 --    72 C    1.692    70 N    1.160   104 H    0.971
    72   6 C    3.968 --    71 C    1.692    67 C    1.098   105 H    0.974
                            70 N    0.127
    73   6 C    3.913 --    66 C    1.335    76 N    1.285    74 C    1.126
    74   6 C    3.966 --    75 C    1.709    73 C    1.126   106 H    0.973
    75   6 C    3.964 --    74 C    1.709    77 C    1.128   107 H    0.974
    76   7 N    3.022 --    77 C    1.344    73 C    1.285
    77   6 C    3.908 --    76 N    1.344    78 C    1.254    75 C    1.128
    78   6 C    3.936 --    77 C    1.254    79 C    1.249   124 C    1.193
    79   6 C    3.885 --    80 C    1.250    78 C    1.249    83 N    1.190
    80   6 C    3.959 --    81 C    1.581    79 C    1.250   108 H    0.975
    81   6 C    3.955 --    80 C    1.581    82 C    1.244   109 H    0.974
    82   6 C    3.897 --    84 C    1.307    81 C    1.244    83 N    1.164
    83   7 N    3.474 --    79 C    1.190    82 C    1.164   110 H    0.873
    84   6 C    3.926 --    91 C    1.322    82 C    1.307    85 C    1.029
    85   6 C    3.988 --    86 C    1.766    90 C    1.097    84 C    1.029
    86   6 C    3.970 --    85 C    1.766    87 C    1.013   111 H    0.972
    87   6 C    3.961 --    86 C    1.013   113 H    0.976   112 H    0.966
                            88 N    0.949
    88   7 N    3.247 --    89 C    1.160    87 C    0.949   114 H    0.928
                            90 C    0.127
    89   6 C    3.958 --    90 C    1.693    88 N    1.160   115 H    0.971
    90   6 C    3.967 --    89 C    1.693    85 C    1.097   116 H    0.974
                            88 N    0.127
    91   6 C    3.929 --    84 C    1.322    95 N    1.315    92 C    1.119
    92   6 C    3.967 --    93 C    1.720    91 C    1.119   117 H    0.974
    93   6 C    3.966 --    92 C    1.720    94 C    1.118   118 H    0.976
    94   6 C    3.932 --    60 C    1.363    95 N    1.302    93 C    1.118
    95   7 N    3.011 --    91 C    1.315    94 C    1.302
    96   1 H    1.002 --    60 C    0.971
    97   1 H    0.998 --    62 C    0.977
    98   1 H    1.007 --    63 C    0.975
    99   1 H    0.986 --    65 N    0.873
   100   1 H    1.003 --    68 C    0.972
   101   1 H    1.008 --    69 C    0.966
   102   1 H    1.019 --    69 C    0.976
   103   1 H    0.964 --    70 N    0.928
   104   1 H    1.001 --    71 C    0.971
   105   1 H    1.003 --    72 C    0.974
   106   1 H    1.006 --    74 C    0.973
   107   1 H    1.003 --    75 C    0.974
   108   1 H    1.002 --    80 C    0.975
   109   1 H    1.006 --    81 C    0.974
   110   1 H    0.988 --    83 N    0.873
   111   1 H    1.004 --    86 C    0.972
   112   1 H    1.007 --    87 C    0.966
   113   1 H    1.019 --    87 C    0.976
   114   1 H    0.964 --    88 N    0.928
   115   1 H    1.001 --    89 C    0.971
   116   1 H    1.003 --    90 C    0.974
   117   1 H    1.007 --    92 C    0.974
   118   1 H    0.999 --    93 C    0.976
   119   6 C    3.925 --   120 C    2.365   123 C    1.337   122 C    0.190
   120   6 C    3.925 --   119 C    2.365   121 C    1.337   124 C    0.190
   121   6 C    3.932 --   122 C    2.446   120 C    1.337
   122   6 C    3.890 --   121 C    2.446    19 C    1.193   119 C    0.190
   123   6 C    3.932 --   124 C    2.446   119 C    1.337
   124   6 C    3.890 --   123 C    2.446    78 C    1.193   120 C    0.190
 ---------------------------------------------------------------------------

           -------------------------------------------------
          | TOTAL ENERGY             -202.313871064154 Eh   |
          | GRADIENT NORM               0.000697352894 Eh/α |
          | HOMO-LUMO GAP               0.930934077660 eV   |
           -------------------------------------------------

 * finished run on 2022/07/28 at 01:16:52.439
