   * xtb version 6.5.1 (b24c23e) compiled by 'conda@728c89f4b128' on 2022-07-12
          program call               : xtb Cu_BSA_C6_2.xyz --gfn 1 --opt -T 48

   ID    Z sym.   atoms
    1   29 Cu     1, 65
    2    6 C      2-6, 8-12, 17-21, 23-28, 30-34, 39-44, 66-70, 72-76, 81-85,
                  87-92, 94-98, 103-108, 129-134
    3    7 N      7, 22, 29, 45, 71, 86, 93, 109
    4   16 S      13, 35, 77, 99
    5    8 O      14-16, 36-38, 78-80, 100-102
    6    1 H      46-64, 110-128
########################################################################
[WARNING] Please study the warnings concerning your input carefully
-1- prog_main_parseArguments: Unknown option '-T' provided
########################################################################

          :  Hamiltonian                  GFN1-xTB          :
 * total energy  :  -272.5642091 Eh     change       -0.5946958E-09 Eh
 * total energy  :  -273.3871790 Eh     change       -0.8229699E+00 Eh
 * total energy  :  -273.5264678 Eh     change       -0.1392887E+00 Eh
 * total energy  :  -273.5985332 Eh     change       -0.7206538E-01 Eh
 * total energy  :  -273.6251061 Eh     change       -0.2657292E-01 Eh
 * total energy  :  -273.6388110 Eh     change       -0.1370492E-01 Eh
 * total energy  :  -273.6473163 Eh     change       -0.8505309E-02 Eh
 * total energy  :  -273.6537502 Eh     change       -0.6433883E-02 Eh
 * total energy  :  -273.6590426 Eh     change       -0.5292417E-02 Eh
 * total energy  :  -273.6632198 Eh     change       -0.4177160E-02 Eh
 * total energy  :  -273.6775788 Eh     change       -0.1402435E-04 Eh
 * total energy  :  -273.6775975 Eh     change       -0.1873598E-04 Eh
 * total energy  :  -273.6776255 Eh     change       -0.2797502E-04 Eh
 * total energy  :  -273.6776509 Eh     change       -0.2541383E-04 Eh
 * total energy  :  -273.6776633 Eh     change       -0.1242239E-04 Eh
 * total energy  :  -273.6776787 Eh     change       -0.1540666E-04 Eh
 * total energy  :  -273.6776852 Eh     change       -0.6445142E-05 Eh
 * total energy  :  -273.6776960 Eh     change       -0.1081792E-04 Eh
 * total energy  :  -273.6776993 Eh     change       -0.3282875E-05 Eh
   *** GEOMETRY OPTIMIZATION CONVERGED AFTER 57 ITERATIONS ***

 final structure:
================
134
 xtb: 6.5.1 (b24c23e)
Cu          15.72009763406502        0.01815235361451        0.04507894213958
C           12.31562079636747        0.13437356596304        0.09104821101031
C           12.94518493490738       -0.18272939154189        1.28522283175446
C           12.26456280736006       -0.49746021743868        2.50906670654416
C           13.21908009714588       -0.74705798679351        3.43896184118091
C           14.49276551407062       -0.57534083712176        2.79330387090008
N           14.29507804626206       -0.24078529252134        1.48510989698424
C           15.73619730738736       -0.74716740803043        3.40623453796443
C           15.74585675744880       -1.08463742803797        4.85094922618260
C           15.21748174362482       -0.19386395561850        5.78842630832390
C           15.23041115181732       -0.50385595554215        7.13851106246548
C           15.77093153276742       -1.71546822603697        7.53735557259666
S           15.79859707689883       -2.11202026478129        9.24464592399799
O           15.71747260059907       -0.92401546098170       10.04167303333956
O           14.37347665976180       -2.88692043986131        9.33018254233534
O           16.83348635013042       -3.06106585751303        9.53449955606793
C           16.30282659955761       -2.61924153313204        6.63181031576305
C           16.28928345600115       -2.29646437783160        5.28506903651711
C           16.97272161218079       -0.62870880271144        2.76795752350226
C           18.24809706488390       -0.73913567179562        3.41834023389698
C           19.19712430555116       -0.55219654476942        2.46661797443982
N           17.16511361227712       -0.36444016186505        1.43830891899998
C           18.50961533438163       -0.31976955627193        1.23190619681902
C           19.14888838366135       -0.09113777673607        0.00072104473331
C           18.49360911943914        0.17421882012689       -1.21469742380508
C           19.16225339660170        0.36129242390946       -2.46728467953081
C           18.20270823298640        0.60886609339939       -3.39443992792176
C           16.94038574091169        0.58242867745324       -2.71071141645795
N           17.14984721830158        0.30463157238126       -1.38637093018126
C           15.69822756882720        0.78769939804517       -3.31519318070194
C           15.69039126580493        1.13068329650166       -4.75850505236029
C           15.06355847881012        0.28974752772176       -5.68133420582016
C           15.05050794179569        0.60949639308436       -7.02908632431064
C           15.66852090954384        1.77892847712544       -7.44112039678162
S           15.64216428758476        2.19758034786278       -9.14402347422146
O           15.81636574552190        3.60898191123350       -9.33120059713474
O           17.02435944223342        1.47718367079966       -9.60116887787283
O           14.54669144511602        1.54637442823380       -9.79662381965379
C           16.29501687967917        2.63485856787807       -6.54979721124389
C           16.30493531949940        2.30336954948673       -5.20503342381145
C           14.46296256411313        0.70141331212943       -2.66832835665991
C           13.18725688478948        0.96604031196575       -3.27775924722990
C           12.24326082927386        0.77815390808682       -2.32305412541309
C           12.93322348834546        0.41015744453671       -1.11949160736143
N           14.27799200714242        0.37480582151800       -1.35621981873234
H           11.23129880588355        0.17183494334175        0.10563436833297
H           11.19274986170827       -0.52881110286401        2.62508669318390
H           13.08018975328978       -1.03335697501254        4.46905413100089
H           14.81060437560859        0.75418593365356        5.45648848309775
H           14.83436980650336        0.18424426218839        7.87473489232792
H           14.26485343002218       -3.29219258744071       10.19905188612972
H           16.72252574216371       -3.55500392312498        6.97903298463456
H           16.69172216610046       -2.99310655648896        4.55892508762211
H           18.39509393800444       -0.92040877324417        4.47069236435936
H           20.26903737049245       -0.56186264464970        2.58214708729319
H           20.22918455425238        0.30117365879602       -2.61057483640780
H           18.33335159343419        0.77961859429720       -4.45072770064933
H           14.59541107689097       -0.62599566318715       -5.33959568247391
H           14.56629109921425       -0.03435566501307       -7.75246616727632
H           17.36191112519849        1.89048219105387      -10.40501958803554
H           16.75799770133156        3.54713861199208       -6.90454738046988
H           16.77795923623212        2.96580934929738       -4.48950747238259
H           13.04047474092252        1.26884125816118       -4.30197296684876
H           11.17359884658451        0.88555961605644       -2.40942142191394
Cu          31.75315932969679        0.03301092430352       -0.03482071943131
C           35.15757381893435        0.15896771352361       -0.03478774978642
C           34.52799822619551        0.30551911746176       -1.26161102396229
C           35.20856884251417        0.46573396094330       -2.51509272269987
C           34.25401166558645        0.57683861659854       -3.47143244843466
C           32.98034350728339        0.49717398397672       -2.80804981212031
N           33.17810522005949        0.32478418927259       -1.46882878475004
C           31.73684896577620        0.56331770321791       -3.44108257963308
C           31.72717778176918        0.78332331276030       -4.90826839139303
C           32.25615239580600        1.95716145526394       -5.45036525734147
C           32.24348032281918        2.16782994978990       -6.81945259729329
C           31.70249011517283        1.18954802725135       -7.63772550249181
S           31.67499297487613        1.45195295346669       -9.37071847414810
O           31.75626912121859        2.85040935756576       -9.67226602831145
O           33.10010976672917        0.76346128391935       -9.73650860761072
O           30.64008195904680        0.67728133924203       -9.99084753657659
C           31.16997235030126        0.01546270470188       -7.13012882136030
C           31.18336400179932       -0.18214127262829       -5.75940079044623
C           30.50039210212478        0.43743748405923       -2.80407553934156
C           29.22496718272850        0.57465889008274       -3.44922278258530
C           28.27600704435717        0.39723769398990       -2.49560184930625
N           30.30809019482177        0.19244612083819       -1.47069503765739
C           28.96359912114565        0.15771879060627       -1.26231436199582
C           28.32437672753828       -0.08370529637776       -0.03349337148176
C           28.97966311022448       -0.28582455896594        1.19396633001282
C           28.31093279113405       -0.57373384087433        2.42727025400460
C           29.27054906939727       -0.68725830945634        3.38007673783838
C           30.53300532277973       -0.46053657573000        2.73468937820850
N           30.32349836900908       -0.22920081591513        1.40148150532183
C           31.77531074460752       -0.49413724314439        3.37191917445906
C           31.78345579486730       -0.70836192028674        4.83984451291401
C           32.41100887668093       -1.83006254261877        5.38724690991817
C           32.42425328495338       -2.03015750166597        6.75791351210531
C           31.80567912759518       -1.09567077047566        7.57236025434442
S           31.83114498705029       -1.33495492701355        9.30959635249116
O           31.65513344078493       -0.09231376081142       10.00419647048203
O           30.44946628526395       -2.17422560920637        9.46800266161338
O           32.92713016972166       -2.17990355649105        9.67669059032929
C           31.17849122092941        0.02837971801422        7.05977431824585
C           31.16848283057555        0.21650203818660        5.68763086644570
C           33.01048550081099       -0.33536154613079        2.73873043640605
C           34.28620543081067       -0.31410195277412        3.40277889339633
C           35.23007148234117       -0.13520992632859        2.44623231051507
C           34.54001996466256       -0.03266616334270        1.19190495234458
N           33.19531320962923       -0.15377389401180        1.39881619862773
H           36.24187324176897        0.19975092281984       -0.03439276344254
H           36.28037479482310        0.48012352768852       -2.63446900321257
H           34.39295596137157        0.69148936572386       -4.53439483662122
H           32.66329787682071        2.71534626178262       -4.79164123143702
H           32.64007414805138        3.07899539711029       -7.24938628101602
H           33.20882264013728        0.70823147036576      -10.69364742657523
H           30.74992122566077       -0.72561889412540       -7.79849960175571
H           30.78051179322378       -1.09761691207933       -5.34206660784457
H           29.07787852203530        0.79446284947198       -4.49419221444572
H           27.20409631319600        0.43080970262655       -2.60655675637057
H           27.24388051449202       -0.68117553453535        2.53842924200954
H           29.13975132656210       -0.91865648427671        4.42473791528056
H           32.87955381666298       -2.55487503544820        4.73176824723649
H           32.90904397431343       -2.89520046185514        7.19261635129848
H           30.10665015344820       -2.07967671943254       10.36493591414205
H           30.71511906888939        0.74509606071293        7.72614552165316
H           30.69502277130677        1.09597538490892        5.26702736403649
H           34.43306828278582       -0.41115752256479        4.46638262784272
H           36.29968308534770       -0.06655352056167        2.56616795645753
C           24.35063499952644       -0.14741286976966       -0.02983246989134
C           23.12263055397909       -0.14927971811723       -0.03020403074016
C           21.77789987966418       -0.14106341429255       -0.02200261403906
C           20.55447073641685       -0.12300202551527       -0.01446288376936
C           25.69534924161438       -0.13788408010459       -0.03229242227007
C           26.91880395641890       -0.11968834938159       -0.03114979918297

          :  Hamiltonian                  GFN1-xTB          :
         :: total energy            -273.677699282524 Eh    ::
         :: gradient norm              0.000577025221 Eh/a0 ::
         :: HOMO-LUMO gap              0.001783469716 eV    ::
         :: SCC energy              -277.297089132866 Eh    ::
         :: repulsion energy           3.740792539581 Eh    ::

    * Orbital Energies and Occupations

         #    Occupation            Energy/Eh            Energy/eV
      -------------------------------------------------------------
         1        2.0000           -1.0357232             -28.1835
       ...           ...                  ...                  ...
       226        2.0000           -0.4278495             -11.6424
       227        2.0000           -0.4275907             -11.6353
       228        2.0000           -0.4247286             -11.5575
       229        2.0000           -0.4247248             -11.5574
       230        2.0000           -0.4246269             -11.5547
       231        2.0000           -0.4245810             -11.5534
       232        2.0000           -0.4245755             -11.5533
       233        2.0000           -0.4245365             -11.5522
       234        2.0000           -0.4127096             -11.2304
       235        2.0000           -0.4127078             -11.2303
       236        2.0000           -0.4093982             -11.1403
       237        2.0000           -0.3984776             -10.8431
       238        1.0172           -0.3723727             -10.1328 (HOMO)
       239        0.9828           -0.3723072             -10.1310 (LUMO)
       240                         -0.3547073              -9.6521
       241                         -0.3471117              -9.4454
       242                         -0.3471048              -9.4452
       243                         -0.3429848              -9.3331
       244                         -0.3199254              -8.7056
       245                         -0.3164696              -8.6116
       246                         -0.3082186              -8.3871
       247                         -0.3081913              -8.3863
       248                         -0.3051445              -8.3034
       249                         -0.3006850              -8.1821
       ...                                ...                  ...
       490                          1.5664329              42.6248
      -------------------------------------------------------------
                  HL-Gap            0.0000655 Eh            0.0018 eV

Wiberg/Mayer (AO) data.
largest (>0.10) Wiberg bond orders for each atom

     #   Z sym  total        # sym  WBO       # sym  WBO       # sym  WBO
 ---------------------------------------------------------------------------
     1  29 Cu   2.179 --    45 N    0.504     7 N    0.503    29 N    0.500
                            22 N    0.500
     2   6 C    3.931 --    44 C    1.362     3 C    1.362    46 H    0.971
     3   6 C    3.915 --     2 C    1.362     7 N    1.229     4 C    1.169
     4   6 C    3.955 --     5 C    1.658     3 C    1.169    47 H    0.975
     5   6 C    3.958 --     4 C    1.658     6 C    1.170    48 H    0.973
     6   6 C    3.914 --     8 C    1.319     7 N    1.240     5 C    1.170
     7   7 N    3.243 --     6 C    1.240     3 C    1.229     1 Cu   0.503
     8   6 C    3.933 --    19 C    1.325     6 C    1.319     9 C    1.029
     9   6 C    3.986 --    10 C    1.391    18 C    1.390     8 C    1.029
    10   6 C    3.987 --    11 C    1.449     9 C    1.391    49 H    0.971
                            17 C    0.106
    11   6 C    3.989 --    10 C    1.449    12 C    1.407    50 H    0.967
                            18 C    0.106
    12   6 C    3.930 --    11 C    1.407    17 C    1.406    13 S    0.754
    13  16 S    5.264 --    14 O    1.722    16 O    1.716    15 O    1.013
                            12 C    0.754
    14   8 O    2.081 --    13 S    1.722    16 O    0.139
    15   8 O    2.087 --    13 S    1.013    51 H    0.828
    16   8 O    2.075 --    13 S    1.716    14 O    0.139
    17   6 C    3.989 --    18 C    1.451    12 C    1.406    52 H    0.967
                            10 C    0.106
    18   6 C    3.987 --    17 C    1.451     9 C    1.390    53 H    0.971
                            11 C    0.106
    19   6 C    3.908 --     8 C    1.325    22 N    1.224    20 C    1.178
    20   6 C    3.954 --    21 C    1.644    19 C    1.178    54 H    0.973
    21   6 C    3.956 --    20 C    1.644    23 C    1.186    55 H    0.974
    22   7 N    3.247 --    23 C    1.256    19 C    1.224     1 Cu   0.500
    23   6 C    3.895 --    24 C    1.260    22 N    1.256    21 C    1.186
    24   6 C    3.940 --    23 C    1.260    25 C    1.260   132 C    1.188
    25   6 C    3.896 --    24 C    1.260    29 N    1.256    26 C    1.186
    26   6 C    3.956 --    27 C    1.644    25 C    1.186    56 H    0.974
    27   6 C    3.954 --    26 C    1.644    28 C    1.178    57 H    0.973
    28   6 C    3.908 --    30 C    1.324    29 N    1.224    27 C    1.178
    29   7 N    3.247 --    25 C    1.256    28 C    1.224     1 Cu   0.500
    30   6 C    3.933 --    28 C    1.324    41 C    1.319    31 C    1.029
    31   6 C    3.986 --    32 C    1.391    40 C    1.390    30 C    1.029
    32   6 C    3.986 --    33 C    1.449    31 C    1.391    58 H    0.971
                            39 C    0.106
    33   6 C    3.989 --    32 C    1.449    34 C    1.407    59 H    0.967
                            40 C    0.106
    34   6 C    3.930 --    33 C    1.407    39 C    1.407    35 S    0.753
    35  16 S    5.268 --    38 O    1.730    36 O    1.712    37 O    1.015
                            34 C    0.753
    36   8 O    2.071 --    35 S    1.712    38 O    0.138
    37   8 O    2.089 --    35 S    1.015    60 H    0.828
    38   8 O    2.087 --    35 S    1.730    36 O    0.138
    39   6 C    3.989 --    40 C    1.451    34 C    1.407    61 H    0.967
                            32 C    0.106
    40   6 C    3.987 --    39 C    1.451    31 C    1.390    62 H    0.971
                            33 C    0.106
    41   6 C    3.914 --    30 C    1.319    45 N    1.240    42 C    1.170
    42   6 C    3.958 --    43 C    1.658    41 C    1.170    63 H    0.973
    43   6 C    3.955 --    42 C    1.658    44 C    1.169    64 H    0.975
    44   6 C    3.915 --     2 C    1.362    45 N    1.229    43 C    1.169
    45   7 N    3.243 --    41 C    1.240    44 C    1.229     1 Cu   0.504
    46   1 H    1.001 --     2 C    0.971
    47   1 H    0.997 --     4 C    0.975
    48   1 H    1.003 --     5 C    0.973
    49   1 H    1.003 --    10 C    0.971
    50   1 H    0.999 --    11 C    0.967
    51   1 H    0.854 --    15 O    0.828
    52   1 H    0.999 --    17 C    0.967
    53   1 H    1.003 --    18 C    0.971
    54   1 H    1.003 --    20 C    0.973
    55   1 H    1.001 --    21 C    0.974
    56   1 H    1.001 --    26 C    0.974
    57   1 H    1.003 --    27 C    0.973
    58   1 H    1.003 --    32 C    0.971
    59   1 H    0.999 --    33 C    0.967
    60   1 H    0.855 --    37 O    0.828
    61   1 H    1.000 --    39 C    0.967
    62   1 H    1.003 --    40 C    0.971
    63   1 H    1.003 --    42 C    0.973
    64   1 H    0.997 --    43 C    0.975
    65  29 Cu   2.178 --   109 N    0.504    71 N    0.503    86 N    0.500
                            93 N    0.500
    66   6 C    3.931 --   108 C    1.362    67 C    1.362   110 H    0.971
    67   6 C    3.915 --    66 C    1.362    71 N    1.229    68 C    1.169
    68   6 C    3.955 --    69 C    1.658    67 C    1.169   111 H    0.975
    69   6 C    3.958 --    68 C    1.658    70 C    1.170   112 H    0.973
    70   6 C    3.914 --    72 C    1.319    71 N    1.241    69 C    1.170
    71   7 N    3.243 --    70 C    1.241    67 C    1.229    65 Cu   0.503
    72   6 C    3.933 --    83 C    1.325    70 C    1.319    73 C    1.029
    73   6 C    3.986 --    74 C    1.391    82 C    1.390    72 C    1.029
    74   6 C    3.987 --    75 C    1.449    73 C    1.391   113 H    0.971
                            81 C    0.106
    75   6 C    3.989 --    74 C    1.449    76 C    1.407   114 H    0.967
                            82 C    0.106
    76   6 C    3.930 --    75 C    1.407    81 C    1.406    77 S    0.754
    77  16 S    5.264 --    78 O    1.722    80 O    1.716    79 O    1.013
                            76 C    0.754
    78   8 O    2.081 --    77 S    1.722    80 O    0.139
    79   8 O    2.087 --    77 S    1.013   115 H    0.828
    80   8 O    2.075 --    77 S    1.716    78 O    0.139
    81   6 C    3.989 --    82 C    1.451    76 C    1.406   116 H    0.967
                            74 C    0.106
    82   6 C    3.987 --    81 C    1.451    73 C    1.390   117 H    0.971
                            75 C    0.106
    83   6 C    3.908 --    72 C    1.325    86 N    1.224    84 C    1.178
    84   6 C    3.954 --    85 C    1.644    83 C    1.178   118 H    0.973
    85   6 C    3.956 --    84 C    1.644    87 C    1.186   119 H    0.974
    86   7 N    3.247 --    87 C    1.256    83 C    1.224    65 Cu   0.500
    87   6 C    3.895 --    88 C    1.260    86 N    1.256    85 C    1.186
    88   6 C    3.940 --    87 C    1.260    89 C    1.260   134 C    1.188
    89   6 C    3.896 --    88 C    1.260    93 N    1.256    90 C    1.186
    90   6 C    3.956 --    91 C    1.644    89 C    1.186   120 H    0.974
    91   6 C    3.954 --    90 C    1.644    92 C    1.178   121 H    0.973
    92   6 C    3.908 --    94 C    1.324    93 N    1.224    91 C    1.178
    93   7 N    3.247 --    89 C    1.256    92 C    1.224    65 Cu   0.500
    94   6 C    3.933 --    92 C    1.324   105 C    1.319    95 C    1.029
    95   6 C    3.986 --    96 C    1.391   104 C    1.390    94 C    1.029
    96   6 C    3.986 --    97 C    1.449    95 C    1.391   122 H    0.971
                           103 C    0.106
    97   6 C    3.989 --    96 C    1.449    98 C    1.407   123 H    0.967
                           104 C    0.106
    98   6 C    3.930 --    97 C    1.407   103 C    1.407    99 S    0.753
    99  16 S    5.268 --   102 O    1.730   100 O    1.712   101 O    1.015
                            98 C    0.753
   100   8 O    2.070 --    99 S    1.712   102 O    0.138
   101   8 O    2.089 --    99 S    1.015   124 H    0.828
   102   8 O    2.087 --    99 S    1.730   100 O    0.138
   103   6 C    3.989 --   104 C    1.451    98 C    1.407   125 H    0.967
                            96 C    0.106
   104   6 C    3.987 --   103 C    1.451    95 C    1.390   126 H    0.971
                            97 C    0.106
   105   6 C    3.914 --    94 C    1.319   109 N    1.241   106 C    1.170
   106   6 C    3.958 --   107 C    1.658   105 C    1.170   127 H    0.973
   107   6 C    3.955 --   106 C    1.658   108 C    1.169   128 H    0.975
   108   6 C    3.915 --    66 C    1.362   109 N    1.229   107 C    1.169
   109   7 N    3.243 --   105 C    1.241   108 C    1.229    65 Cu   0.504
   110   1 H    1.001 --    66 C    0.971
   111   1 H    0.997 --    68 C    0.975
   112   1 H    1.003 --    69 C    0.973
   113   1 H    1.003 --    74 C    0.971
   114   1 H    0.999 --    75 C    0.967
   115   1 H    0.854 --    79 O    0.828
   116   1 H    0.999 --    81 C    0.967
   117   1 H    1.003 --    82 C    0.971
   118   1 H    1.003 --    84 C    0.973
   119   1 H    1.001 --    85 C    0.974
   120   1 H    1.001 --    90 C    0.974
   121   1 H    1.003 --    91 C    0.973
   122   1 H    1.003 --    96 C    0.971
   123   1 H    0.999 --    97 C    0.967
   124   1 H    0.855 --   101 O    0.828
   125   1 H    1.000 --   103 C    0.967
   126   1 H    1.003 --   104 C    0.971
   127   1 H    1.003 --   106 C    0.973
   128   1 H    0.997 --   107 C    0.975
   129   6 C    3.927 --   130 C    2.373   133 C    1.332   132 C    0.191
   130   6 C    3.927 --   129 C    2.373   131 C    1.332   134 C    0.191
   131   6 C    3.936 --   132 C    2.454   130 C    1.332
   132   6 C    3.892 --   131 C    2.454    24 C    1.188   129 C    0.191
   133   6 C    3.936 --   134 C    2.454   129 C    1.332
   134   6 C    3.892 --   133 C    2.454    88 C    1.188   130 C    0.191
 ---------------------------------------------------------------------------

           -------------------------------------------------
          | TOTAL ENERGY             -273.677699282524 Eh   |
          | GRADIENT NORM               0.000577025221 Eh/α |
          | HOMO-LUMO GAP               0.001783469716 eV   |
           -------------------------------------------------

 * finished run on 2022/07/30 at 13:43:28.240
