   * xtb version 6.5.1 (b24c23e) compiled by 'conda@728c89f4b128' on 2022-07-12
          program call               : xtb Co_DHP_C4_2.xyz --gfn 1 --opt -T 48

   ID    Z sym.   atoms
    1   27 Co     1, 59
    2    6 C      2-6, 8-11, 13-17, 19-24, 26-29, 31-36, 60-64, 66-69, 71-75,
                  77-82, 84-87, 89-94, 117-120
    3    7 N      7, 12, 18, 25, 30, 37, 65, 70, 76, 83, 88, 95
    4    1 H      38-58, 96-116
########################################################################
[WARNING] Please study the warnings concerning your input carefully
-1- prog_main_parseArguments: Unknown option '-T' provided
########################################################################

          :  Hamiltonian                  GFN1-xTB          :
 * total energy  :  -202.8003765 Eh     change       -0.3713296E-08 Eh
 * total energy  :  -202.9733643 Eh     change       -0.1729879E+00 Eh
 * total energy  :  -203.0302735 Eh     change       -0.5690911E-01 Eh
 * total energy  :  -203.0577534 Eh     change       -0.2747994E-01 Eh
 * total energy  :  -203.0687735 Eh     change       -0.1102014E-01 Eh
 * total energy  :  -203.0745570 Eh     change       -0.5783432E-02 Eh
 * total energy  :  -203.0778012 Eh     change       -0.3244257E-02 Eh
 * total energy  :  -203.0799062 Eh     change       -0.2104938E-02 Eh
 * total energy  :  -203.0811732 Eh     change       -0.1267029E-02 Eh
 * total energy  :  -203.0821658 Eh     change       -0.9926136E-03 Eh
 * total energy  :  -203.0851043 Eh     change       -0.1582996E-04 Eh
 * total energy  :  -203.0851180 Eh     change       -0.1369432E-04 Eh
 * total energy  :  -203.0851323 Eh     change       -0.1429347E-04 Eh
 * total energy  :  -203.0851499 Eh     change       -0.1753561E-04 Eh
 * total energy  :  -203.0851713 Eh     change       -0.2141920E-04 Eh
 * total energy  :  -203.0851939 Eh     change       -0.2260251E-04 Eh
 * total energy  :  -203.0852130 Eh     change       -0.1908381E-04 Eh
 * total energy  :  -203.0852271 Eh     change       -0.1409579E-04 Eh
 * total energy  :  -203.0852295 Eh     change       -0.2423055E-05 Eh
   *** GEOMETRY OPTIMIZATION CONVERGED AFTER 44 ITERATIONS ***

 final structure:
================
120
 xtb: 6.5.1 (b24c23e)
Co          13.94732510399387       -0.06040338293093       -0.03084996768849
C           10.57340566847234       -0.06618174732261       -0.14219964409326
C           11.22429966334916       -1.26188463752300        0.07376183012594
C           10.55304996673831       -2.50689665375381        0.29210403457285
C           11.50722123472989       -3.46740856601144        0.28973931298368
C           12.75873270751924       -2.80846557658272        0.05282541885087
N           12.58090928768170       -1.44953387585491       -0.01236082663953
C           13.95449080113775       -3.46976767116383       -0.19202117193955
C           13.96135613309974       -4.94886565470476       -0.26603245284961
C           13.22033805447723       -5.61147901128254       -1.16883817777112
C           13.19685814707706       -7.11367143189742       -1.25999537728731
N           14.27775265399093       -7.71457677597977       -0.47649448261260
C           14.89539985304947       -7.02867210511391        0.53119917394301
C           14.80413240966299       -5.69126826878960        0.65706202620153
C           15.14582386133277       -2.78258640423932       -0.37570485478382
C           16.39269094422708       -3.41188775701977       -0.69118163701524
C           17.34292444334493       -2.44779297545239       -0.63403914098962
N           15.32377554931168       -1.43135230009362       -0.18841493843611
C           16.67313645050465       -1.23353605264396       -0.29033675042886
C           17.34158666403088       -0.05075879688300        0.03050119028356
C           16.65426707323385        1.12403113202621        0.34200217550178
C           17.30327397745539        2.33524338169933        0.73280199824692
C           16.34424076136744        3.29098288729911        0.78049724036756
C           15.11431418243211        2.66106248126121        0.40534819655001
N           15.30816874251338        1.31469990834907        0.19786496161913
C           13.92979876149485        3.34645444839237        0.17819881001168
C           13.92460572295463        4.82359982820460        0.28363819363024
C           13.13344628623552        5.46204767458289        1.16089652635799
C           13.09854989707744        6.96134144107267        1.28766450418447
N           14.20943034889531        7.58629582660379        0.56741611444413
C           14.88330676023970        6.92557025480122       -0.42054201179673
C           14.80912093708201        5.59044015087708       -0.57832237277509
C           12.75338021733819        2.68546170618086       -0.14796262420613
C           11.51699933357438        3.34420845477000       -0.45404111703103
C           10.57110177741795        2.37975589854442       -0.54433420708539
C           11.23248709285889        1.13342523380618       -0.30382877141073
N           12.57912607895766        1.32502760774666       -0.12137417798739
H            9.49032877518789       -0.06847214226449       -0.18044138120977
H            9.48771219357097       -2.61207451471789        0.42392422451107
H           11.38781724424786       -4.52934573848381        0.43183691843983
H           12.58804038335044       -5.09128504379654       -1.87885332800368
H           13.31415028684478       -7.43194024229505       -2.30561868971508
H           12.22143144489217       -7.50062881838636       -0.91159700102518
H           14.21817055233977       -8.71718056506067       -0.38003946631121
H           15.52135142018312       -7.63576972355684        1.17732797128829
H           15.33607469005877       -5.16310662664090        1.43543017821983
H           16.51369694707207       -4.45814406294945       -0.92092785470298
H           18.40519729978709       -2.53579180089706       -0.79647579962934
H           18.35841079280654        2.42661046670201        0.93488173588357
H           16.44949023940077        4.33227131915689        1.03860999228292
H           12.46736944645269        4.92256078328312        1.82410699554868
H           13.16819330623759        7.25366306514782        2.34520660597727
H           12.13750714798423        7.35309820448158        0.90654403851466
H           14.14722407495931        8.59027225766990        0.48914464079886
H           15.53643301857810        7.55025896093665       -1.02145337728121
H           15.38426009648693        5.08255777191845       -1.33929678196300
H           11.40146689063047        4.40862410535338       -0.57997149407768
H            9.51661524056380        2.48321635460064       -0.74611152345946
Co          27.33896589333644        0.06623440928282       -0.01682345786434
C           30.71297023226030        0.09565243951962       -0.12408169294798
C           30.06213826633743        1.21731928244611        0.34310002204230
C           30.73352122706440        2.38664697589794        0.82293617439889
C           29.77936172958107        3.32521532951173        1.02708866492462
C           28.52773531316696        2.73226505347240        0.65498735871285
N           28.70551258810659        1.41900827131047        0.29954773354839
C           27.33195835216999        3.43067576791373        0.55816856681152
C           27.32514668003150        4.89129344895603        0.80290724151452
C           28.06493318725673        5.73206476635723        0.06195656929656
C           28.08801393615998        7.21897855770210        0.29433911149389
N           27.00809646154711        7.63776446406684        1.18971341325492
C           26.39195348768431        6.75181461547785        2.02808486418193
C           26.48354226801567        5.41850392581321        1.86463410288531
C           26.14055868323992        2.79903134278377        0.23137913729555
C           24.89376601961450        3.48155251212044        0.05848773317345
C           23.94346872612319        2.52779368336242       -0.09302451824038
N           25.96253824964901        1.43915298211764        0.12370043763787
C           24.61316931909881        1.26798689535276       -0.01844173563138
C           23.94460492442587        0.04395603325233        0.04036851863719
C           24.63176213112651       -1.17042200491932        0.09205711975438
C           23.98245013722334       -2.43720380724237        0.21300487234444
C           24.94141568615730       -3.38102663569133        0.05482722329400
C           26.17164824702980       -2.68541968055891       -0.17522687676095
N           25.97793895880089       -1.32586970491312       -0.08893363269314
C           27.35635070380101       -3.30632013808705       -0.54318156068447
C           27.36137130206347       -4.77159223588357       -0.75775897174136
C           28.15206784451727       -5.58395917697789       -0.03804503018948
C           28.18708586146727       -7.07537860888830       -0.23708847486145
N           27.07656574677678       -7.53063205206771       -1.07546349070189
C           26.40314648965973       -6.67269122090404       -1.89837870099609
C           26.47734426813754       -5.33490414082184       -1.76502972497230
C           28.53302455419686       -2.59095031397390       -0.71913051551219
C           29.76950622871087       -3.16889691700414       -1.15885791111712
C           30.71537105442576       -2.20746854016668       -1.04041141388139
C           30.05389358849951       -1.04156933233027       -0.53868992033554
N           28.70721136140673       -1.26776290108741       -0.40184352920808
H           31.79603189686399        0.10621850768950       -0.16137823307726
H           31.79892236182199        2.46118016599219        0.97377304914434
H           29.89879690497416        4.33198349903076        1.39359119931013
H           28.69634143778035        5.37613580918851       -0.74374608684997
H           27.96913554228235        7.75353893537693       -0.65880929829425
H           29.06385418856680        7.52295061107097        0.71611933403689
H           27.06759637598269        8.59653757890415        1.49839216847395
H           25.76685018122749        7.20629318023843        2.79002955564872
H           25.95272631358291        4.73573522976960        2.51258150641306
H           24.77288103533289        4.55274917325713        0.05911668117184
H           22.88121736472294        2.64871019481079       -0.23285081311244
H           22.92716476031162       -2.56969859438582        0.38996094778566
H           24.83594036487898       -4.45343438687841        0.08309366082374
H           28.81777555573579       -5.19993241848976        0.72609500017893
H           28.11711751112393       -7.58860614022295        0.73264866236087
H           29.14832426361321       -7.37578736187531       -0.69328248903943
H           27.13899101641093       -8.49418760021101       -1.36809394438611
H           25.75032496482397       -7.15334544279711       -2.61997528223262
H           25.90255252896932       -4.67509918617117       -2.39913188710951
H           29.88515652890911       -4.18168247624054       -1.50967025309391
H           31.76990493716281       -2.26533754728156       -1.25942438481490
C           19.96793966118208       -0.01418301536300        0.05150143091243
C           18.74653879770179       -0.03852692796308        0.04373224545115
C           21.31828425593661        0.00321363197658        0.05330232028754
C           22.53965450086072        0.02927355414915        0.05130159596276

          :  Hamiltonian                  GFN1-xTB          :
         :: total energy            -203.085229479978 Eh    ::
         :: gradient norm              0.000607623367 Eh/a0 ::
         :: HOMO-LUMO gap              0.000020686026 eV    ::
         :: SCC energy              -206.214629247081 Eh    ::
         :: repulsion energy           3.233908071772 Eh    ::

    * Orbital Energies and Occupations

         #    Occupation            Energy/Eh            Energy/eV
      -------------------------------------------------------------
         1        2.0000           -0.7859173             -21.3859
       ...           ...                  ...                  ...
       176        2.0000           -0.3842687             -10.4565
       177        2.0000           -0.3799319             -10.3385
       178        2.0000           -0.3798947             -10.3375
       179        1.9999           -0.3771038             -10.2615
       180        1.9999           -0.3770781             -10.2608
       181        1.9999           -0.3770044             -10.2588
       182        1.9999           -0.3770023             -10.2588
       183        1.9994           -0.3755260             -10.2186
       184        1.9815           -0.3721807             -10.1276
       185        1.9815           -0.3721798             -10.1275
       186        1.9541           -0.3713013             -10.1036
       187        1.7522           -0.3695961             -10.0572
       188        1.1660           -0.3680565             -10.0153 (HOMO)
       189        1.1657           -0.3680557             -10.0153 (LUMO)
       190                         -0.3256473              -8.8613
       191                         -0.3152184              -8.5775
       192                         -0.3152145              -8.5774
       193                         -0.3121351              -8.4936
       194                         -0.2869982              -7.8096
       195                         -0.2810765              -7.6485
       196                         -0.2790609              -7.5936
       197                         -0.2789735              -7.5913
       198                         -0.2671971              -7.2708
       199                         -0.2671950              -7.2707
       ...                                ...                  ...
       406                          1.5288607              41.6024
      -------------------------------------------------------------
                  HL-Gap            0.0000008 Eh            0.0000 eV

Wiberg/Mayer (AO) data.
largest (>0.10) Wiberg bond orders for each atom

     #   Z sym  total        # sym  WBO       # sym  WBO       # sym  WBO
 ---------------------------------------------------------------------------
     1  27 Co   3.022 --     7 N    0.633    37 N    0.633    25 N    0.631
                            18 N    0.630
     2   6 C    3.931 --    36 C    1.365     3 C    1.364    38 H    0.970
     3   6 C    3.927 --     2 C    1.364     7 N    1.203     4 C    1.175
     4   6 C    3.960 --     5 C    1.648     3 C    1.175    39 H    0.975
     5   6 C    3.963 --     4 C    1.648     6 C    1.176    40 H    0.974
     6   6 C    3.923 --     8 C    1.322     7 N    1.212     5 C    1.176
     7   7 N    3.344 --     6 C    1.212     3 C    1.203     1 Co   0.633
     8   6 C    3.937 --    15 C    1.327     6 C    1.322     9 C    1.028
     9   6 C    3.983 --    10 C    1.752    14 C    1.106     8 C    1.028
    10   6 C    3.948 --     9 C    1.752    11 C    1.015    41 H    0.971
    11   6 C    3.957 --    10 C    1.015    42 H    0.973    43 H    0.964
                            12 N    0.947
    12   7 N    3.245 --    13 C    1.173    11 C    0.947    44 H    0.926
                            14 C    0.121
    13   6 C    3.948 --    14 C    1.674    12 N    1.173    45 H    0.970
    14   6 C    3.945 --    13 C    1.674     9 C    1.106    46 H    0.973
                            12 N    0.121
    15   6 C    3.917 --     8 C    1.327    18 N    1.198    16 C    1.183
    16   6 C    3.960 --    17 C    1.637    15 C    1.183    47 H    0.973
    17   6 C    3.962 --    16 C    1.637    19 C    1.190    48 H    0.974
    18   7 N    3.348 --    19 C    1.228    15 C    1.198     1 Co   0.630
    19   6 C    3.906 --    20 C    1.265    18 N    1.228    17 C    1.190
    20   6 C    3.939 --    19 C    1.265    21 C    1.263   118 C    1.183
    21   6 C    3.906 --    20 C    1.263    25 N    1.229    22 C    1.190
    22   6 C    3.962 --    23 C    1.637    21 C    1.190    49 H    0.974
    23   6 C    3.959 --    22 C    1.637    24 C    1.183    50 H    0.973
    24   6 C    3.917 --    26 C    1.328    25 N    1.197    23 C    1.183
    25   7 N    3.348 --    21 C    1.229    24 C    1.197     1 Co   0.631
    26   6 C    3.937 --    24 C    1.328    33 C    1.321    27 C    1.028
    27   6 C    3.983 --    28 C    1.752    32 C    1.106    26 C    1.028
    28   6 C    3.948 --    27 C    1.752    29 C    1.015    51 H    0.971
    29   6 C    3.957 --    28 C    1.015    52 H    0.973    53 H    0.965
                            30 N    0.947
    30   7 N    3.246 --    31 C    1.173    29 C    0.947    54 H    0.926
                            32 C    0.121
    31   6 C    3.948 --    32 C    1.673    30 N    1.173    55 H    0.970
    32   6 C    3.945 --    31 C    1.673    27 C    1.106    56 H    0.973
                            30 N    0.121
    33   6 C    3.923 --    26 C    1.321    37 N    1.213    34 C    1.177
    34   6 C    3.964 --    35 C    1.648    33 C    1.177    57 H    0.974
    35   6 C    3.960 --    34 C    1.648    36 C    1.175    58 H    0.975
    36   6 C    3.927 --     2 C    1.365    37 N    1.203    35 C    1.175
    37   7 N    3.344 --    33 C    1.213    36 C    1.203     1 Co   0.633
    38   1 H    1.000 --     2 C    0.970
    39   1 H    0.998 --     4 C    0.975
    40   1 H    1.006 --     5 C    0.974
    41   1 H    1.004 --    10 C    0.971
    42   1 H    1.015 --    11 C    0.973
    43   1 H    1.003 --    11 C    0.964
    44   1 H    0.961 --    12 N    0.926
    45   1 H    1.001 --    13 C    0.970
    46   1 H    1.003 --    14 C    0.973
    47   1 H    1.005 --    16 C    0.973
    48   1 H    1.002 --    17 C    0.974
    49   1 H    1.002 --    22 C    0.974
    50   1 H    1.005 --    23 C    0.973
    51   1 H    1.003 --    28 C    0.971
    52   1 H    1.015 --    29 C    0.973
    53   1 H    1.003 --    29 C    0.965
    54   1 H    0.961 --    30 N    0.926
    55   1 H    1.001 --    31 C    0.970
    56   1 H    1.003 --    32 C    0.973
    57   1 H    1.006 --    34 C    0.974
    58   1 H    0.998 --    35 C    0.975
    59  27 Co   3.021 --    65 N    0.633    95 N    0.633    83 N    0.631
                            76 N    0.630
    60   6 C    3.931 --    94 C    1.365    61 C    1.364    96 H    0.970
    61   6 C    3.927 --    60 C    1.364    65 N    1.203    62 C    1.175
    62   6 C    3.960 --    63 C    1.648    61 C    1.175    97 H    0.975
    63   6 C    3.963 --    62 C    1.648    64 C    1.176    98 H    0.974
    64   6 C    3.923 --    66 C    1.322    65 N    1.212    63 C    1.176
    65   7 N    3.344 --    64 C    1.212    61 C    1.203    59 Co   0.633
    66   6 C    3.937 --    73 C    1.327    64 C    1.322    67 C    1.028
    67   6 C    3.983 --    68 C    1.753    72 C    1.106    66 C    1.028
    68   6 C    3.948 --    67 C    1.753    69 C    1.015    99 H    0.971
    69   6 C    3.957 --    68 C    1.015   100 H    0.973   101 H    0.965
                            70 N    0.947
    70   7 N    3.245 --    71 C    1.173    69 C    0.947   102 H    0.926
                            72 C    0.121
    71   6 C    3.948 --    72 C    1.674    70 N    1.173   103 H    0.970
    72   6 C    3.945 --    71 C    1.674    67 C    1.106   104 H    0.973
                            70 N    0.121
    73   6 C    3.917 --    66 C    1.327    76 N    1.198    74 C    1.183
    74   6 C    3.960 --    75 C    1.637    73 C    1.183   105 H    0.973
    75   6 C    3.962 --    74 C    1.637    77 C    1.190   106 H    0.974
    76   7 N    3.348 --    77 C    1.228    73 C    1.198    59 Co   0.630
    77   6 C    3.906 --    78 C    1.265    76 N    1.228    75 C    1.190
    78   6 C    3.939 --    77 C    1.265    79 C    1.263   120 C    1.182
    79   6 C    3.906 --    78 C    1.263    83 N    1.229    80 C    1.190
    80   6 C    3.962 --    81 C    1.637    79 C    1.190   107 H    0.974
    81   6 C    3.959 --    80 C    1.637    82 C    1.183   108 H    0.973
    82   6 C    3.917 --    84 C    1.328    83 N    1.197    81 C    1.183
    83   7 N    3.348 --    79 C    1.229    82 C    1.197    59 Co   0.631
    84   6 C    3.937 --    82 C    1.328    91 C    1.321    85 C    1.028
    85   6 C    3.983 --    86 C    1.752    90 C    1.106    84 C    1.028
    86   6 C    3.948 --    85 C    1.752    87 C    1.015   109 H    0.971
    87   6 C    3.957 --    86 C    1.015   110 H    0.973   111 H    0.965
                            88 N    0.947
    88   7 N    3.246 --    89 C    1.173    87 C    0.947   112 H    0.926
                            90 C    0.121
    89   6 C    3.948 --    90 C    1.673    88 N    1.173   113 H    0.970
    90   6 C    3.945 --    89 C    1.673    85 C    1.106   114 H    0.973
                            88 N    0.121
    91   6 C    3.923 --    84 C    1.321    95 N    1.213    92 C    1.177
    92   6 C    3.964 --    93 C    1.648    91 C    1.177   115 H    0.974
    93   6 C    3.960 --    92 C    1.648    94 C    1.175   116 H    0.975
    94   6 C    3.927 --    60 C    1.365    95 N    1.203    93 C    1.175
    95   7 N    3.344 --    91 C    1.213    94 C    1.203    59 Co   0.633
    96   1 H    1.000 --    60 C    0.970
    97   1 H    0.998 --    62 C    0.975
    98   1 H    1.006 --    63 C    0.974
    99   1 H    1.004 --    68 C    0.971
   100   1 H    1.015 --    69 C    0.973
   101   1 H    1.003 --    69 C    0.965
   102   1 H    0.961 --    70 N    0.926
   103   1 H    1.001 --    71 C    0.970
   104   1 H    1.003 --    72 C    0.973
   105   1 H    1.005 --    74 C    0.973
   106   1 H    1.002 --    75 C    0.974
   107   1 H    1.002 --    80 C    0.974
   108   1 H    1.005 --    81 C    0.973
   109   1 H    1.003 --    86 C    0.971
   110   1 H    1.015 --    87 C    0.973
   111   1 H    1.003 --    87 C    0.965
   112   1 H    0.961 --    88 N    0.926
   113   1 H    1.001 --    89 C    0.970
   114   1 H    1.003 --    90 C    0.973
   115   1 H    1.006 --    92 C    0.974
   116   1 H    0.998 --    93 C    0.975
   117   6 C    3.935 --   118 C    2.482   119 C    1.304
   118   6 C    3.924 --   117 C    2.482    20 C    1.183   120 C    0.199
   119   6 C    3.935 --   120 C    2.482   117 C    1.304
   120   6 C    3.924 --   119 C    2.482    78 C    1.182   118 C    0.199
 ---------------------------------------------------------------------------

           -------------------------------------------------
          | TOTAL ENERGY             -203.085229479978 Eh   |
          | GRADIENT NORM               0.000607623367 Eh/α |
          | HOMO-LUMO GAP               0.000020686026 eV   |
           -------------------------------------------------

 * finished run on 2022/07/30 at 00:16:53.329
