   * xtb version 6.5.1 (b24c23e) compiled by 'conda@728c89f4b128' on 2022-07-12
          program call               : xtb Co_PhNO2_C8_3.xyz --gfn 1 --opt -T 48

   ID    Z sym.   atoms
    1   27 Co     1, 61, 137
    2    6 C      2-6, 8-12, 16-20, 22-27, 29-33, 37-42, 62-66, 68-72, 76-80,
                  82-87, 89-93, 97-102, 121-136, 138-142, 144-148, 152-156,
                  158-163, 165-169, 173-178
    3    7 N      7, 13, 21, 28, 34, 43, 67, 73, 81, 88, 94, 103, 143, 149,
                  157, 164, 170, 179
    4    8 O      14, 15, 35, 36, 74, 75, 95, 96, 150, 151, 171, 172
    5    1 H      44-60, 104-120, 180-195

          :  Hamiltonian                  GFN1-xTB          :
 * total energy  :  -385.2555912 Eh     change       -0.2106617E-08 Eh
 * total energy  :  -386.2081042 Eh     change       -0.9525130E+00 Eh
 * total energy  :  -386.4969755 Eh     change       -0.2888713E+00 Eh
 * total energy  :  -386.6428570 Eh     change       -0.1458815E+00 Eh
 * total energy  :  -386.7427382 Eh     change       -0.9988120E-01 Eh
 * total energy  :  -386.8333623 Eh     change       -0.9062413E-01 Eh
 * total energy  :  -386.8883036 Eh     change       -0.5494122E-01 Eh
 * total energy  :  -386.9230508 Eh     change       -0.3474723E-01 Eh
 * total energy  :  -386.9480326 Eh     change       -0.2498185E-01 Eh
 * total energy  :  -386.9632893 Eh     change       -0.1525669E-01 Eh
 * total energy  :  -387.0037994 Eh     change       -0.1669958E-04 Eh
 * total energy  :  -387.0038055 Eh     change       -0.6123820E-05 Eh
 * total energy  :  -387.0038151 Eh     change       -0.9572290E-05 Eh
 * total energy  :  -387.0038296 Eh     change       -0.1445386E-04 Eh
 * total energy  :  -387.0038417 Eh     change       -0.1217511E-04 Eh
 * total energy  :  -387.0038537 Eh     change       -0.1201332E-04 Eh
 * total energy  :  -387.0038550 Eh     change       -0.1296070E-05 Eh
 * total energy  :  -387.0038630 Eh     change       -0.7956636E-05 Eh
 * total energy  :  -387.0038670 Eh     change       -0.4022902E-05 Eh
   *** GEOMETRY OPTIMIZATION CONVERGED AFTER 84 ITERATIONS ***

 final structure:
================
195
 xtb: 6.5.1 (b24c23e)
Co          27.24964798402975       -0.00003685279807       -0.08312872609963
C           23.88031086809980       -0.00867394473083       -0.25293177286558
C           24.53381753207371       -1.21660830307262       -0.13678863197391
C           23.86948414326780       -2.48105214102541       -0.04467276384853
C           24.82997787639581       -3.43119176922247       -0.12667644056652
C           26.07859074326862       -2.74457109306418       -0.28917969882304
N           25.89293204394543       -1.38766635925821       -0.22209621755644
C           27.28013390356458       -3.36817189424068       -0.59888614629013
C           27.29525606601413       -4.82965706792669       -0.82622316052059
C           28.10398483200127       -5.65839188323956       -0.04248328960722
C           28.12297256896434       -7.02504189626925       -0.25323126301015
C           27.33079766684646       -7.56764654566522       -1.26106439191028
N           27.35072983810095       -9.00161768519027       -1.49029758723192
O           26.64845061088355       -9.43595604805951       -2.36695375473717
O           28.06877445376339       -9.66830157622778       -0.79012916349025
C           26.52085163043269       -6.75991649769927       -2.05425759375078
C           26.50464682879778       -5.39525756765632       -1.83138287247402
C           28.46545087259625       -2.65740719050558       -0.72220886035679
C           29.71296142328387       -3.23425613035614       -1.12458665960833
C           30.65487361399640       -2.27271714025551       -0.97169154305975
N           28.63369948538482       -1.33347814159355       -0.38985185938636
C           29.97982765812141       -1.11264705426165       -0.48229451515387
C           30.64236411963141        0.02720350775591       -0.02091577426973
C           29.94671319104386        1.14685061629625        0.44186112776947
C           30.58389347101434        2.29905305202562        0.99586542848151
C           29.61631444124544        3.23058201440715        1.17265102404662
C           28.39361631364915        2.64863804279275        0.70590191463377
N           28.59942104385729        1.34313905334668        0.32269319309655
C           27.20588751454640        3.34780079787639        0.54894647948018
C           27.17892899396413        4.79688386606156        0.84474367542895
C           26.31154292183146        5.29925846974495        1.81969904426871
C           26.28530912605657        6.65150909072511        2.10781418019684
C           27.12909770375900        7.51069917693615        1.40961731895592
N           27.10547059691270        8.93184842805292        1.70790399213689
O           26.34007319117848        9.31074147836828        2.55701790478603
O           27.85298607867166        9.64416318267654        1.08811583110766
C           27.99536164817751        7.03180411369971        0.43088593168227
C           28.01837144900627        5.67688991070633        0.15487511006476
C           26.04072029279524        2.72880247445291        0.11439973425011
C           24.80994011199315        3.41660680742566       -0.14746579458705
C           23.87511271457689        2.46766175380439       -0.38742088537205
C           24.53622927736632        1.20288820508293       -0.27558472234123
N           25.87631474057271        1.37616650751002       -0.03185967118128
H           22.79869314776469       -0.01116108449680       -0.31568311469202
H           22.80394918672195       -2.60459197142522        0.06446774029084
H           24.71696189097853       -4.50237600194032       -0.08618585456822
H           28.70792510422716       -5.22477514619269        0.74602077919989
H           28.74155098847461       -7.67610674466839        0.35268823686806
H           25.91738439147968       -7.20639681093875       -2.83536736815844
H           25.88867187049090       -4.75411480579211       -2.45105508017412
H           29.84025681036328       -4.24420029627579       -1.47867172137976
H           31.71495655515493       -2.33077356616147       -1.15843701129895
H           31.63743728187517        2.37081747844245        1.21255490086069
H           29.71186970357321        4.22469555797874        1.57778550482821
H           25.66799532885520        4.61813736386907        2.36415310990543
H           25.62264098178485        7.04912674455161        2.86705641699989
H           28.63774308420379        7.72232295067697       -0.10221043751501
H           28.67959163592626        5.29325671030786       -0.61331335227287
H           24.69144292460396        4.48799714708524       -0.14585006492453
H           22.82727846977168        2.59152396077527       -0.60928842443999
Co          64.28104875429142        0.04926290228831       -0.04216250376632
C           67.64804171710247        0.10734969154769       -0.18990420580753
C           66.99737727415011        1.18257791055663        0.37653553873698
C           67.66217082370082        2.31571084797325        0.94471276741730
C           66.70455764805948        3.23496209206642        1.21038452825061
C           65.45729189711564        2.66785913329032        0.78659982031634
N           65.63979397386433        1.38243586425264        0.34653647160227
C           64.26088487501423        3.37002004214690        0.71015974771197
C           64.25026679125200        4.81307281402908        1.03264420624513
C           63.41949569671569        5.30441883710623        2.04453904481524
C           63.40305949318679        6.65355893619165        2.34762647315493
C           64.22091221829758        7.52085752925476        1.62888647087662
N           64.20342073476878        8.93956717086910        1.93914892543520
O           64.93129851880505        9.65827813488350        1.30361400441780
O           63.46207021415229        9.31010772444324        2.81286337673628
C           65.05403080575940        7.05257847757404        0.61685715355525
C           65.06681151750198        5.70091289441588        0.32515912735744
C           63.07599128281618        2.75882050793059        0.32486482269674
C           61.83126546203211        3.44526107170478        0.14963147646535
C           60.88573883807016        2.49496774840854       -0.04715165731465
N           62.90270707612850        1.40400499384095        0.16296681308220
C           61.55623717637294        1.23442906172902        0.00058238694048
C           60.89187296128084        0.00545082743305        0.03758923421153
C           61.58783026812871       -1.20643030964194        0.06115874758189
C           60.95362278211927       -2.48195521064009        0.16743332830505
C           61.91692342565004       -3.41276940251260       -0.03627921944111
C           63.13398448172035       -2.69932273443856       -0.28400009879368
N           62.93061410850937       -1.34506066968411       -0.15038005016998
C           64.31225968353111       -3.28697198335956       -0.72145320040835
C           64.33230927567493       -4.73891736159706       -1.00082413489299
C           65.22650411628868       -5.57386607023722       -0.32338652214544
C           65.24802498776680       -6.93329268044195       -0.57568946004139
C           64.37125678410567       -7.46265464605976       -1.51839649032244
N           64.39067824036758       -8.88953336699921       -1.78848110692784
O           65.18684449007529       -9.56068444703704       -1.18356557383921
O           63.60908240954080       -9.31395000316979       -2.60042099505797
C           63.47630694905911       -6.64854075177790       -2.20680274711621
C           63.45921261929418       -5.29109672507302       -1.94325276411140
C           65.47508757508562       -2.54916218182576       -0.90766461937937
C           66.69983669837805       -3.08420024116551       -1.42763801436381
C           67.63996708290915       -2.12097430960168       -1.28303601779757
C           66.98726995893740       -0.99714013778638       -0.68293333618626
N           65.64694762694293       -1.24609848528374       -0.52003084636798
H           68.73002199909330        0.12776475545112       -0.24236639452639
H           68.72615950364546        2.38220287467649        1.10609215075712
H           66.81904835949663        4.21254054910286        1.64982109619316
H           62.79615736922388        4.61729714723110        2.60474194054443
H           62.76685402068627        7.04276288788505        3.13338651899432
H           65.67769321681699        7.74894991370907        0.06933755398063
H           65.70030071304488        5.32623909157662       -0.47032170492271
H           61.70767043233262        4.51562976825751        0.17434442725610
H           59.82617152675047        2.61932876978086       -0.20168827038363
H           59.90454890071909       -2.62909622714748        0.36709391986449
H           61.82175929164498       -4.48624692980187       -0.02445986956057
H           65.89515575125593       -5.15135487536218        0.41748426002505
H           65.93233790857042       -7.58898135245774       -0.05085545739161
H           62.80781749840561       -7.08466321282858       -2.93932403966871
H           62.77634531168470       -4.64491308305118       -2.48236412423507
H           66.81180530472206       -4.07108762499419       -1.84647882432910
H           68.68598952450864       -2.15305914466672       -1.54251796038212
C           32.04491461015637        0.04132239040870       -0.00833244274112
C           33.26971457809007        0.04693177067561        0.00661673840567
C           34.61114937976120        0.05385029882490        0.01571076346515
C           35.84257051096377        0.05557396204261        0.02497907201888
C           37.17886914517381        0.05466739949752        0.02974327729619
C           38.41051774003912        0.05349521899412        0.03305658440998
C           39.75133189683601        0.04773419508827        0.02970003682605
C           40.97680643422220        0.04088551506718        0.02510165056771
C           50.55954654034741       -0.01658785140229        0.07674062405817
C           51.78523037775582       -0.02615345150140        0.09098034730907
C           53.12535025479525       -0.03336400097982        0.10080646883475
C           54.35739384467502       -0.03608449098955        0.10417401075116
C           55.69298779918814       -0.03476775731284        0.09986964179130
C           56.92477826690302       -0.03077090634046        0.09024809019523
C           58.26538424306050       -0.02272836267588        0.07557386536571
C           59.49052369675358       -0.01137772651228        0.05909379091692
Co          45.76873965741285        0.01106055920672        0.01529665327208
C           42.37751018450708        0.03120026290569        0.01324728064774
C           43.05475443409503       -1.14478093637517        0.35156165819773
C           42.40182375519978       -2.35064565236558        0.75066658644799
C           43.34979347939075       -3.31980490680482        0.76156115375201
C           44.57644201765942       -2.70007860311633        0.36095887524304
N           44.39441920207965       -1.35003007176638        0.17896912124899
C           45.74892958837335       -3.38673886758437        0.07155133786428
C           45.73727586609994       -4.86491697553539        0.09769559055707
C           46.60598748915596       -5.56395255108596        0.94158743773014
C           46.59677275361333       -6.94651388061543        0.97045501495858
C           45.71466261272749       -7.63685377843615        0.14424469978984
N           45.70355237737365       -9.08949002487436        0.16806246788756
O           44.92287011269274       -9.65255906516046       -0.55525292451106
O           46.47586230347977       -9.64036443286668        0.90959044103665
C           44.84280741980616       -6.96033710547379       -0.70401233775845
C           44.85582597212081       -5.57759906479904       -0.72119597657977
C           46.93198690188878       -2.72664157024298       -0.23231783677138
C           48.15990782415134       -3.37781870968727       -0.57635839299585
C           49.12229704897405       -2.42326681680351       -0.56865722060861
N           47.12844502379439       -1.37139899974621       -0.10329703197251
C           48.47562837531176       -1.19332681564098       -0.23862014179916
C           49.15972917377466       -0.00795048714230        0.05151861720026
C           48.47917956421317        1.18838813686851        0.30120520060462
C           49.12863074826363        2.41958994651200        0.62081058082335
C           48.18149764247401        3.38709232405992        0.55146632697523
C           46.95878749168118        2.74036320700493        0.18249456177537
N           47.14195970207631        1.38063626153158        0.09908724922782
C           45.78989375592627        3.40439602663750       -0.16658508531440
C           45.80282874620426        4.88089637737009       -0.24351737264464
C           46.69079228790624        5.53393177451734       -1.10403510521078
C           46.70760451922143        6.91458267833874       -1.18099639946468
C           45.83311042300132        7.64939541265733       -0.38557956944758
N           45.84943430475902        9.10030806537063       -0.45948923631708
O           46.63648931295689        9.61080003088593       -1.21429943782122
O           45.07540912894726        9.70243422721787        0.23911678817697
C           44.94385641221123        7.01906632245325        0.47999361793761
C           44.93064183462177        5.63773976412114        0.54501713853754
C           44.60918952853697        2.72437480054152       -0.43454159756262
C           43.38503868527392        3.35019297447300       -0.83429347623979
C           42.42200529343084        2.39840973600443       -0.76973771910816
C           43.06469321088034        1.19423906947368       -0.34933863686631
N           44.41088295006220        1.38155963895202       -0.21350832711548
H           41.35138919480014       -2.43188233416246        0.97869188323874
H           43.23818063989378       -4.36096620796954        1.01675061626860
H           47.27859447285273       -5.01472846534985        1.58998800534242
H           47.26182586097388       -7.49679474704681        1.62509880043068
H           44.16837920886247       -7.52141345204385       -1.33963204134982
H           44.19080439366292       -5.03926976064319       -1.38634716957988
H           48.26330149080079       -4.42907558492051       -0.79007899754966
H           50.17790082583789       -2.52811633151661       -0.76022091867727
H           50.17654059559903        2.51683185098240        0.85414437657769
H           48.29115330304761        4.44388803149479        0.73244269329176
H           47.35836176130309        4.94988583286289       -1.72672150834646
H           47.38734196945243        7.42944381579805       -1.84923815897505
H           44.27675525272515        7.61429409953097        1.09184496412288
H           44.25247584431322        5.13550687366594        1.22495056288363
H           43.28450529948582        4.38422771863076       -1.12097978490858
H           41.36834956228261        2.48963712174033       -0.97827792978775

          :  Hamiltonian                  GFN1-xTB          :
         :: total energy            -387.003867018770 Eh    ::
         :: gradient norm              0.000497457197 Eh/a0 ::
         :: HOMO-LUMO gap              0.000596685196 eV    ::
         :: SCC energy              -392.696866239088 Eh    ::
         :: repulsion energy           5.866984104771 Eh    ::

    * Orbital Energies and Occupations

         #    Occupation            Energy/Eh            Energy/eV
      -------------------------------------------------------------
         1        2.0000           -0.9257018             -25.1896
       ...           ...                  ...                  ...
       332        2.0000           -0.4198404             -11.4244
       333        2.0000           -0.4197606             -11.4223
       334        2.0000           -0.4191489             -11.4056
       335        1.9998           -0.4166858             -11.3386
       336        1.9998           -0.4165607             -11.3352
       337        1.9997           -0.4162716             -11.3273
       338        1.9997           -0.4162195             -11.3259
       339        1.9997           -0.4160849             -11.3222
       340        1.9997           -0.4160315             -11.3208
       341        1.9975           -0.4141242             -11.2689
       342        1.6768           -0.4092746             -11.1369
       343        1.1181           -0.4078455             -11.0980
       344        1.1098           -0.4078281             -11.0976 (HOMO)
       345        1.0993           -0.4078061             -11.0970 (LUMO)
       346                         -0.3679016             -10.0111
       347                         -0.3616928              -9.8422
       348                         -0.3592896              -9.7768
       349                         -0.3590627              -9.7706
       350                         -0.3585703              -9.7572
       351                         -0.3544292              -9.6445
       352                         -0.3530378              -9.6066
       353                         -0.3510005              -9.5512
       354                         -0.3505415              -9.5387
       355                         -0.3455019              -9.4016
       ...                                ...                  ...
       695                          1.5804034              43.0050
      -------------------------------------------------------------
                  HL-Gap            0.0000219 Eh            0.0006 eV

Wiberg/Mayer (AO) data.
largest (>0.10) Wiberg bond orders for each atom

     #   Z sym  total        # sym  WBO       # sym  WBO       # sym  WBO
 ---------------------------------------------------------------------------
     1  27 Co   3.031 --     7 N    0.639    43 N    0.639    21 N    0.633
                            28 N    0.633
     2   6 C    3.932 --    42 C    1.368     3 C    1.365    44 H    0.969
     3   6 C    3.921 --     2 C    1.365     7 N    1.200     4 C    1.173
     4   6 C    3.958 --     5 C    1.651     3 C    1.173    45 H    0.974
     5   6 C    3.962 --     4 C    1.651     6 C    1.174    46 H    0.973
     6   6 C    3.921 --     8 C    1.318     7 N    1.212     5 C    1.174
     7   7 N    3.347 --     6 C    1.212     3 C    1.200     1 Co   0.639
     8   6 C    3.933 --    18 C    1.327     6 C    1.318     9 C    1.035
     9   6 C    3.985 --    10 C    1.383    17 C    1.383     8 C    1.035
    10   6 C    3.985 --    11 C    1.464     9 C    1.383    47 H    0.971
                            16 C    0.102
    11   6 C    3.987 --    10 C    1.464    12 C    1.387    48 H    0.965
                            17 C    0.102
    12   6 C    3.941 --    11 C    1.387    16 C    1.387    13 N    0.921
    13   7 N    3.866 --    15 O    1.454    14 O    1.454    12 C    0.921
    14   8 O    1.829 --    13 N    1.454    15 O    0.252
    15   8 O    1.829 --    13 N    1.454    14 O    0.252
    16   6 C    3.987 --    17 C    1.464    12 C    1.387    49 H    0.965
                            10 C    0.102
    17   6 C    3.986 --    16 C    1.464     9 C    1.383    50 H    0.971
                            11 C    0.102
    18   6 C    3.916 --     8 C    1.327    21 N    1.197    19 C    1.181
    19   6 C    3.958 --    20 C    1.638    18 C    1.181    51 H    0.973
    20   6 C    3.961 --    19 C    1.638    22 C    1.189    52 H    0.973
    21   7 N    3.349 --    22 C    1.227    18 C    1.197     1 Co   0.633
    22   6 C    3.900 --    23 C    1.261    21 N    1.227    20 C    1.189
    23   6 C    3.938 --    22 C    1.261    24 C    1.259   121 C    1.192
    24   6 C    3.900 --    23 C    1.259    28 N    1.229    25 C    1.189
    25   6 C    3.961 --    26 C    1.638    24 C    1.189    53 H    0.973
    26   6 C    3.957 --    25 C    1.638    27 C    1.180    54 H    0.973
    27   6 C    3.916 --    29 C    1.330    28 N    1.194    26 C    1.180
    28   7 N    3.349 --    24 C    1.229    27 C    1.194     1 Co   0.633
    29   6 C    3.933 --    27 C    1.330    39 C    1.316    30 C    1.035
    30   6 C    3.985 --    38 C    1.383    31 C    1.383    29 C    1.035
    31   6 C    3.986 --    32 C    1.464    30 C    1.383    55 H    0.971
                            37 C    0.102
    32   6 C    3.987 --    31 C    1.464    33 C    1.387    56 H    0.965
                            38 C    0.102
    33   6 C    3.941 --    37 C    1.387    32 C    1.387    34 N    0.921
    34   7 N    3.866 --    36 O    1.454    35 O    1.454    33 C    0.921
    35   8 O    1.829 --    34 N    1.454    36 O    0.252
    36   8 O    1.829 --    34 N    1.454    35 O    0.252
    37   6 C    3.987 --    38 C    1.464    33 C    1.387    57 H    0.965
                            31 C    0.102
    38   6 C    3.987 --    37 C    1.464    30 C    1.383    58 H    0.971
                            32 C    0.102
    39   6 C    3.920 --    29 C    1.316    43 N    1.215    40 C    1.175
    40   6 C    3.963 --    41 C    1.651    39 C    1.175    59 H    0.973
    41   6 C    3.959 --    40 C    1.651    42 C    1.173    60 H    0.974
    42   6 C    3.921 --     2 C    1.368    43 N    1.197    41 C    1.173
    43   7 N    3.348 --    39 C    1.215    42 C    1.197     1 Co   0.639
    44   1 H    0.999 --     2 C    0.969
    45   1 H    0.997 --     4 C    0.974
    46   1 H    1.002 --     5 C    0.973
    47   1 H    1.003 --    10 C    0.971
    48   1 H    1.006 --    11 C    0.965
    49   1 H    1.006 --    16 C    0.965
    50   1 H    1.004 --    17 C    0.971
    51   1 H    1.002 --    19 C    0.973
    52   1 H    1.000 --    20 C    0.973
    53   1 H    1.000 --    25 C    0.973
    54   1 H    1.003 --    26 C    0.973
    55   1 H    1.003 --    31 C    0.971
    56   1 H    1.006 --    32 C    0.965
    57   1 H    1.006 --    37 C    0.965
    58   1 H    1.004 --    38 C    0.971
    59   1 H    1.002 --    40 C    0.973
    60   1 H    0.997 --    41 C    0.974
    61  27 Co   3.034 --   103 N    0.638    67 N    0.638    81 N    0.632
                            88 N    0.632
    62   6 C    3.930 --   102 C    1.367    63 C    1.365   104 H    0.969
    63   6 C    3.921 --    62 C    1.365    67 N    1.199    64 C    1.173
    64   6 C    3.958 --    65 C    1.650    63 C    1.173   105 H    0.974
    65   6 C    3.963 --    64 C    1.650    66 C    1.174   106 H    0.973
    66   6 C    3.921 --    68 C    1.316    67 N    1.214    65 C    1.174
    67   7 N    3.346 --    66 C    1.214    63 C    1.199    61 Co   0.638
    68   6 C    3.931 --    78 C    1.327    66 C    1.316    69 C    1.037
    69   6 C    3.985 --    77 C    1.382    70 C    1.382    68 C    1.037
    70   6 C    3.985 --    71 C    1.464    69 C    1.382   107 H    0.971
                            76 C    0.101
    71   6 C    3.987 --    70 C    1.464    72 C    1.387   108 H    0.965
                            77 C    0.101
    72   6 C    3.941 --    76 C    1.387    71 C    1.387    73 N    0.921
    73   7 N    3.866 --    74 O    1.454    75 O    1.454    72 C    0.921
    74   8 O    1.829 --    73 N    1.454    75 O    0.252
    75   8 O    1.829 --    73 N    1.454    74 O    0.252
    76   6 C    3.987 --    77 C    1.464    72 C    1.387   109 H    0.965
                            70 C    0.101
    77   6 C    3.986 --    76 C    1.464    69 C    1.382   110 H    0.971
                            71 C    0.101
    78   6 C    3.916 --    68 C    1.327    81 N    1.196    79 C    1.180
    79   6 C    3.957 --    80 C    1.637    78 C    1.180   111 H    0.973
    80   6 C    3.961 --    79 C    1.637    82 C    1.189   112 H    0.973
    81   7 N    3.347 --    82 C    1.228    78 C    1.196    61 Co   0.632
    82   6 C    3.899 --    83 C    1.258    81 N    1.228    80 C    1.189
    83   6 C    3.935 --    82 C    1.258    84 C    1.257   136 C    1.196
    84   6 C    3.900 --    83 C    1.257    88 N    1.230    85 C    1.190
    85   6 C    3.959 --    86 C    1.637    84 C    1.190   113 H    0.973
    86   6 C    3.957 --    85 C    1.637    87 C    1.180   114 H    0.973
    87   6 C    3.916 --    89 C    1.329    88 N    1.194    86 C    1.180
    88   7 N    3.347 --    84 C    1.230    87 C    1.194    61 Co   0.632
    89   6 C    3.931 --    87 C    1.329    99 C    1.314    90 C    1.037
    90   6 C    3.985 --    98 C    1.383    91 C    1.382    89 C    1.037
    91   6 C    3.985 --    92 C    1.464    90 C    1.382   115 H    0.971
                            97 C    0.102
    92   6 C    3.987 --    91 C    1.464    93 C    1.387   116 H    0.965
                            98 C    0.101
    93   6 C    3.941 --    97 C    1.387    92 C    1.387    94 N    0.921
    94   7 N    3.866 --    95 O    1.454    96 O    1.454    93 C    0.921
    95   8 O    1.829 --    94 N    1.454    96 O    0.252
    96   8 O    1.829 --    94 N    1.454    95 O    0.252
    97   6 C    3.987 --    98 C    1.464    93 C    1.387   117 H    0.965
                            91 C    0.102
    98   6 C    3.986 --    97 C    1.464    90 C    1.383   118 H    0.971
                            92 C    0.101
    99   6 C    3.920 --    89 C    1.314   103 N    1.215   100 C    1.175
   100   6 C    3.963 --   101 C    1.650    99 C    1.175   119 H    0.973
   101   6 C    3.959 --   100 C    1.650   102 C    1.173   120 H    0.974
   102   6 C    3.922 --    62 C    1.367   103 N    1.197   101 C    1.173
   103   7 N    3.346 --    99 C    1.215   102 C    1.197    61 Co   0.638
   104   1 H    0.999 --    62 C    0.969
   105   1 H    0.997 --    64 C    0.974
   106   1 H    1.002 --    65 C    0.973
   107   1 H    1.004 --    70 C    0.971
   108   1 H    1.006 --    71 C    0.965
   109   1 H    1.006 --    76 C    0.965
   110   1 H    1.004 --    77 C    0.971
   111   1 H    1.002 --    79 C    0.973
   112   1 H    1.000 --    80 C    0.973
   113   1 H    1.000 --    85 C    0.973
   114   1 H    1.002 --    86 C    0.973
   115   1 H    1.003 --    91 C    0.971
   116   1 H    1.006 --    92 C    0.965
   117   1 H    1.006 --    97 C    0.965
   118   1 H    1.004 --    98 C    0.971
   119   1 H    1.002 --   100 C    0.973
   120   1 H    0.997 --   101 C    0.974
   121   6 C    3.869 --   122 C    2.433    23 C    1.192   124 C    0.185
   122   6 C    3.933 --   121 C    2.433   123 C    1.350
   123   6 C    3.884 --   124 C    2.324   122 C    1.350   126 C    0.180
   124   6 C    3.921 --   123 C    2.324   125 C    1.377   121 C    0.185
   125   6 C    3.917 --   126 C    2.321   124 C    1.377   128 C    0.184
   126   6 C    3.886 --   125 C    2.321   127 C    1.353   123 C    0.180
   127   6 C    3.926 --   128 C    2.425   126 C    1.353
   128   6 C    3.870 --   127 C    2.425   138 C    1.200   125 C    0.184
   129   6 C    3.869 --   130 C    2.420   159 C    1.203   132 C    0.184
   130   6 C    3.925 --   129 C    2.420   131 C    1.357
   131   6 C    3.885 --   132 C    2.316   130 C    1.357   134 C    0.179
   132   6 C    3.916 --   131 C    2.316   133 C    1.381   129 C    0.184
   133   6 C    3.919 --   134 C    2.318   132 C    1.381   136 C    0.184
   134   6 C    3.883 --   133 C    2.318   135 C    1.354   131 C    0.179
   135   6 C    3.931 --   136 C    2.427   134 C    1.354
   136   6 C    3.868 --   135 C    2.427    83 C    1.196   133 C    0.184
   137  27 Co   3.018 --   179 N    0.628   157 N    0.628   143 N    0.626
                           164 N    0.625
   138   6 C    3.921 --   139 C    1.254   178 C    1.253   128 C    1.200
   139   6 C    3.901 --   138 C    1.254   143 N    1.231   140 C    1.192
   140   6 C    3.958 --   141 C    1.633   139 C    1.192   180 H    0.973
   141   6 C    3.959 --   140 C    1.633   142 C    1.184   181 H    0.973
   142   6 C    3.914 --   144 C    1.318   143 N    1.199   141 C    1.184
   143   7 N    3.339 --   139 C    1.231   142 C    1.199   137 Co   0.626
   144   6 C    3.924 --   154 C    1.323   142 C    1.318   145 C    1.037
   145   6 C    3.985 --   153 C    1.382   146 C    1.382   144 C    1.037
   146   6 C    3.984 --   147 C    1.463   145 C    1.382   182 H    0.971
                           152 C    0.102
   147   6 C    3.987 --   146 C    1.463   148 C    1.388   183 H    0.964
                           153 C    0.102
   148   6 C    3.941 --   147 C    1.388   152 C    1.388   149 N    0.920
   149   7 N    3.866 --   150 O    1.455   151 O    1.455   148 C    0.920
   150   8 O    1.830 --   149 N    1.455   151 O    0.252
   151   8 O    1.830 --   149 N    1.455   150 O    0.252
   152   6 C    3.987 --   153 C    1.464   148 C    1.388   184 H    0.964
                           146 C    0.102
   153   6 C    3.984 --   152 C    1.464   145 C    1.382   185 H    0.971
                           147 C    0.102
   154   6 C    3.915 --   144 C    1.323   157 N    1.195   155 C    1.182
   155   6 C    3.958 --   156 C    1.635   154 C    1.182   186 H    0.973
   156   6 C    3.958 --   155 C    1.635   158 C    1.191   187 H    0.973
   157   7 N    3.338 --   158 C    1.234   154 C    1.195   137 Co   0.628
   158   6 C    3.900 --   159 C    1.252   157 N    1.234   156 C    1.191
   159   6 C    3.921 --   160 C    1.253   158 C    1.252   129 C    1.203
   160   6 C    3.901 --   159 C    1.253   164 N    1.232   161 C    1.192
   161   6 C    3.959 --   162 C    1.634   160 C    1.192   188 H    0.973
   162   6 C    3.958 --   161 C    1.634   163 C    1.184   189 H    0.973
   163   6 C    3.915 --   165 C    1.320   164 N    1.198   162 C    1.184
   164   7 N    3.338 --   160 C    1.232   163 C    1.198   137 Co   0.625
   165   6 C    3.924 --   175 C    1.322   163 C    1.320   166 C    1.037
   166   6 C    3.985 --   174 C    1.383   167 C    1.382   165 C    1.037
   167   6 C    3.985 --   168 C    1.464   166 C    1.382   190 H    0.971
                           173 C    0.102
   168   6 C    3.987 --   167 C    1.464   169 C    1.388   191 H    0.964
                           174 C    0.102
   169   6 C    3.941 --   173 C    1.388   168 C    1.388   170 N    0.920
   170   7 N    3.866 --   172 O    1.455   171 O    1.455   169 C    0.920
   171   8 O    1.830 --   170 N    1.455   172 O    0.252
   172   8 O    1.830 --   170 N    1.455   171 O    0.252
   173   6 C    3.987 --   174 C    1.463   169 C    1.388   192 H    0.964
                           167 C    0.102
   174   6 C    3.986 --   173 C    1.463   166 C    1.383   193 H    0.971
                           168 C    0.102
   175   6 C    3.915 --   165 C    1.322   179 N    1.197   176 C    1.183
   176   6 C    3.959 --   177 C    1.634   175 C    1.183   194 H    0.973
   177   6 C    3.958 --   176 C    1.634   178 C    1.191   195 H    0.973
   178   6 C    3.901 --   138 C    1.253   179 N    1.233   177 C    1.191
   179   7 N    3.338 --   178 C    1.233   175 C    1.197   137 Co   0.628
   180   1 H    1.000 --   140 C    0.973
   181   1 H    1.002 --   141 C    0.973
   182   1 H    1.004 --   146 C    0.971
   183   1 H    1.006 --   147 C    0.964
   184   1 H    1.006 --   152 C    0.964
   185   1 H    1.004 --   153 C    0.971
   186   1 H    1.002 --   155 C    0.973
   187   1 H    1.000 --   156 C    0.973
   188   1 H    1.000 --   161 C    0.973
   189   1 H    1.002 --   162 C    0.973
   190   1 H    1.003 --   167 C    0.971
   191   1 H    1.006 --   168 C    0.964
   192   1 H    1.006 --   173 C    0.964
   193   1 H    1.004 --   174 C    0.971
   194   1 H    1.002 --   176 C    0.973
   195   1 H    1.000 --   177 C    0.973
 ---------------------------------------------------------------------------

           -------------------------------------------------
          | TOTAL ENERGY             -387.003867018770 Eh   |
          | GRADIENT NORM               0.000497457197 Eh/α |
          | HOMO-LUMO GAP               0.000596685196 eV   |
           -------------------------------------------------

 * finished run on 2022/07/30 at 02:21:11.384
