   * xtb version 6.5.1 (b24c23e) compiled by 'conda@728c89f4b128' on 2022-07-12
          program call               : xtb Fe_Ph2Me_C8_3.xyz --gfn 1 --opt -T 48

   ID    Z sym.   atoms
    1   26 Fe     1, 69, 153
    2    6 C      2-6, 8-11, 13-31, 34-41, 70-74, 76-79, 81-99, 102-109,
                  137-152, 154-158, 160-163, 165-183, 186-193
    3    7 N      7, 12, 32, 33, 75, 80, 100, 101, 159, 164, 184, 185
    4    1 H      42-68, 110-136, 194-219

          :  Hamiltonian                  GFN1-xTB          :
 * total energy  :  -351.2462289 Eh     change       -0.6109588E-08 Eh
 * total energy  :  -351.6990611 Eh     change       -0.4528321E+00 Eh
 * total energy  :  -351.8418093 Eh     change       -0.1427482E+00 Eh
 * total energy  :  -351.9194047 Eh     change       -0.7759543E-01 Eh
 * total energy  :  -351.9874769 Eh     change       -0.6807224E-01 Eh
 * total energy  :  -352.0578215 Eh     change       -0.7034459E-01 Eh
 * total energy  :  -352.1165390 Eh     change       -0.5871751E-01 Eh
 * total energy  :  -352.1495812 Eh     change       -0.3304221E-01 Eh
 * total energy  :  -352.1758851 Eh     change       -0.2630387E-01 Eh
 * total energy  :  -352.1941905 Eh     change       -0.1830535E-01 Eh
 * total energy  :  -352.2812477 Eh     change       -0.7560698E-04 Eh
 * total energy  :  -352.2812422 Eh     change        0.5442901E-05 Eh
 * total energy  :  -352.2812658 Eh     change       -0.2356004E-04 Eh
 * total energy  :  -352.2812744 Eh     change       -0.8599456E-05 Eh
 * total energy  :  -352.2812838 Eh     change       -0.9430185E-05 Eh
 * total energy  :  -352.2813124 Eh     change       -0.2857394E-04 Eh
 * total energy  :  -352.2813291 Eh     change       -0.1675615E-04 Eh
 * total energy  :  -352.2813364 Eh     change       -0.7279725E-05 Eh
 * total energy  :  -352.2813412 Eh     change       -0.4765922E-05 Eh
   *** GEOMETRY OPTIMIZATION CONVERGED AFTER 83 ITERATIONS ***

 final structure:
================
219
 xtb: 6.5.1 (b24c23e)
Fe          25.87468898779074        0.08391185183519       -0.24832928813767
C           22.52800329748424        0.26369064134040       -0.72312349595771
C           23.16161083515115        1.37221474932538       -0.19943811577842
C           22.47527517036637        2.56799244313732        0.18629251293800
C           23.41589575320459        3.42029416968480        0.65748747756167
C           24.68013636813702        2.75503384300548        0.52813749621296
N           24.50562354960061        1.48813776478539        0.03937764031227
C           25.90522226831173        3.35269752316978        0.80362393856965
C           27.11695085789002        2.70196997213504        0.61794096124680
C           28.39246673959325        3.34005824890014        0.75257395690085
C           29.33014483013957        2.40231818333356        0.47525765746980
N           27.27815056724762        1.38654115413835        0.25444486254232
C           28.62570799819201        1.19275549504635        0.18577624114019
C           29.26910810139842       -0.03058822951550       -0.04231652549196
C           28.57486195452145       -1.23037039107128       -0.24571975162509
C           29.22470598003761       -2.49730001164414       -0.37136357163561
C           28.24878154811149       -3.41560290820657       -0.56984895627839
C           27.00614412212240       -2.70228616536538       -0.58175930878720
C           25.78994154451437       -3.28430664068389       -0.90604987297041
C           25.75501503527071       -4.74461035055612       -1.16895503788058
C           25.49339304835592       -5.22512937737202       -2.44962804154071
C           25.46912693382267       -6.59465134357745       -2.69781837930048
C           25.17643493112661       -7.10458197775897       -4.08304058781122
C           25.69991673182790       -7.48051022574270       -1.65135804923185
C           25.96085873724964       -7.01413146279450       -0.36489939270475
C           26.21688897233782       -7.99070954298338        0.75094849614168
C           25.99224487852599       -5.64483736384678       -0.13059275219457
C           24.61384209818232       -2.55322260894266       -1.03472721001336
C           23.35875171109200       -3.11709483942595       -1.43956738605771
C           22.45424182797701       -2.10981159864189       -1.42602742940204
C           23.15114575650156       -0.93889604167821       -0.98577190521190
N           24.47359795004876       -1.21982236997622       -0.76155272092171
N           27.22350479551565       -1.36295520296405       -0.35778860553939
C           25.92745344835866        4.76141822011451        1.26564440194121
C           25.43677136753034        5.77961667295038        0.44894829483635
C           25.46676218914735        7.10244341097584        0.87574739851084
C           24.96232958732639        8.20322770398392       -0.01773561563791
C           25.98910517122453        7.40263688335592        2.13077297718243
C           26.48275280860564        6.39771919602057        2.95681325483288
C           27.02637696933248        6.73054089478524        4.31992076882105
C           26.45189720169692        5.07820161525811        2.51759630653716
H           21.46007588458668        0.32855882022227       -0.89952892100399
H           21.40918006592330        2.71274785762582        0.11109383313729
H           23.27881497803197        4.41216094697772        1.05659512561347
H           28.53997853359100        4.37636275665184        1.00935787872901
H           30.40346753080919        2.50352516981984        0.47141609939461
H           30.29055523452985       -2.64836360346450       -0.31201535191065
H           28.35081319816159       -4.47802224361942       -0.71997252239869
H           25.32648273552611       -4.52401546307527       -3.25996862791894
H           25.55236170046931       -8.11946182451405       -4.21238753421283
H           24.09773433182859       -7.11513657168920       -4.25491666828083
H           25.63172836920307       -6.46055250225982       -4.83598302512006
H           25.67924953336527       -8.54935093281386       -1.83791831783446
H           26.25942353845121       -7.48198175173495        1.71375753934899
H           25.42891666308048       -8.74449418276044        0.78669274190677
H           27.16663147641621       -8.50454293957146        0.58886248539336
H           26.18823454576757       -5.26668556916890        0.86667922018046
H           23.20198559084821       -4.15257085988435       -1.69477908704916
H           21.40387453704340       -2.14141621887835       -1.66869611011386
H           25.04768860887744        5.53466176278665       -0.53324392579823
H           24.45729732959468        8.97373297292325        0.56562388919580
H           24.26930251003125        7.81339814263796       -0.76325964580439
H           25.79999130238240        8.66996137098956       -0.54094023220842
H           26.01342550902696        8.43394124667272        2.46762022520052
H           26.22326756193504        6.69100621655889        5.05939993132267
H           27.45133826949437        7.73438400498356        4.33409839372242
H           27.79528374078002        6.01671568781876        4.61607871912666
H           26.82477807893359        4.28439995686347        3.15552198036907
Fe          62.96988356366406        0.10974775431424       -0.09767213686531
C           66.31971453933136        0.55034268865201       -0.44752177947567
C           65.67182122544077       -0.24016782326865       -1.37430744931711
C           66.34562506157022       -0.94433626322298       -2.42291097555206
C           65.39392713286199       -1.61612356970351       -3.11271137642750
C           64.13579304039801       -1.29776660203891       -2.50180917584660
N           64.32266925698849       -0.47192291707669       -1.42509703943251
C           62.90746508103237       -1.73259159412546       -2.98532184056440
C           61.69944598163546       -1.38704470704017       -2.39574198455528
C           60.42140216302642       -1.73025536717195       -2.94468405293432
C           59.48637984461544       -1.21654997240684       -2.11027332702910
N           61.54275567908862       -0.65148474834488       -1.24501980087357
C           60.19466463202369       -0.56885902731350       -1.05104755721743
C           59.55724922051265        0.01334946922528        0.04906740696913
C           60.25627095651833        0.57939747388650        1.11996266024547
C           59.61445035489282        1.08192060503104        2.29414427691097
C           60.59575019647715        1.54658251290483        3.10385693670609
C           61.83428008600232        1.33806700812850        2.41441424741592
C           63.05823647268719        1.79317099725389        2.88265263537650
C           63.10034151152376        2.45818431496207        4.20937010548069
C           63.38357548051255        3.81787772570786        4.30979348401187
C           63.41384683427840        4.44189989379211        5.55383743287265
C           63.72899659368920        5.91004981025338        5.65321152049372
C           63.16782763739763        3.69173168250716        6.69828903772465
C           62.88610794854107        2.33013162294156        6.61305907709355
C           62.61394139410609        1.53887949907929        7.86379503811189
C           62.84867463214015        1.71976036606677        5.36536012296558
C           64.23708602748198        1.67701721895053        2.15641005309810
C           65.50199877077242        2.18846404698676        2.59866063400993
C           66.40852470616967        1.87037606157152        1.64508680427825
C           65.70232825541365        1.14167924522581        0.63483672735551
N           64.37120389836366        1.04840411502213        0.94699586897177
N           61.60861217756391        0.73804030705413        1.19813642292718
C           62.87838534201603       -2.57308697191765       -4.20728870663224
C           63.33757204838319       -2.06495262602594       -5.42182587632253
C           63.30172130585999       -2.84553491313714       -6.57180656690059
C           63.77136320763861       -2.28608855042132       -7.88748261019512
C           62.80556994062009       -4.14421391302047       -6.49951428066896
C           62.34465243517435       -4.66545628567753       -5.29466109632076
C           61.83000972987357       -6.07772462001605       -5.22265536516371
C           62.38133817607670       -3.87394605976905       -4.15129206734025
H           67.39089458976363        0.68055250560066       -0.55322998258539
H           67.41186717192366       -0.92723732023589       -2.58422505718072
H           65.51955328594197       -2.27153515910070       -3.95924701192923
H           60.27006151529688       -2.28290785279366       -3.85749125819011
H           58.41232204712633       -1.26939958479630       -2.18722227199744
H           58.54970723920486        1.07010397058692        2.46313510381750
H           60.50028672734552        2.00642998223775        4.07395770767929
H           63.56330729836556        4.39445999554254        3.40906515759558
H           63.36026340600098        6.32529810135977        6.59111752628199
H           64.81005603072512        6.06172203483562        5.61375024407325
H           63.28093690472452        6.45822491446851        4.82389563152915
H           63.19303868226296        4.17196390957432        7.67112566627253
H           62.56477914005524        0.47172800691881        7.64831731778718
H           63.39717846849664        1.71204774764519        8.60330163970581
H           61.66282516132424        1.84717019123951        8.30278680579524
H           62.63597893803771        0.65955933175741        5.28327328170642
H           65.66269297927595        2.71684119885530        3.52440635464618
H           67.46589570168969        2.08138660804538        1.62031610966146
H           63.70747458550873       -1.04655246961929       -5.46793429962718
H           64.27173989144906       -3.05423292197352       -8.47790224055075
H           64.45899437419796       -1.45438657152464       -7.73412583305791
H           62.91683836765097       -1.92118920067811       -8.46187496571982
H           62.77642710348006       -4.75667257186904       -7.39489386589743
H           62.64955616426072       -6.75965513634009       -4.98450272094779
H           61.40039169182655       -6.38376514532634       -6.17673336667739
H           61.07146000363643       -6.17519193163204       -4.44572067548647
H           62.03386796910659       -4.27154755029199       -3.20403050665684
C           30.66831239297512       -0.06023147649885       -0.02787963985769
C           31.89498783393583       -0.07607911589713       -0.02149959700450
C           33.23369472950522       -0.08672104994244       -0.01284903018577
C           34.46680834364306       -0.09093101514601       -0.00558874122602
C           35.80069864736957       -0.09070932331465        0.00168543644206
C           37.03387171824307       -0.09001915922396        0.00505956716384
C           38.37242656899026       -0.08602622466435        0.00824982765523
C           39.59936347386428       -0.08199855377971        0.00852346065198
C           49.22236487145388       -0.03657464952021        0.13715261598009
C           50.44754415423714       -0.03384610291723        0.15562779928166
C           51.78902181228560       -0.02999668553568        0.16815018143901
C           53.02032704550456       -0.02700584779176        0.17289507055477
C           54.35736725655030       -0.02191591457483        0.16717591252761
C           55.58843836560802       -0.01599589029596        0.15190640062057
C           56.93016442893440       -0.00952337091945        0.12734653215072
C           58.15468845548960       -0.00248341574068        0.09540248666917
Fe          44.41066894825814       -0.06731418772049       -0.00232574830276
C           40.99802925977743       -0.07707530700396        0.00889573066838
C           41.66594871844011        1.15415782481349        0.05237228092697
C           40.99178662414524        2.41239487543250        0.11852770563751
C           41.94305836924281        3.36899315863161       -0.01390043813264
C           43.19406126958060        2.68856432486390       -0.16466946563297
N           43.01159951343169        1.32986718802748       -0.07270123208573
C           44.39911234596151        3.32558564598769       -0.43035899384898
C           45.61173835800190        2.65008211098097       -0.50124823545600
C           46.86269136663205        3.27693597452859       -0.80560232146782
C           47.82201636962918        2.33287478807117       -0.64359259387237
N           45.80253380452719        1.32242568083898       -0.20760399824908
C           47.15203152976003        1.13197660383356       -0.25581756577465
C           47.82070596917374       -0.04372680865004        0.10561949114144
C           47.14883111226062       -1.23049369875256        0.42082196801784
C           47.81554263636865       -2.43345227471503        0.80821235384604
C           46.86410496177638       -3.39583095295051        0.88642160107591
C           45.62082831797307       -2.77584223307939        0.53944004953796
C           44.42092224543418       -3.46374478969373        0.39941532338227
C           44.42926443595965       -4.93760203076656        0.55610018474116
C           43.68688746348158       -5.53969507897355        1.57069008710874
C           43.69367830108189       -6.92209022135761        1.72515610730689
C           42.91343227807890       -7.56308515593171        2.84074248846426
C           44.44411324473038       -7.70172657003821        0.85065463422082
C           45.18622737905201       -7.11546444484002       -0.17099770833732
C           46.00245750530951       -7.97119991045559       -1.10148248442744
C           45.17980196359422       -5.73214177350610       -0.31001652323147
C           43.21515431750834       -2.83091636354774        0.12734605526884
C           41.97183843024350       -3.51646008928653       -0.05995077019034
C           41.01215098735547       -2.56419657281343       -0.16032904345650
C           41.67471613388186       -1.30329532567415       -0.04810782332707
N           43.01991132129810       -1.47127087909536        0.08728306325353
N           45.80513580257916       -1.43578903015890        0.30471253840609
C           44.39233335434116        4.79267152813187       -0.64258126971990
C           45.09575768650112        5.63161957990623        0.21965990434029
C           45.08740426515948        7.00951165424602        0.02664904114780
C           45.85571901233350        7.90666254252159        0.95888708875843
C           44.37879079479006        7.54305145922484       -1.04485696095549
C           43.67398331175288        6.71741629852482       -1.91680898023680
C           42.93079291021628        7.30743441363790       -3.08458737454463
C           43.68030914227295        5.34306786025559       -1.70801466932011
H           39.92774604627047        2.53261550122315        0.24371518603482
H           41.81939613854293        4.43967115284508       -0.00877181834573
H           46.98164421206383        4.30553941845930       -1.10467155782295
H           48.88834219401930        2.42655942873843       -0.77202171200982
H           48.87519867808584       -2.51686137085724        0.98843226672067
H           46.98334732104085       -4.43254376824428        1.15590471401831
H           43.11412835338207       -4.92013378181357        2.25198745419866
H           42.61487868574087       -8.57700428339380        2.57395031082318
H           43.52985659849922       -7.61581779302482        3.74110075993441
H           42.02152321791180       -6.98145067760479        3.07468599166912
H           44.44876139446912       -8.78097384361320        0.96388339506434
H           46.18769365230370       -7.45536040921378       -2.04363063676578
H           45.49286432232913       -8.91275009693018       -1.30814530733713
H           46.96688861981833       -8.20194063646968       -0.64330547338624
H           45.74402015752000       -5.26347872697752       -1.10881659839587
H           41.85808888955810       -4.58711283135573       -0.10905139516573
H           39.95021143652318       -2.68943838600527       -0.29800690299591
H           45.63494314360442        5.20433673574626        1.05797981809068
H           45.45525859429178        8.92029143986267        0.94250365800272
H           46.90378843182093        7.94853385810507        0.65385615668316
H           45.81636285518145        7.52743631053078        1.98040095904747
H           44.37173313790376        8.61677773503765       -1.20189658627264
H           42.49369827479135        8.27030926121544       -2.81867810147987
H           42.13743827598020        6.63929151219659       -3.41961386432842
H           43.61783630762872        7.46666694458958       -3.91882608610402
H           43.14257223545969        4.68778508446013       -2.38439106355969

          :  Hamiltonian                  GFN1-xTB          :
         :: total energy            -352.281341194083 Eh    ::
         :: gradient norm              0.000380947932 Eh/a0 ::
         :: HOMO-LUMO gap              0.076539401588 eV    ::
         :: SCC energy              -358.293515315050 Eh    ::
         :: repulsion energy           6.198841216331 Eh    ::

    * Orbital Energies and Occupations

         #    Occupation            Energy/Eh            Energy/eV
      -------------------------------------------------------------
         1        2.0000           -0.7696544             -20.9434
       ...           ...                  ...                  ...
       318        2.0000           -0.3937275             -10.7139
       319        1.9999           -0.3918407             -10.6625
       320        1.9963           -0.3878907             -10.5550
       321        1.9927           -0.3872499             -10.5376
       322        1.9907           -0.3870170             -10.5313
       323        1.9627           -0.3856821             -10.4949
       324        1.9596           -0.3856048             -10.4928
       325        1.9526           -0.3854499             -10.4886
       326        1.9496           -0.3853915             -10.4870
       327        1.9491           -0.3853802             -10.4867
       328        1.9341           -0.3851278             -10.4799
       329        1.9329           -0.3851102             -10.4794
       330        1.5815           -0.3831811             -10.4269 (HOMO)
       331        0.3274           -0.3803683             -10.3503 (LUMO)
       332        0.2572           -0.3800999             -10.3430
       333        0.2139           -0.3799014             -10.3376
       334                         -0.3425243              -9.3206
       335                         -0.3327954              -9.0558
       336                         -0.3309358              -9.0052
       337                         -0.3272476              -8.9049
       338                         -0.3257805              -8.8649
       339                         -0.3239874              -8.8161
       340                         -0.3111392              -8.4665
       341                         -0.3058816              -8.3235
       ...                                ...                  ...
       731                          1.6023846              43.6031
      -------------------------------------------------------------
                  HL-Gap            0.0028128 Eh            0.0765 eV

Wiberg/Mayer (AO) data.
largest (>0.10) Wiberg bond orders for each atom

     #   Z sym  total        # sym  WBO       # sym  WBO       # sym  WBO
 ---------------------------------------------------------------------------
     1  26 Fe   3.148 --     7 N    0.669    32 N    0.665    33 N    0.663
                            12 N    0.660
     2   6 C    3.922 --    31 C    1.364     3 C    1.361    42 H    0.970
     3   6 C    3.925 --     2 C    1.361     7 N    1.211     4 C    1.174
     4   6 C    3.959 --     5 C    1.648     3 C    1.174    43 H    0.975
     5   6 C    3.962 --     4 C    1.648     6 C    1.176    44 H    0.973
     6   6 C    3.920 --     8 C    1.314     7 N    1.224     5 C    1.176
     7   7 N    3.381 --     6 C    1.224     3 C    1.211     1 Fe   0.669
     8   6 C    3.926 --     9 C    1.332     6 C    1.314    34 C    1.026
     9   6 C    3.917 --     8 C    1.332    12 N    1.201    10 C    1.180
    10   6 C    3.958 --    11 C    1.637     9 C    1.180    45 H    0.973
    11   6 C    3.960 --    10 C    1.637    13 C    1.189    46 H    0.973
    12   7 N    3.379 --    13 C    1.246     9 C    1.201     1 Fe   0.660
    13   6 C    3.904 --    14 C    1.248    12 N    1.246    11 C    1.189
    14   6 C    3.923 --    13 C    1.248    15 C    1.246   137 C    1.209
    15   6 C    3.904 --    33 N    1.249    14 C    1.246    16 C    1.188
    16   6 C    3.960 --    17 C    1.639    15 C    1.188    47 H    0.973
    17   6 C    3.957 --    16 C    1.639    18 C    1.179    48 H    0.973
    18   6 C    3.917 --    19 C    1.338    33 N    1.197    17 C    1.179
    19   6 C    3.925 --    18 C    1.338    28 C    1.312    20 C    1.020
    20   6 C    3.988 --    21 C    1.404    27 C    1.392    19 C    1.020
                            24 C    0.104
    21   6 C    3.986 --    22 C    1.410    20 C    1.404    49 H    0.972
                            25 C    0.104
    22   6 C    3.988 --    24 C    1.423    21 C    1.410    23 C    1.020
                            27 C    0.103
    23   6 C    3.995 --    22 C    1.020    50 H    0.984    52 H    0.981
                            51 H    0.971
    24   6 C    3.989 --    22 C    1.423    25 C    1.409    53 H    0.972
                            20 C    0.104
    25   6 C    3.988 --    27 C    1.423    24 C    1.409    26 C    1.020
                            21 C    0.104
    26   6 C    3.995 --    25 C    1.020    54 H    0.985    55 H    0.978
                            56 H    0.973
    27   6 C    3.987 --    25 C    1.423    20 C    1.392    57 H    0.972
                            22 C    0.103
    28   6 C    3.920 --    19 C    1.312    32 N    1.227    29 C    1.176
    29   6 C    3.962 --    30 C    1.649    28 C    1.176    58 H    0.973
    30   6 C    3.959 --    29 C    1.649    31 C    1.173    59 H    0.975
    31   6 C    3.925 --     2 C    1.364    32 N    1.209    30 C    1.173
    32   7 N    3.380 --    28 C    1.227    31 C    1.209     1 Fe   0.665
    33   7 N    3.380 --    15 C    1.249    18 C    1.197     1 Fe   0.663
    34   6 C    3.988 --    41 C    1.398    35 C    1.394     8 C    1.026
                            38 C    0.103
    35   6 C    3.986 --    36 C    1.419    34 C    1.394    60 H    0.971
                            39 C    0.103
    36   6 C    3.988 --    35 C    1.419    38 C    1.413    37 C    1.020
                            41 C    0.103
    37   6 C    3.995 --    36 C    1.020    62 H    0.984    61 H    0.981
                            63 H    0.971
    38   6 C    3.988 --    39 C    1.417    36 C    1.413    64 H    0.972
                            34 C    0.103
    39   6 C    3.988 --    38 C    1.417    41 C    1.415    40 C    1.020
                            35 C    0.103
    40   6 C    3.995 --    39 C    1.020    66 H    0.983    67 H    0.983
                            65 H    0.971
    41   6 C    3.986 --    39 C    1.415    34 C    1.398    68 H    0.972
                            36 C    0.103
    42   1 H    1.001 --     2 C    0.970
    43   1 H    0.998 --     4 C    0.975
    44   1 H    1.005 --     5 C    0.973
    45   1 H    1.005 --    10 C    0.973
    46   1 H    1.002 --    11 C    0.973
    47   1 H    1.002 --    16 C    0.973
    48   1 H    1.005 --    17 C    0.973
    49   1 H    1.002 --    21 C    0.972
    50   1 H    1.004 --    23 C    0.984
    51   1 H    1.006 --    23 C    0.971
    52   1 H    1.004 --    23 C    0.981
    53   1 H    1.000 --    24 C    0.972
    54   1 H    1.003 --    26 C    0.985
    55   1 H    1.005 --    26 C    0.978
    56   1 H    1.005 --    26 C    0.973
    57   1 H    1.002 --    27 C    0.972
    58   1 H    1.005 --    29 C    0.973
    59   1 H    0.998 --    30 C    0.975
    60   1 H    1.003 --    35 C    0.971
    61   1 H    1.004 --    37 C    0.981
    62   1 H    1.004 --    37 C    0.984
    63   1 H    1.006 --    37 C    0.971
    64   1 H    1.000 --    38 C    0.972
    65   1 H    1.006 --    40 C    0.971
    66   1 H    1.004 --    40 C    0.983
    67   1 H    1.004 --    40 C    0.983
    68   1 H    1.002 --    41 C    0.972
    69  26 Fe   3.239 --   100 N    0.681    75 N    0.677    80 N    0.676
                           101 N    0.673
    70   6 C    3.938 --    99 C    1.365    71 C    1.361   110 H    0.970
    71   6 C    3.925 --    70 C    1.361    75 N    1.211    72 C    1.174
    72   6 C    3.959 --    73 C    1.648    71 C    1.174   111 H    0.975
    73   6 C    3.962 --    72 C    1.648    74 C    1.176   112 H    0.973
    74   6 C    3.921 --    76 C    1.318    75 N    1.221    73 C    1.176
    75   7 N    3.390 --    74 C    1.221    71 C    1.211    69 Fe   0.677
    76   6 C    3.942 --    77 C    1.331    74 C    1.318   102 C    1.024
    77   6 C    3.916 --    76 C    1.331    80 N    1.201    78 C    1.180
    78   6 C    3.959 --    79 C    1.639    77 C    1.180   113 H    0.973
    79   6 C    3.960 --    78 C    1.639    81 C    1.187   114 H    0.973
    80   7 N    3.392 --    81 C    1.240    77 C    1.201    69 Fe   0.676
    81   6 C    3.906 --    82 C    1.258    80 N    1.240    79 C    1.187
    82   6 C    3.944 --    81 C    1.258    83 C    1.257   152 C    1.191
    83   6 C    3.906 --    82 C    1.257   101 N    1.242    84 C    1.187
    84   6 C    3.960 --    85 C    1.639    83 C    1.187   115 H    0.973
    85   6 C    3.959 --    84 C    1.639    86 C    1.180   116 H    0.973
    86   6 C    3.916 --    87 C    1.334   101 N    1.200    85 C    1.180
    87   6 C    3.941 --    86 C    1.334    96 C    1.318    88 C    1.019
    88   6 C    3.988 --    89 C    1.405    95 C    1.393    87 C    1.019
                            92 C    0.104
    89   6 C    3.987 --    90 C    1.410    88 C    1.405   117 H    0.972
                            93 C    0.104
    90   6 C    3.988 --    92 C    1.423    89 C    1.410    91 C    1.020
                            95 C    0.103
    91   6 C    3.995 --    90 C    1.020   118 H    0.984   120 H    0.981
                           119 H    0.971
    92   6 C    3.989 --    90 C    1.423    93 C    1.409   121 H    0.972
                            88 C    0.104
    93   6 C    3.988 --    95 C    1.423    92 C    1.409    94 C    1.020
                            89 C    0.104
    94   6 C    3.995 --    93 C    1.020   122 H    0.985   123 H    0.978
                           124 H    0.973
    95   6 C    3.987 --    93 C    1.423    88 C    1.393   125 H    0.972
                            90 C    0.103
    96   6 C    3.920 --    87 C    1.318   100 N    1.221    97 C    1.175
    97   6 C    3.962 --    98 C    1.650    96 C    1.175   126 H    0.973
    98   6 C    3.959 --    97 C    1.650    99 C    1.173   127 H    0.975
    99   6 C    3.925 --    70 C    1.365   100 N    1.209    98 C    1.173
   100   7 N    3.391 --    96 C    1.221    99 C    1.209    69 Fe   0.681
   101   7 N    3.391 --    83 C    1.242    86 C    1.200    69 Fe   0.673
   102   6 C    3.988 --   109 C    1.398   103 C    1.395    76 C    1.024
                           106 C    0.103
   103   6 C    3.986 --   104 C    1.419   102 C    1.395   128 H    0.972
                           107 C    0.103
   104   6 C    3.988 --   103 C    1.419   106 C    1.413   105 C    1.020
                           109 C    0.104
   105   6 C    3.995 --   104 C    1.020   130 H    0.984   129 H    0.981
                           131 H    0.971
   106   6 C    3.988 --   107 C    1.417   104 C    1.413   132 H    0.972
                           102 C    0.103
   107   6 C    3.988 --   106 C    1.417   109 C    1.415   108 C    1.020
                           103 C    0.103
   108   6 C    3.995 --   107 C    1.020   134 H    0.983   135 H    0.983
                           133 H    0.971
   109   6 C    3.986 --   107 C    1.415   102 C    1.398   136 H    0.972
                           104 C    0.104
   110   1 H    1.001 --    70 C    0.970
   111   1 H    0.998 --    72 C    0.975
   112   1 H    1.005 --    73 C    0.973
   113   1 H    1.005 --    78 C    0.973
   114   1 H    1.002 --    79 C    0.973
   115   1 H    1.002 --    84 C    0.973
   116   1 H    1.005 --    85 C    0.973
   117   1 H    1.002 --    89 C    0.972
   118   1 H    1.004 --    91 C    0.984
   119   1 H    1.006 --    91 C    0.971
   120   1 H    1.004 --    91 C    0.981
   121   1 H    1.000 --    92 C    0.972
   122   1 H    1.004 --    94 C    0.985
   123   1 H    1.005 --    94 C    0.978
   124   1 H    1.005 --    94 C    0.973
   125   1 H    1.002 --    95 C    0.972
   126   1 H    1.005 --    97 C    0.973
   127   1 H    0.998 --    98 C    0.975
   128   1 H    1.003 --   103 C    0.972
   129   1 H    1.004 --   105 C    0.981
   130   1 H    1.004 --   105 C    0.984
   131   1 H    1.006 --   105 C    0.971
   132   1 H    1.000 --   106 C    0.972
   133   1 H    1.006 --   108 C    0.971
   134   1 H    1.004 --   108 C    0.983
   135   1 H    1.004 --   108 C    0.983
   136   1 H    1.002 --   109 C    0.972
   137   6 C    3.865 --   138 C    2.407    14 C    1.209   140 C    0.182
   138   6 C    3.923 --   137 C    2.407   139 C    1.366
   139   6 C    3.880 --   140 C    2.302   138 C    1.366   142 C    0.177
   140   6 C    3.914 --   139 C    2.302   141 C    1.392   137 C    0.182
   141   6 C    3.913 --   142 C    2.301   140 C    1.392   144 C    0.182
   142   6 C    3.880 --   141 C    2.301   143 C    1.367   139 C    0.177
   143   6 C    3.920 --   144 C    2.405   142 C    1.367
   144   6 C    3.864 --   143 C    2.405   154 C    1.212   141 C    0.182
   145   6 C    3.870 --   146 C    2.427   166 C    1.197   148 C    0.184
   146   6 C    3.924 --   145 C    2.427   147 C    1.350
   147   6 C    3.886 --   148 C    2.326   146 C    1.350   150 C    0.180
   148   6 C    3.917 --   147 C    2.326   149 C    1.373   145 C    0.184
   149   6 C    3.919 --   150 C    2.328   148 C    1.373   152 C    0.184
   150   6 C    3.885 --   149 C    2.328   151 C    1.347   147 C    0.180
   151   6 C    3.929 --   152 C    2.432   150 C    1.347
   152   6 C    3.870 --   151 C    2.432    82 C    1.191   149 C    0.184
   153  26 Fe   3.103 --   185 N    0.659   159 N    0.657   164 N    0.654
                           184 N    0.652
   154   6 C    3.910 --   155 C    1.246   183 C    1.244   144 C    1.212
   155   6 C    3.904 --   159 N    1.247   154 C    1.246   156 C    1.191
   156   6 C    3.959 --   157 C    1.634   155 C    1.191   194 H    0.974
   157   6 C    3.958 --   156 C    1.634   158 C    1.183   195 H    0.973
   158   6 C    3.914 --   160 C    1.326   159 N    1.202   157 C    1.183
   159   7 N    3.372 --   155 C    1.247   158 C    1.202   153 Fe   0.657
   160   6 C    3.919 --   158 C    1.326   161 C    1.319   186 C    1.027
   161   6 C    3.913 --   160 C    1.319   164 N    1.206   162 C    1.184
   162   6 C    3.959 --   163 C    1.633   161 C    1.184   196 H    0.973
   163   6 C    3.959 --   162 C    1.633   165 C    1.191   197 H    0.973
   164   7 N    3.371 --   165 C    1.242   161 C    1.206   153 Fe   0.654
   165   6 C    3.906 --   166 C    1.252   164 N    1.242   163 C    1.191
   166   6 C    3.914 --   167 C    1.254   165 C    1.252   145 C    1.197
   167   6 C    3.905 --   166 C    1.254   185 N    1.240   168 C    1.191
   168   6 C    3.959 --   169 C    1.634   167 C    1.191   198 H    0.973
   169   6 C    3.959 --   168 C    1.634   170 C    1.184   199 H    0.973
   170   6 C    3.913 --   171 C    1.318   185 N    1.207   169 C    1.184
   171   6 C    3.919 --   180 C    1.327   170 C    1.318   172 C    1.027
   172   6 C    3.988 --   173 C    1.397   179 C    1.393   171 C    1.027
                           176 C    0.102
   173   6 C    3.986 --   174 C    1.415   172 C    1.397   200 H    0.972
                           177 C    0.103
   174   6 C    3.988 --   176 C    1.417   173 C    1.415   175 C    1.020
                           179 C    0.103
   175   6 C    3.995 --   174 C    1.020   201 H    0.983   203 H    0.982
                           202 H    0.971
   176   6 C    3.988 --   174 C    1.417   177 C    1.413   204 H    0.972
                           172 C    0.102
   177   6 C    3.988 --   179 C    1.419   176 C    1.413   178 C    1.020
                           173 C    0.103
   178   6 C    3.995 --   177 C    1.020   205 H    0.984   206 H    0.981
                           207 H    0.971
   179   6 C    3.986 --   177 C    1.419   172 C    1.393   208 H    0.972
                           174 C    0.103
   180   6 C    3.914 --   171 C    1.327   184 N    1.201   181 C    1.183
   181   6 C    3.958 --   182 C    1.634   180 C    1.183   209 H    0.973
   182   6 C    3.959 --   181 C    1.634   183 C    1.191   210 H    0.974
   183   6 C    3.904 --   184 N    1.248   154 C    1.244   182 C    1.191
   184   7 N    3.370 --   183 C    1.248   180 C    1.201   153 Fe   0.652
   185   7 N    3.374 --   167 C    1.240   170 C    1.207   153 Fe   0.659
   186   6 C    3.988 --   187 C    1.398   193 C    1.392   160 C    1.027
                           190 C    0.102
   187   6 C    3.986 --   188 C    1.414   186 C    1.398   211 H    0.972
                           191 C    0.104
   188   6 C    3.988 --   190 C    1.419   187 C    1.414   189 C    1.020
                           193 C    0.103
   189   6 C    3.995 --   188 C    1.020   212 H    0.984   214 H    0.981
                           213 H    0.971
   190   6 C    3.988 --   188 C    1.419   191 C    1.412   215 H    0.972
                           186 C    0.102
   191   6 C    3.988 --   193 C    1.420   190 C    1.412   192 C    1.020
                           187 C    0.104
   192   6 C    3.995 --   191 C    1.020   217 H    0.984   216 H    0.981
                           218 H    0.971
   193   6 C    3.986 --   191 C    1.420   186 C    1.392   219 H    0.972
                           188 C    0.103
   194   1 H    1.001 --   156 C    0.974
   195   1 H    1.005 --   157 C    0.973
   196   1 H    1.005 --   162 C    0.973
   197   1 H    1.001 --   163 C    0.973
   198   1 H    1.001 --   168 C    0.973
   199   1 H    1.005 --   169 C    0.973
   200   1 H    1.003 --   173 C    0.972
   201   1 H    1.004 --   175 C    0.983
   202   1 H    1.006 --   175 C    0.971
   203   1 H    1.004 --   175 C    0.982
   204   1 H    1.000 --   176 C    0.972
   205   1 H    1.004 --   178 C    0.984
   206   1 H    1.004 --   178 C    0.981
   207   1 H    1.006 --   178 C    0.971
   208   1 H    1.003 --   179 C    0.972
   209   1 H    1.005 --   181 C    0.973
   210   1 H    1.001 --   182 C    0.974
   211   1 H    1.002 --   187 C    0.972
   212   1 H    1.004 --   189 C    0.984
   213   1 H    1.006 --   189 C    0.971
   214   1 H    1.004 --   189 C    0.981
   215   1 H    1.000 --   190 C    0.972
   216   1 H    1.004 --   192 C    0.981
   217   1 H    1.004 --   192 C    0.984
   218   1 H    1.006 --   192 C    0.971
   219   1 H    1.003 --   193 C    0.972
 ---------------------------------------------------------------------------

           -------------------------------------------------
          | TOTAL ENERGY             -352.281341194083 Eh   |
          | GRADIENT NORM               0.000380947932 Eh/α |
          | HOMO-LUMO GAP               0.076539401588 eV   |
           -------------------------------------------------

 * finished run on 2022/07/29 at 19:23:28.974
