   * xtb version 6.5.1 (b24c23e) compiled by 'conda@728c89f4b128' on 2022-07-12
          program call               : xtb DHP_C4_2.xyz --gfn 1 --opt -T 48

   ID    Z sym.   atoms
    1    6 C      1-5, 7-10, 12-16, 18-23, 25-28, 30-35, 60-64, 66-69, 71-75,
                  77-82, 84-87, 89-94, 119-122
    2    7 N      6, 11, 17, 24, 29, 36, 65, 70, 76, 83, 88, 95
    3    1 H      37-59, 96-118
########################################################################
[WARNING] Please study the warnings concerning your input carefully
-1- prog_main_parseArguments: Unknown option '-T' provided
########################################################################

          :  Hamiltonian                  GFN1-xTB          :
 * total energy  :  -197.7692728 Eh     change       -0.3245077E-08 Eh
 * total energy  :  -197.9988388 Eh     change       -0.2295660E+00 Eh
 * total energy  :  -198.0759579 Eh     change       -0.7711908E-01 Eh
 * total energy  :  -198.1031444 Eh     change       -0.2718646E-01 Eh
 * total energy  :  -198.1145473 Eh     change       -0.1140295E-01 Eh
 * total energy  :  -198.1220499 Eh     change       -0.7502591E-02 Eh
 * total energy  :  -198.1245699 Eh     change       -0.2519985E-02 Eh
 * total energy  :  -198.1280094 Eh     change       -0.3439517E-02 Eh
 * total energy  :  -198.1297951 Eh     change       -0.1785681E-02 Eh
 * total energy  :  -198.1315434 Eh     change       -0.1748307E-02 Eh
 * total energy  :  -198.1404911 Eh     change       -0.2472667E-04 Eh
 * total energy  :  -198.1405256 Eh     change       -0.3452482E-04 Eh
 * total energy  :  -198.1405400 Eh     change       -0.1441737E-04 Eh
 * total energy  :  -198.1405722 Eh     change       -0.3216162E-04 Eh
 * total energy  :  -198.1405877 Eh     change       -0.1550177E-04 Eh
 * total energy  :  -198.1405984 Eh     change       -0.1074012E-04 Eh
 * total energy  :  -198.1406113 Eh     change       -0.1291683E-04 Eh
 * total energy  :  -198.1406204 Eh     change       -0.9078992E-05 Eh
 * total energy  :  -198.1406252 Eh     change       -0.4840103E-05 Eh
   *** GEOMETRY OPTIMIZATION CONVERGED AFTER 44 ITERATIONS ***

 final structure:
================
122
 xtb: 6.5.1 (b24c23e)
C           10.57843507624171        0.07356511016791        0.10474883303523
C           11.18114448746466        1.25846196842580        0.50701267962104
C           10.52187447986335        2.44061306648219        0.94689793910772
C           11.47756069018719        3.37534268873679        1.23112196956764
C           12.75193423802645        2.79731232886511        0.96740859717551
N           12.52201150003261        1.51836285569844        0.54363728589786
C           14.01043537412692        3.38818270940677        1.12478423079678
C           14.03570690490712        4.80592458967745        1.56148475813426
C           13.48242553775498        5.77940411152162        0.82270309518391
C           13.48413786049811        7.22289642865976        1.25483648176695
N           14.46854584058173        7.45640179875131        2.31468295515526
C           14.85104759584437        6.43515666950990        3.14573908212320
C           14.69555073074556        5.14102656214214        2.81533097607075
C           15.22889260999581        2.74203765572986        0.90163178983643
C           16.52320813790908        3.38466015842949        1.03746169654039
C           17.44863852287505        2.44845479202796        0.74136853239257
N           15.38949213091422        1.44677451499418        0.51299242693188
C           16.71812231153406        1.23911243819403        0.41475733899013
C           17.36061121520505        0.03816915815536        0.05195828135751
C           16.73139356015431       -1.16309790473483       -0.32827210216176
C           17.38350461371083       -2.37181195436124       -0.68808067799390
C           16.42239518736230       -3.28971140468646       -1.01100976446900
C           15.15292462533422       -2.66674107726715       -0.86249953713709
N           15.39158009765553       -1.38470313166617       -0.44193065510031
C           13.89521464834665       -3.24437088948351       -1.07066746745110
C           13.88109296775286       -4.64606298703082       -1.55354660458335
C           13.31284136203063       -5.63267535128073       -0.84419922565771
C           13.27828313861345       -7.05910552106659       -1.32764197773445
N           14.25356122413396       -7.27876469801631       -2.39915054257314
C           14.65337416815371       -6.23816777836842       -3.19749218611287
C           14.52806431049625       -4.95315387820196       -2.82198826711402
C           12.67553064542762       -2.59504885393939       -0.85494558870427
C           11.37286173626116       -3.18763893464730       -1.11393939672723
C           10.45541418639114       -2.25991540126381       -0.77289121699768
C           11.19628860195306       -1.09537437752936       -0.32195131477437
N           12.52905595069008       -1.33008869395756       -0.39191010165604
H            9.49305491292061        0.07221788894948        0.12147755834477
H            9.45227144774972        2.54723954892465        1.03473786188448
H           11.32057107851469        4.37582896620706        1.60043997365560
H           13.25229261964930        0.86019007884833        0.29312344156612
H           12.99321659884925        5.57201513307233       -0.12195892558944
H           12.47591078382640        7.51955220945612        1.60079847638646
H           13.73940498956616        7.87172825674174        0.40618758200536
H           14.40652316370525        8.37302116786237        2.73376071383867
H           15.36446638306964        6.75120612565972        4.04826737831995
H           15.04866455714433        4.34835506427955        3.45943176020604
H           16.68026047710530        4.41452700126402        1.31476925233698
H           18.52275801480025        2.54364351665222        0.73003449487668
H           18.45238022646579       -2.51262071076155       -0.69308341335456
H           16.57536059560461       -4.31114846306580       -1.31921648202617
H           14.66454520997251       -0.70703147772199       -0.23746902444223
H           12.83527854177455       -5.44750683904432        0.11081926471055
H           12.26225179994880       -7.31871244728344       -1.67995302862250
H           13.52066948023834       -7.74368428927238       -0.50376668173170
H           14.16617400673267       -8.17786641296789       -2.85056839373910
H           15.15455536774089       -6.53377308420973       -4.11374131474856
H           14.89309548673820       -4.14707950352810       -3.44261282897861
H           11.20718402835804       -4.17508595921333       -1.51386331127420
H            9.37949300551712       -2.32423579320116       -0.82196185137346
C           30.74937253562362       -0.11703150811603        0.04579991507738
C           30.14641202119891       -1.33609996084894       -0.23593116172949
C           30.80494817012347       -2.57284147861604       -0.48559683249715
C           29.84858000175040       -3.51684130240590       -0.73484743579257
C           28.57455822444267       -2.88618174440643       -0.65277104751927
N           28.80528667123975       -1.57589716065907       -0.33972393747497
C           27.31570886552145       -3.47099440824488       -0.82876999687339
C           27.29004492260417       -4.90624399015716       -1.20418353476509
C           27.83965280908965       -5.34401196440847       -2.34684937761514
C           27.83775792546423       -6.79864261971862       -2.73966119438885
N           26.85578491834080       -7.55583480324806       -1.95916893568476
C           26.47775221830587       -7.12609003047674       -0.71317577090114
C           26.63393918984645       -5.85199870408956       -0.31266789404755
C           26.09742062721059       -2.80422053860813       -0.67760928529195
C           24.80307913950707       -3.42229210603851       -0.89994010187295
C           23.87762951804379       -2.47044916199719       -0.65905022492649
N           25.93678044818041       -1.49828115092196       -0.32646346385484
C           24.60817392320958       -1.27009960481715       -0.30064940624987
C           23.96565776196665       -0.05804418894662        0.02299490657282
C           24.59507291563186        1.16317171559032        0.33258687869097
C           23.94364242611312        2.38042247984187        0.66367010794990
C           24.90533741720240        3.32998213741049        0.87349044494027
C           26.17450385379509        2.72141621856065        0.67201916822832
N           25.93507674410197        1.41047239858772        0.35339280927156
C           27.43251071164131        3.32115566424160        0.80021646319124
C           27.44689055077254        4.76659542215766        1.13005088300307
C           28.01285913935138        5.22967392050932        2.25460808670846
C           28.04671938143261        6.69630352572051        2.59738531112393
N           27.07243186933091        7.44839152582467        1.80197900269756
C           26.67555345596300        6.98665725629871        0.57341326904239
C           26.80203885717339        5.69726511949245        0.21364738312503
C           28.65206654144890        2.65563461688820        0.64062103117578
C           29.95466226496819        3.29591532514477        0.73272493982053
C           30.87216806245845        2.32824202955301        0.53157706949955
C           30.13138621888758        1.10093851907259        0.30048200374916
N           28.79859374464261        1.33688446716568        0.36606278714531
H           31.83476971048259       -0.12434855550474        0.05931569304957
H           31.87452522724270       -2.71016740078153       -0.46865824667555
H           30.00495277753802       -4.56187450131791       -0.94810327020531
H           28.07555112756500       -0.88406771261466       -0.20517230104399
H           28.32599995350983       -4.66969068522791       -3.04213845822990
H           28.84653438990770       -7.23249150260829       -2.60459662958669
H           27.57970189840770       -6.90361415078359       -3.80196053325173
H           26.91816250032192       -8.55570533840314       -2.08597507736405
H           25.96662118965600       -7.87050290913694       -0.11094649995153
H           26.28387481372472       -5.51777087940882        0.65358860256870
H           24.64627814215951       -4.44405817902819       -1.20587856277099
H           22.80348905301249       -2.54525448621145       -0.71868517870839
H           22.87483237676713        2.50361647230979        0.73301862275376
H           24.75280682680634        4.36058251961749        1.14976950813172
H           26.66138424283381        0.72598447190306        0.17018657398842
H           28.48884023901800        4.56801147810176        2.96878097125249
H           29.06290052617643        7.10303393431949        2.43681380004374
H           27.80264742541676        6.84252783439669        3.65813920689935
H           27.15896218215467        8.45030550684711        1.89408525115899
H           26.17550079817177        7.72154774457906       -0.04943644352183
H           26.43924193061342        5.34056092267614       -0.73993157684757
H           30.12008540767417        4.34567794566110        0.91459582876544
H           31.94806977935313        2.40894611533660        0.52287679237692
C           19.98854009838677       -0.00152062893540        0.05162885229188
C           18.76651586318311        0.02419352361830        0.05465069210643
C           21.33771319867519       -0.02158137998037        0.04665983273707
C           22.55973722943510       -0.04797782035292        0.03424186542357

          :  Hamiltonian                  GFN1-xTB          :
         :: total energy            -198.140625250271 Eh    ::
         :: gradient norm              0.000496498026 Eh/a0 ::
         :: HOMO-LUMO gap              0.927379430766 eV    ::
         :: SCC energy              -201.297922605778 Eh    ::
         :: repulsion energy           3.257290527432 Eh    ::

    * Orbital Energies and Occupations

         #    Occupation            Energy/Eh            Energy/eV
      -------------------------------------------------------------
         1        2.0000           -0.7940732             -21.6078
       ...           ...                  ...                  ...
       169        2.0000           -0.4082856             -11.1100
       170        2.0000           -0.4069261             -11.0730
       171        2.0000           -0.4067870             -11.0692
       172        2.0000           -0.4056026             -11.0370
       173        2.0000           -0.4055720             -11.0362
       174        2.0000           -0.3894420             -10.5973
       175        2.0000           -0.3891335             -10.5889
       176        2.0000           -0.3804184             -10.3517
       177        2.0000           -0.3720183             -10.1231
       178        2.0000           -0.3695860             -10.0569
       179        2.0000           -0.3695242             -10.0553
       180        2.0000           -0.3683440             -10.0231
       181        2.0000           -0.3656938              -9.9510 (HOMO)
       182                         -0.3316133              -9.0237 (LUMO)
       183                         -0.3210036              -8.7350
       184                         -0.3208152              -8.7298
       185                         -0.3179674              -8.6523
       186                         -0.2901458              -7.8953
       187                         -0.2829708              -7.7000
       188                         -0.2641457              -7.1878
       189                         -0.2640902              -7.1863
       190                         -0.2633698              -7.1667
       191                         -0.2623564              -7.1391
       192                         -0.2499182              -6.8006
       ...                                ...                  ...
       396                          1.5253614              41.5072
      -------------------------------------------------------------
                  HL-Gap            0.0340806 Eh            0.9274 eV

Wiberg/Mayer (AO) data.
largest (>0.10) Wiberg bond orders for each atom

     #   Z sym  total        # sym  WBO       # sym  WBO       # sym  WBO
 ---------------------------------------------------------------------------
     1   6 C    3.922 --    35 C    1.363     2 C    1.347    37 H    0.971
     2   6 C    3.904 --     1 C    1.347     3 C    1.230     6 N    1.170
     3   6 C    3.953 --     4 C    1.594     2 C    1.230    38 H    0.977
     4   6 C    3.960 --     3 C    1.594     5 C    1.236    39 H    0.975
     5   6 C    3.896 --     7 C    1.304     4 C    1.236     6 N    1.175
     6   7 N    3.468 --     5 C    1.175     2 C    1.170    40 H    0.873
     7   6 C    3.940 --    14 C    1.334     5 C    1.304     8 C    1.026
     8   6 C    3.988 --     9 C    1.767    13 C    1.098     7 C    1.026
     9   6 C    3.970 --     8 C    1.767    10 C    1.013    41 H    0.972
    10   6 C    3.961 --     9 C    1.013    43 H    0.976    42 H    0.966
                            11 N    0.949
    11   7 N    3.247 --    12 C    1.160    10 C    0.949    44 H    0.928
                            13 C    0.127
    12   6 C    3.958 --    13 C    1.692    11 N    1.160    45 H    0.971
    13   6 C    3.968 --    12 C    1.692     8 C    1.098    46 H    0.974
                            11 N    0.127
    14   6 C    3.914 --     7 C    1.334    17 N    1.286    15 C    1.127
    15   6 C    3.965 --    16 C    1.709    14 C    1.127    47 H    0.973
    16   6 C    3.964 --    15 C    1.709    18 C    1.129    48 H    0.974
    17   7 N    3.021 --    18 C    1.344    14 C    1.286
    18   6 C    3.909 --    17 N    1.344    19 C    1.255    16 C    1.129
    19   6 C    3.935 --    18 C    1.255    20 C    1.249   120 C    1.190
    20   6 C    3.886 --    21 C    1.251    19 C    1.249    24 N    1.190
    21   6 C    3.959 --    22 C    1.581    20 C    1.251    49 H    0.975
    22   6 C    3.955 --    21 C    1.581    23 C    1.244    50 H    0.974
    23   6 C    3.897 --    25 C    1.306    22 C    1.244    24 N    1.165
    24   7 N    3.474 --    20 C    1.190    23 C    1.165    51 H    0.873
    25   6 C    3.926 --    32 C    1.323    23 C    1.306    26 C    1.029
    26   6 C    3.988 --    27 C    1.766    31 C    1.097    25 C    1.029
    27   6 C    3.970 --    26 C    1.766    28 C    1.013    52 H    0.972
    28   6 C    3.961 --    27 C    1.013    54 H    0.976    53 H    0.966
                            29 N    0.949
    29   7 N    3.246 --    30 C    1.160    28 C    0.949    55 H    0.928
                            31 C    0.127
    30   6 C    3.958 --    31 C    1.693    29 N    1.160    56 H    0.971
    31   6 C    3.967 --    30 C    1.693    26 C    1.097    57 H    0.974
                            29 N    0.127
    32   6 C    3.929 --    25 C    1.323    36 N    1.314    33 C    1.119
    33   6 C    3.967 --    34 C    1.720    32 C    1.119    58 H    0.974
    34   6 C    3.966 --    33 C    1.720    35 C    1.118    59 H    0.976
    35   6 C    3.932 --     1 C    1.363    36 N    1.303    34 C    1.118
    36   7 N    3.010 --    32 C    1.314    35 C    1.303
    37   1 H    1.002 --     1 C    0.971
    38   1 H    0.998 --     3 C    0.977
    39   1 H    1.007 --     4 C    0.975
    40   1 H    0.986 --     6 N    0.873
    41   1 H    1.003 --     9 C    0.972
    42   1 H    1.008 --    10 C    0.966
    43   1 H    1.019 --    10 C    0.976
    44   1 H    0.964 --    11 N    0.928
    45   1 H    1.001 --    12 C    0.971
    46   1 H    1.003 --    13 C    0.974
    47   1 H    1.006 --    15 C    0.973
    48   1 H    1.003 --    16 C    0.974
    49   1 H    1.003 --    21 C    0.975
    50   1 H    1.006 --    22 C    0.974
    51   1 H    0.988 --    24 N    0.873
    52   1 H    1.004 --    27 C    0.972
    53   1 H    1.007 --    28 C    0.966
    54   1 H    1.019 --    28 C    0.976
    55   1 H    0.964 --    29 N    0.928
    56   1 H    1.001 --    30 C    0.971
    57   1 H    1.003 --    31 C    0.974
    58   1 H    1.007 --    33 C    0.974
    59   1 H    0.999 --    34 C    0.976
    60   6 C    3.922 --    94 C    1.363    61 C    1.347    96 H    0.971
    61   6 C    3.904 --    60 C    1.347    62 C    1.230    65 N    1.170
    62   6 C    3.953 --    63 C    1.594    61 C    1.230    97 H    0.977
    63   6 C    3.960 --    62 C    1.594    64 C    1.236    98 H    0.975
    64   6 C    3.896 --    66 C    1.304    63 C    1.236    65 N    1.175
    65   7 N    3.468 --    64 C    1.175    61 C    1.170    99 H    0.873
    66   6 C    3.940 --    73 C    1.335    64 C    1.304    67 C    1.026
    67   6 C    3.988 --    68 C    1.768    72 C    1.098    66 C    1.026
    68   6 C    3.970 --    67 C    1.768    69 C    1.013   100 H    0.972
    69   6 C    3.962 --    68 C    1.013   102 H    0.976   101 H    0.966
                            70 N    0.949
    70   7 N    3.247 --    71 C    1.160    69 C    0.949   103 H    0.928
                            72 C    0.127
    71   6 C    3.958 --    72 C    1.692    70 N    1.160   104 H    0.971
    72   6 C    3.968 --    71 C    1.692    67 C    1.098   105 H    0.974
                            70 N    0.127
    73   6 C    3.914 --    66 C    1.335    76 N    1.286    74 C    1.127
    74   6 C    3.965 --    75 C    1.709    73 C    1.127   106 H    0.973
    75   6 C    3.964 --    74 C    1.709    77 C    1.129   107 H    0.974
    76   7 N    3.021 --    77 C    1.344    73 C    1.286
    77   6 C    3.909 --    76 N    1.344    78 C    1.255    75 C    1.129
    78   6 C    3.935 --    77 C    1.255    79 C    1.249   122 C    1.190
    79   6 C    3.886 --    80 C    1.251    78 C    1.249    83 N    1.190
    80   6 C    3.959 --    81 C    1.581    79 C    1.251   108 H    0.975
    81   6 C    3.955 --    80 C    1.581    82 C    1.244   109 H    0.974
    82   6 C    3.897 --    84 C    1.306    81 C    1.244    83 N    1.165
    83   7 N    3.474 --    79 C    1.190    82 C    1.165   110 H    0.873
    84   6 C    3.926 --    91 C    1.323    82 C    1.306    85 C    1.028
    85   6 C    3.988 --    86 C    1.767    90 C    1.097    84 C    1.028
    86   6 C    3.970 --    85 C    1.767    87 C    1.013   111 H    0.972
    87   6 C    3.961 --    86 C    1.013   113 H    0.976   112 H    0.966
                            88 N    0.949
    88   7 N    3.246 --    89 C    1.160    87 C    0.949   114 H    0.928
                            90 C    0.127
    89   6 C    3.958 --    90 C    1.693    88 N    1.160   115 H    0.971
    90   6 C    3.967 --    89 C    1.693    85 C    1.097   116 H    0.974
                            88 N    0.127
    91   6 C    3.929 --    84 C    1.323    95 N    1.314    92 C    1.119
    92   6 C    3.967 --    93 C    1.720    91 C    1.119   117 H    0.974
    93   6 C    3.966 --    92 C    1.720    94 C    1.118   118 H    0.976
    94   6 C    3.932 --    60 C    1.363    95 N    1.303    93 C    1.118
    95   7 N    3.010 --    91 C    1.314    94 C    1.303
    96   1 H    1.002 --    60 C    0.971
    97   1 H    0.998 --    62 C    0.977
    98   1 H    1.007 --    63 C    0.975
    99   1 H    0.986 --    65 N    0.873
   100   1 H    1.003 --    68 C    0.972
   101   1 H    1.008 --    69 C    0.966
   102   1 H    1.019 --    69 C    0.976
   103   1 H    0.964 --    70 N    0.928
   104   1 H    1.001 --    71 C    0.971
   105   1 H    1.003 --    72 C    0.974
   106   1 H    1.006 --    74 C    0.973
   107   1 H    1.003 --    75 C    0.974
   108   1 H    1.003 --    80 C    0.975
   109   1 H    1.006 --    81 C    0.974
   110   1 H    0.988 --    83 N    0.873
   111   1 H    1.003 --    86 C    0.972
   112   1 H    1.007 --    87 C    0.966
   113   1 H    1.019 --    87 C    0.976
   114   1 H    0.964 --    88 N    0.928
   115   1 H    1.001 --    89 C    0.971
   116   1 H    1.003 --    90 C    0.974
   117   1 H    1.007 --    92 C    0.974
   118   1 H    0.999 --    93 C    0.976
   119   6 C    3.932 --   120 C    2.473   121 C    1.310
   120   6 C    3.925 --   119 C    2.473    19 C    1.190   122 C    0.199
   121   6 C    3.932 --   122 C    2.473   119 C    1.310
   122   6 C    3.925 --   121 C    2.473    78 C    1.190   120 C    0.199
 ---------------------------------------------------------------------------

           -------------------------------------------------
          | TOTAL ENERGY             -198.140625250271 Eh   |
          | GRADIENT NORM               0.000496498026 Eh/α |
          | HOMO-LUMO GAP               0.927379430766 eV   |
           -------------------------------------------------

 * finished run on 2022/07/27 at 22:03:53.383
