   * xtb version 6.5.1 (b24c23e) compiled by 'conda@728c89f4b128' on 2022-07-12
          program call               : xtb Co_C2Py_C2_2.xyz --gfn 1 --opt -T 48

   ID    Z sym.   atoms
    1   27 Co     1, 59
    2    6 C      2-6, 8-13, 15-19, 21-26, 28-33, 35-40, 60-64, 66-71, 73-77,
                  79-84, 86-91, 93-98, 117, 118
    3    7 N      7, 14, 20, 27, 34, 41, 65, 72, 78, 85, 92, 99
    4    1 H      42-58, 100-116
########################################################################
[WARNING] Please study the warnings concerning your input carefully
-1- prog_main_parseArguments: Unknown option '-T' provided
########################################################################

          :  Hamiltonian                  GFN1-xTB          :
 * total energy  :  -211.1109190 Eh     change       -0.1003798E-08 Eh
 * total energy  :  -211.2214856 Eh     change       -0.1105666E+00 Eh
 * total energy  :  -211.2766861 Eh     change       -0.5520051E-01 Eh
 * total energy  :  -211.2902512 Eh     change       -0.1356503E-01 Eh
 * total energy  :  -211.2963276 Eh     change       -0.6076425E-02 Eh
 * total energy  :  -211.2996028 Eh     change       -0.3275180E-02 Eh
 * total energy  :  -211.3009669 Eh     change       -0.1364181E-02 Eh
 * total energy  :  -211.3016556 Eh     change       -0.6886971E-03 Eh
 * total energy  :  -211.3020802 Eh     change       -0.4245938E-03 Eh
 * total energy  :  -211.3023214 Eh     change       -0.2411863E-03 Eh
 * total energy  :  -211.3033482 Eh     change       -0.1737070E-04 Eh
 * total energy  :  -211.3033634 Eh     change       -0.1527193E-04 Eh
 * total energy  :  -211.3033736 Eh     change       -0.1019975E-04 Eh
 * total energy  :  -211.3033804 Eh     change       -0.6760582E-05 Eh
 * total energy  :  -211.3033865 Eh     change       -0.6124629E-05 Eh
 * total energy  :  -211.3033943 Eh     change       -0.7780610E-05 Eh
 * total energy  :  -211.3034042 Eh     change       -0.9937694E-05 Eh
 * total energy  :  -211.3034148 Eh     change       -0.1057310E-04 Eh
 * total energy  :  -211.3034180 Eh     change       -0.3151002E-05 Eh
   *** GEOMETRY OPTIMIZATION CONVERGED AFTER 44 ITERATIONS ***

 final structure:
================
118
 xtb: 6.5.1 (b24c23e)
Co          17.46508284900689        0.08898276479478        0.01829508847727
C           14.08051430098951        0.21536225800041       -0.02750065633324
C           14.74659142746659        0.84950559105894        0.99918076580604
C           14.09465080256550        1.53959411461583        2.07028247850667
C           15.06697088795405        2.16455082541660        2.77662999339618
C           16.30538726032131        1.85864339843093        2.12817650892007
N           16.10840597437513        1.01603305383132        1.07130016271000
C           17.51654391440239        2.47518616685328        2.44364329099611
C           17.53713007169191        3.45738799059398        3.45664536376667
C           17.54613462963691        4.30483266076541        4.32502366865306
C           17.55074163762716        5.29776756752787        5.33151271978673
C           18.72971853508416        5.95792326418455        5.69673500249738
C           18.67737799592320        6.92493167191535        6.68488503262669
N           17.55404356907851        7.26349345400232        7.31252321570586
C           16.42916422809159        6.63985246930691        6.97174435583588
C           16.37371861643350        5.65904631220976        5.99753430325541
C           18.69997455902208        2.16556528845213        1.77619543205268
C           19.94492175514032        2.81449465697590        2.03889426697402
C           20.88625177726816        2.14364150861951        1.33155139624976
N           18.86487875819686        1.13933823884120        0.88156351487067
C           20.21365241349204        1.08569325168993        0.64794738365393
C           20.87626353870527        0.05729287199077       -0.02876995295103
C           20.17300272161158       -0.96173464580228       -0.67872687589637
C           20.80162945676617       -2.05677173072008       -1.34503245495095
C           19.82607029720184       -2.72641706902713       -2.00580755665738
C           18.60550823198765       -2.03440261112684       -1.73857404931348
N           18.81955415199587       -0.98161049019302       -0.88617055681900
C           17.40349343511573       -2.32108838314463       -2.38278596676721
C           17.37786735223583       -3.34016215124994       -3.35855108292676
C           17.36091510579732       -4.22029240228347       -4.19370790524248
C           17.34160056780794       -5.24867249113878       -5.16373442103587
C           18.50237650340717       -5.96053341529533       -5.48823382850893
C           18.43045643013829       -6.96078140032786       -6.44135219908367
N           17.30446372751400       -7.28484835523238       -7.07188467345696
C           16.19692867762167       -6.61218267834334       -6.76973568235811
C           16.16182368265061       -5.59490552327911       -5.83261960658186
C           16.22535306259574       -1.63246131360987       -2.09307754421121
C           14.97871625060247       -1.88064712914683       -2.75034503100230
C           14.04183007590601       -1.15863497079872       -2.09051005376515
C           14.72201143469182       -0.47747187984569       -1.03096874167759
N           16.07152816348719       -0.73494424661521       -1.07515847443144
H           12.99756586498722        0.25393378803890       -0.03977192310809
H           13.02916188468310        1.54146153745929        2.23627688064713
H           14.97280198372912        2.79312530720552        3.64764274819272
H           19.66656255888875        5.71307820348855        5.21103264789383
H           19.57671631783034        7.45300401202774        6.98847143139544
H           15.53108481679730        6.94116250424152        7.50325996859925
H           15.43566786816995        5.17675857785985        5.75050991443684
H           20.06762618446812        3.66379642543097        2.69145725543858
H           21.94567201923519        2.32953444268565        1.27996370267255
H           21.85665761655149       -2.26979748447878       -1.31187383804079
H           19.91121353902177       -3.60066200487152       -2.63080981558863
H           19.44051640338932       -5.72924940336101       -4.99836976026709
H           19.31527657537550       -7.52948897045907       -6.71245892067937
H           15.29635210560450       -6.90251975679533       -7.30309886979146
H           15.23746570373418       -5.07290085854169       -5.61677461055627
H           14.85520504044685       -2.53671292985775       -3.59708456841449
H           12.98151139235927       -1.09398618008400       -2.27586417386155
Co          28.32101857672700       -0.06199961179182       -0.06580354466072
C           31.70552781111077       -0.08672953191537       -0.20025040248500
C           31.03982761278473       -1.29357871016197       -0.21717733493629
C           31.69209547797743       -2.56684520519605       -0.26018800064326
C           30.71989751347259       -3.49408831127028       -0.43336187871990
C           29.48124526249946       -2.78090189102930       -0.50274185082821
N           29.67801725576692       -1.44133021061989       -0.32221279360227
C           28.26981713340293       -3.36827897503986       -0.86878059664991
C           28.24892941899497       -4.74184075791085       -1.19160725093850
C           28.24064021656055       -5.92208890810649       -1.47330456656565
C           28.23682503083698       -7.29584462334140       -1.80759318651851
C           27.05882655502736       -7.94971157245239       -2.18682145828815
C           27.11317719318820       -9.29407009063901       -2.50960116316151
N           28.23748429209925      -10.00489839207536       -2.47805222185714
C           29.36146884977643       -9.39084365834852       -2.11734333500528
C           29.41488899702761       -8.05133282755964       -1.77547835498757
C           27.08637355878612       -2.63654522505262       -0.94536579095720
C           25.84137262377354       -3.19539973088448       -1.36689126460016
C           24.90000121008875       -2.24405085188842       -1.15432084320926
N           26.92143262680647       -1.34191343500839       -0.52409740212684
C           25.57259946328103       -1.11406171150964       -0.59782650552601
C           24.90986945920743       -0.00532969772334       -0.06301748257625
C           25.61303688686003        1.07530737330975        0.47851587905564
C           24.98446765676946        2.20872463474683        1.07723106031384
C           25.96009972941783        3.11925357949294        1.31359113109803
C           27.18061467469831        2.53506142782037        0.85628053271532
N           26.96648716874428        1.26350381840913        0.38931865919990
C           28.38251049431685        3.23531012775128        0.77157988550899
C           28.40767746369337        4.59566208780061        1.14586861426129
C           28.42366058225022        5.76441756424135        1.47169474467226
C           28.44132896654651        7.12504346831894        1.85546407594349
C           27.27971240516170        7.76790261097198        2.29910838443160
C           27.34991089636720        9.09979307288920        2.66686792299965
N           28.47499447710723        9.80866003401876        2.62063942236930
C           29.58335019998938        9.20501669700211        2.19924694634116
C           29.62016869345919        7.87823917300040        1.80865349915847
C           29.56047099144523        2.63370129975232        0.32816017307286
C           30.80685335154453        3.32550267637280        0.20305746757307
C           31.74367030004391        2.38898374638548       -0.07932048749143
C           31.06373287273335        1.12988611666870       -0.12007726421292
N           29.71433105547396        1.29959578303724        0.07944643900586
H           32.78845895471456       -0.09564841460853       -0.24025353481227
H           32.75767497623779       -2.71000791189332       -0.17728460282277
H           30.81439609627502       -4.56418838259431       -0.52604749363457
H           26.12115367866169       -7.40864821572043       -2.22631391023741
H           26.21467212747163       -9.82683743537694       -2.80742523421260
H           30.26036305767900      -10.00044193551964       -2.10281456900210
H           30.35213198173231       -7.59033205395015       -1.48803528378903
H           25.71877714452901       -4.19147647622710       -1.76060796941224
H           23.84050114489478       -2.29547950047723       -1.33977741779490
H           23.92946467440834        2.28946053701718        1.27726128715173
H           25.87500918093833        4.10399582349904        1.74396309513754
H           26.34223579256213        7.22767309546783        2.35257506575313
H           26.46439383518537        9.62362748490455        3.01513835532665
H           30.48315136657684        9.81290578116293        2.17405236138258
H           30.54511553768091        7.42584500811110        1.47202021732309
H           30.93023552227629        4.38889386757019        0.33197330801768
H           32.80381317328728        2.51517297718617       -0.23094360422909
C           22.28405512176088        0.03833936367865       -0.04459785705167
C           23.50207592048232        0.01817532234949       -0.05589776994845

          :  Hamiltonian                  GFN1-xTB          :
         :: total energy            -211.303417963601 Eh    ::
         :: gradient norm              0.000433393970 Eh/a0 ::
         :: HOMO-LUMO gap              0.007905791317 eV    ::
         :: SCC energy              -214.826595497843 Eh    ::
         :: repulsion energy           3.623435839474 Eh    ::

    * Orbital Energies and Occupations

         #    Occupation            Energy/Eh            Energy/eV
      -------------------------------------------------------------
         1        2.0000           -0.7791112             -21.2007
       ...           ...                  ...                  ...
       184        2.0000           -0.4224251             -11.4948
       185        2.0000           -0.4224193             -11.4946
       186        2.0000           -0.4048400             -11.0163
       187        2.0000           -0.4048107             -11.0155
       188        2.0000           -0.4040090             -10.9936
       189        2.0000           -0.4021124             -10.9420
       190        2.0000           -0.4020883             -10.9414
       191        1.9998           -0.3989282             -10.8554
       192        1.9998           -0.3989219             -10.8552
       193        1.9998           -0.3987756             -10.8512
       194        1.9998           -0.3987733             -10.8512
       195        1.8316           -0.3921850             -10.6719
       196        1.1603           -0.3902245             -10.6186 (HOMO)
       197        1.0088           -0.3899340             -10.6106 (LUMO)
       198                         -0.3470504              -9.4437
       199                         -0.3449042              -9.3853
       200                         -0.3448870              -9.3849
       201                         -0.3293740              -8.9627
       202                         -0.3174505              -8.6383
       203                         -0.3115380              -8.4774
       204                         -0.3021203              -8.2211
       205                         -0.3019674              -8.2170
       206                         -0.2912239              -7.9246
       207                         -0.2912144              -7.9243
       ...                                ...                  ...
       414                          1.3464334              36.6383
      -------------------------------------------------------------
                  HL-Gap            0.0002905 Eh            0.0079 eV

Wiberg/Mayer (AO) data.
largest (>0.10) Wiberg bond orders for each atom

     #   Z sym  total        # sym  WBO       # sym  WBO       # sym  WBO
 ---------------------------------------------------------------------------
     1  27 Co   3.013 --    41 N    0.630    20 N    0.629     7 N    0.628
                            27 N    0.627
     2   6 C    3.927 --    40 C    1.368     3 C    1.364    42 H    0.970
     3   6 C    3.916 --     2 C    1.364     7 N    1.196     4 C    1.176
     4   6 C    3.959 --     5 C    1.644     3 C    1.176    43 H    0.975
     5   6 C    3.962 --     4 C    1.644     6 C    1.184    44 H    0.974
     6   6 C    3.911 --     8 C    1.269     7 N    1.232     5 C    1.184
     7   7 N    3.343 --     6 C    1.232     3 C    1.196     1 Co   0.628
     8   6 C    3.928 --    17 C    1.281     6 C    1.269     9 C    1.159
     9   6 C    3.956 --    10 C    2.625     8 C    1.159
    10   6 C    3.931 --     9 C    2.625    11 C    1.141
    11   6 C    3.987 --    12 C    1.351    16 C    1.350    10 C    1.141
    12   6 C    3.973 --    13 C    1.456    11 C    1.351    45 H    0.974
                            15 C    0.104
    13   6 C    3.973 --    12 C    1.456    14 N    1.407    46 H    0.972
                            16 C    0.104
    14   7 N    2.994 --    13 C    1.407    15 C    1.407
    15   6 C    3.973 --    16 C    1.457    14 N    1.407    47 H    0.972
                            12 C    0.104
    16   6 C    3.973 --    15 C    1.457    11 C    1.350    48 H    0.974
                            13 C    0.104
    17   6 C    3.907 --     8 C    1.281    20 N    1.213    18 C    1.190
    18   6 C    3.958 --    19 C    1.630    17 C    1.190    49 H    0.974
    19   6 C    3.961 --    18 C    1.630    21 C    1.193    50 H    0.965
    20   7 N    3.343 --    21 C    1.222    17 C    1.213     1 Co   0.629
    21   6 C    3.900 --    22 C    1.264    20 N    1.222    19 C    1.193
    22   6 C    3.929 --    21 C    1.264    23 C    1.261   117 C    1.183
    23   6 C    3.900 --    22 C    1.261    27 N    1.223    24 C    1.194
    24   6 C    3.961 --    25 C    1.629    23 C    1.194    51 H    0.965
    25   6 C    3.958 --    24 C    1.629    26 C    1.191    52 H    0.974
    26   6 C    3.907 --    28 C    1.281    27 N    1.212    25 C    1.191
    27   7 N    3.344 --    23 C    1.223    26 C    1.212     1 Co   0.627
    28   6 C    3.928 --    26 C    1.281    37 C    1.269    29 C    1.159
    29   6 C    3.957 --    30 C    2.625    28 C    1.159
    30   6 C    3.931 --    29 C    2.625    31 C    1.141
    31   6 C    3.987 --    36 C    1.351    32 C    1.350    30 C    1.141
    32   6 C    3.973 --    33 C    1.457    31 C    1.350    53 H    0.974
                            35 C    0.104
    33   6 C    3.973 --    32 C    1.457    34 N    1.407    54 H    0.972
                            36 C    0.104
    34   7 N    2.994 --    35 C    1.407    33 C    1.407
    35   6 C    3.972 --    36 C    1.456    34 N    1.407    55 H    0.972
                            32 C    0.104
    36   6 C    3.973 --    35 C    1.456    31 C    1.351    56 H    0.974
                            33 C    0.104
    37   6 C    3.911 --    28 C    1.269    41 N    1.234    38 C    1.183
    38   6 C    3.962 --    39 C    1.645    37 C    1.183    57 H    0.974
    39   6 C    3.959 --    38 C    1.645    40 C    1.175    58 H    0.975
    40   6 C    3.917 --     2 C    1.368    41 N    1.194    39 C    1.175
    41   7 N    3.342 --    37 C    1.234    40 C    1.194     1 Co   0.630
    42   1 H    1.000 --     2 C    0.970
    43   1 H    0.997 --     4 C    0.975
    44   1 H    1.002 --     5 C    0.974
    45   1 H    1.002 --    12 C    0.974
    46   1 H    1.013 --    13 C    0.972
    47   1 H    1.013 --    15 C    0.972
    48   1 H    1.002 --    16 C    0.974
    49   1 H    1.002 --    18 C    0.974
    50   1 H    1.006 --    19 C    0.965
    51   1 H    1.006 --    24 C    0.965
    52   1 H    1.002 --    25 C    0.974
    53   1 H    1.002 --    32 C    0.974
    54   1 H    1.013 --    33 C    0.972
    55   1 H    1.013 --    35 C    0.972
    56   1 H    1.002 --    36 C    0.974
    57   1 H    1.002 --    38 C    0.974
    58   1 H    0.997 --    39 C    0.975
    59  27 Co   3.013 --    99 N    0.631    78 N    0.629    65 N    0.628
                            85 N    0.627
    60   6 C    3.927 --    98 C    1.368    61 C    1.364   100 H    0.970
    61   6 C    3.916 --    60 C    1.364    65 N    1.196    62 C    1.176
    62   6 C    3.959 --    63 C    1.644    61 C    1.176   101 H    0.975
    63   6 C    3.962 --    62 C    1.644    64 C    1.184   102 H    0.974
    64   6 C    3.911 --    66 C    1.269    65 N    1.232    63 C    1.184
    65   7 N    3.343 --    64 C    1.232    61 C    1.196    59 Co   0.628
    66   6 C    3.928 --    75 C    1.281    64 C    1.269    67 C    1.159
    67   6 C    3.956 --    68 C    2.625    66 C    1.159
    68   6 C    3.931 --    67 C    2.625    69 C    1.141
    69   6 C    3.987 --    70 C    1.351    74 C    1.350    68 C    1.141
    70   6 C    3.973 --    71 C    1.456    69 C    1.351   103 H    0.974
                            73 C    0.104
    71   6 C    3.973 --    70 C    1.456    72 N    1.408   104 H    0.972
                            74 C    0.104
    72   7 N    2.994 --    71 C    1.408    73 C    1.407
    73   6 C    3.973 --    74 C    1.457    72 N    1.407   105 H    0.972
                            70 C    0.104
    74   6 C    3.973 --    73 C    1.457    69 C    1.350   106 H    0.974
                            71 C    0.104
    75   6 C    3.907 --    66 C    1.281    78 N    1.212    76 C    1.190
    76   6 C    3.958 --    77 C    1.630    75 C    1.190   107 H    0.974
    77   6 C    3.961 --    76 C    1.630    79 C    1.193   108 H    0.965
    78   7 N    3.343 --    79 C    1.222    75 C    1.212    59 Co   0.629
    79   6 C    3.900 --    80 C    1.264    78 N    1.222    77 C    1.193
    80   6 C    3.929 --    79 C    1.264    81 C    1.261   118 C    1.183
    81   6 C    3.900 --    80 C    1.261    85 N    1.223    82 C    1.194
    82   6 C    3.961 --    83 C    1.629    81 C    1.194   109 H    0.965
    83   6 C    3.958 --    82 C    1.629    84 C    1.191   110 H    0.974
    84   6 C    3.907 --    86 C    1.281    85 N    1.212    83 C    1.191
    85   7 N    3.344 --    81 C    1.223    84 C    1.212    59 Co   0.627
    86   6 C    3.928 --    84 C    1.281    95 C    1.269    87 C    1.159
    87   6 C    3.957 --    88 C    2.624    86 C    1.159
    88   6 C    3.931 --    87 C    2.624    89 C    1.141
    89   6 C    3.987 --    94 C    1.351    90 C    1.350    88 C    1.141
    90   6 C    3.973 --    91 C    1.457    89 C    1.350   111 H    0.974
                            93 C    0.104
    91   6 C    3.973 --    90 C    1.457    92 N    1.407   112 H    0.972
                            94 C    0.104
    92   7 N    2.994 --    93 C    1.407    91 C    1.407
    93   6 C    3.972 --    94 C    1.456    92 N    1.407   113 H    0.972
                            90 C    0.104
    94   6 C    3.973 --    93 C    1.456    89 C    1.351   114 H    0.974
                            91 C    0.104
    95   6 C    3.911 --    86 C    1.269    99 N    1.234    96 C    1.183
    96   6 C    3.962 --    97 C    1.645    95 C    1.183   115 H    0.974
    97   6 C    3.959 --    96 C    1.645    98 C    1.175   116 H    0.975
    98   6 C    3.917 --    60 C    1.368    99 N    1.194    97 C    1.175
    99   7 N    3.342 --    95 C    1.234    98 C    1.194    59 Co   0.631
   100   1 H    1.000 --    60 C    0.970
   101   1 H    0.997 --    62 C    0.975
   102   1 H    1.002 --    63 C    0.974
   103   1 H    1.002 --    70 C    0.974
   104   1 H    1.013 --    71 C    0.972
   105   1 H    1.013 --    73 C    0.972
   106   1 H    1.002 --    74 C    0.974
   107   1 H    1.002 --    76 C    0.974
   108   1 H    1.006 --    77 C    0.965
   109   1 H    1.006 --    82 C    0.965
   110   1 H    1.002 --    83 C    0.974
   111   1 H    1.002 --    90 C    0.974
   112   1 H    1.013 --    91 C    0.972
   113   1 H    1.013 --    93 C    0.972
   114   1 H    1.002 --    94 C    0.974
   115   1 H    1.002 --    96 C    0.974
   116   1 H    0.997 --    97 C    0.975
   117   6 C    3.930 --   118 C    2.571    22 C    1.183
   118   6 C    3.930 --   117 C    2.571    80 C    1.183
 ---------------------------------------------------------------------------

           -------------------------------------------------
          | TOTAL ENERGY             -211.303417963601 Eh   |
          | GRADIENT NORM               0.000433393970 Eh/α |
          | HOMO-LUMO GAP               0.007905791317 eV   |
           -------------------------------------------------

 * finished run on 2022/07/29 at 22:52:17.945
