   * xtb version 6.5.1 (b24c23e) compiled by 'conda@728c89f4b128' on 2022-07-12
          program call               : xtb Cu_Py_C8_3.xyz --gfn 1 --opt -T 48

   ID    Z sym.   atoms
    1   29 Cu     1, 55, 125
    2    6 C      2-6, 8-11, 13-17, 19-24, 26-29, 31-36, 56-60, 62-65, 67-71,
                  73-78, 80-83, 85-90, 109-124, 126-130, 132-135, 137-141,
                  143-148, 150-153, 155-160
    3    7 N      7, 12, 18, 25, 30, 37, 61, 66, 72, 79, 84, 91, 131, 136,
                  142, 149, 154, 161
    4    1 H      38-54, 92-108, 162-177

          :  Hamiltonian                  GFN1-xTB          :
 * total energy  :  -320.5294526 Eh     change        0.1585636E-07 Eh
 * total energy  :  -320.9060607 Eh     change       -0.3766081E+00 Eh
 * total energy  :  -321.0271794 Eh     change       -0.1211187E+00 Eh
 * total energy  :  -321.0728489 Eh     change       -0.4566947E-01 Eh
 * total energy  :  -321.0981948 Eh     change       -0.2534591E-01 Eh
 * total energy  :  -321.1236079 Eh     change       -0.2541311E-01 Eh
 * total energy  :  -321.1582498 Eh     change       -0.3464184E-01 Eh
 * total energy  :  -321.1965176 Eh     change       -0.3826784E-01 Eh
 * total energy  :  -321.2365536 Eh     change       -0.4003604E-01 Eh
 * total energy  :  -321.2751914 Eh     change       -0.3863780E-01 Eh
 * total energy  :  -321.5135108 Eh     change       -0.1235697E-03 Eh
 * total energy  :  -321.5135690 Eh     change       -0.5820369E-04 Eh
 * total energy  :  -321.5135894 Eh     change       -0.2038805E-04 Eh
 * total energy  :  -321.5136055 Eh     change       -0.1609385E-04 Eh
 * total energy  :  -321.5136160 Eh     change       -0.1045261E-04 Eh
 * total energy  :  -321.5136270 Eh     change       -0.1099797E-04 Eh
 * total energy  :  -321.5136436 Eh     change       -0.1659860E-04 Eh
 * total energy  :  -321.5136543 Eh     change       -0.1070337E-04 Eh
 * total energy  :  -321.5136571 Eh     change       -0.2812408E-05 Eh
   *** GEOMETRY OPTIMIZATION CONVERGED AFTER 68 ITERATIONS ***

 final structure:
================
177
 xtb: 6.5.1 (b24c23e)
Cu          19.58256399523535       -0.02079067967397       -0.00900254040218
C           16.17597941806480       -0.05518996423114       -0.02954117165784
C           16.81165191230265       -1.28093526154943        0.09838711695542
C           16.13715208619523       -2.53857965428677        0.24962950308256
C           17.09636247783647       -3.49032445437740        0.36192590452590
C           18.36667947654719       -2.82267966559977        0.27255452888470
N           18.16258691768706       -1.48173572788840        0.11844393673023
C           19.61166969622343       -3.44860119596594        0.36682321609209
C           19.62566428818910       -4.92306289396018        0.52790659155685
C           20.14795725278642       -5.52127707603309        1.67379975628801
C           20.13951361795544       -6.90322211787122        1.77849516580329
N           19.65788782605003       -7.69861656163503        0.82879414234424
C           19.15983876446412       -7.13638961408725       -0.26768220068315
C           19.11883009507541       -5.76464167675977       -0.46134955666195
C           20.84475213523017       -2.79594496112007        0.32136110554849
C           22.12230305812775       -3.44840634189222        0.37739683075283
C           23.06820014764918       -2.48017500957170        0.28157997454884
N           21.03295262815731       -1.44623635093227        0.18151803676168
C           22.37665201408861       -1.23215451447536        0.15802835355024
C           23.01251194153633        0.01340930601920        0.01294179203162
C           22.35340350290130        1.24597731010259       -0.13866580518637
C           23.02135735971743        2.49996602838269       -0.31805960240721
C           22.05757674130347        3.44861258872793       -0.43062820960352
C           20.79264558879111        2.77998552135410       -0.31236045559675
N           21.00596611193078        1.43713107886420       -0.14540226138213
C           19.54740851496826        3.40713823653815       -0.38461179543369
C           19.53412005493229        4.88170570955170       -0.54152572221016
C           18.97703914846736        5.48665475816490       -1.66751046275453
C           18.99213959084089        6.86887165212930       -1.76935865482024
N           19.51271465539948        7.65856175375345       -0.83558259146166
C           20.04355753210515        7.09013153659571        0.24229683227802
C           20.07955281576531        5.71775169698247        0.43214280709328
C           18.31402109461865        2.75470023228538       -0.31936101105689
C           17.03143746828419        3.40399496266975       -0.34997459677816
C           16.09044154933265        2.43250671409604       -0.25359240297202
C           16.78848980113621        1.18264644418828       -0.15404511015801
N           18.13532820129177        1.40747833109168       -0.19054302951665
H           15.09091382196577       -0.06467452121408       -0.02257608077443
H           15.06583189999892       -2.66190432846120        0.27193472037123
H           16.96347518468007       -4.55064064375422        0.50469176496792
H           20.54203407752297       -4.91171387770573        2.47823812074442
H           20.53878149714686       -7.39204573426059        2.66241628717504
H           18.77490294805413       -7.81246025099507       -1.02555679849309
H           18.71269131698974       -5.35115151307954       -1.37683398250860
H           22.27225235630979       -4.51218045839470        0.46563969492437
H           24.14062189880321       -2.59178492386589        0.28635244161969
H           24.09131894470215        2.62716599362447       -0.35789952120829
H           22.18757402848075        4.50627162248082       -0.59288665055352
H           18.55265729388141        4.88232293138083       -2.46043435415998
H           18.56869774833548        7.36252894182613       -2.63923531724932
H           20.45875307197246        7.76137358950588        0.98841316950190
H           20.51237101733047        5.29910870539059        1.33294983216416
H           16.87813259306634        4.46859886942765       -0.42350735376157
H           15.01712584837746        2.53889534989726       -0.24281932475451
Cu          56.80520066872977        0.02593448291850       -0.00757345873833
C           60.21181178321121        0.04479595458014       -0.05086910574644
C           59.57817469697029        1.25592626847245       -0.28445777584708
C           60.25468619924071        2.50128261732190       -0.51011173475369
C           59.29698873129295        3.44602186017646       -0.67989275701780
C           58.02562370944207        2.78400502450675       -0.56694589058761
N           58.22756787041874        1.45656951347125       -0.32067776906438
C           56.78161819530703        3.41187344862032       -0.66067541224847
C           56.76971194030709        4.86849779523697       -0.94060265826330
C           56.24991206784909        5.77807273254518       -0.02061761875627
C           56.26017600112809        7.12969916413653       -0.32693246931672
N           56.74154210344377        7.60989742232439       -1.46899068238590
C           57.23706135697984        6.74928944608371       -2.35232890689376
C           57.27589519847138        5.38107722472498       -2.13424079020745
C           55.54761581657815        2.77671970748955       -0.51148732060129
C           54.27113799331683        3.41855257634848       -0.65134034138162
C           53.32369320413807        2.46727559987727       -0.45428686320123
N           55.35729241361440        1.44669081618854       -0.24402753418690
C           54.01325506782099        1.23795239741851       -0.20076497334518
C           53.37530743670310        0.00819354820464        0.03914619648651
C           54.03236487523692       -1.21454879756986        0.26268081212196
C           53.36211726604527       -2.46314742280680        0.46907581332013
C           54.32430655439959       -3.40568426326649        0.63430918156477
C           55.59063795221036       -2.73614776180748        0.53835838944869
N           55.37955610999840       -1.40326730522798        0.30254089815233
C           56.83490753420229       -3.36075806709489        0.64210822605175
C           56.84655070120916       -4.81717223512415        0.92126093136414
C           57.39268742391796       -5.72456451995891        0.01428222051525
C           57.37645097558132       -7.07676836210810        0.31813703633929
N           56.86490132008289       -7.55986048839511        1.44574889359828
C           56.34474359977846       -6.70145765797663        2.31711502321851
C           56.31066427606378       -5.33292844498026        2.10074974946859
C           58.06916066541623       -2.72146753487218        0.50379498077019
C           59.35090375790367       -3.35501839585280        0.65637839947754
C           60.29342150479319       -2.40026505067064        0.45978859528303
C           59.59722329246119       -1.17391085948024        0.19393703447375
N           58.24994660431697       -1.39598080641013        0.23191133373109
H           61.29690674299329        0.05317509412974       -0.05125406273131
H           61.32621794374064        2.62357581737543       -0.52741484237672
H           59.43158521536775        4.50128770983744       -0.85488318951781
H           55.85645498230654        5.43265578328701        0.92799016239317
H           55.86382069323376        7.85755068641532        0.37502842831745
H           57.62140562712966        7.17194019367638       -3.27607376580036
H           57.67984001379908        4.71592025209470       -2.88824342335918
H           54.12298846644159        4.46074398654276       -0.88325580326281
H           52.25143929440133        2.57715547153349       -0.48204658404805
H           52.29177270731081       -2.59304852439426        0.47763334322068
H           54.19216678791929       -4.46350384035065        0.79373863154907
H           57.80956175002765       -5.37756365364778       -0.92372736826595
H           57.79155416187799       -7.80287734240368       -0.37478061131142
H           55.93665272727169       -7.12602325273818        3.22971826812901
H           55.88669766681232       -4.66962498505899        2.84527036353121
H           59.50265280191999       -4.39512856129897        0.89602731589852
H           61.36667758894023       -2.50175789310955        0.49521897456606
C           24.41832259591054        0.02504321349359        0.00733617035573
C           25.64267796072436        0.03200470550139        0.00780356027571
C           26.98566505241445        0.03903605081321        0.00105887365093
C           28.21611183275300        0.04366880537531       -0.00560680209418
C           29.55422910839789        0.04300967691989       -0.01185037692141
C           30.78478529815996        0.04124380682680       -0.01994598022498
C           32.12754450647849        0.03726667977774       -0.02724883948783
C           33.35210659429225        0.03078444471743       -0.03265540457859
C           43.03597574707010       -0.00624105886332       -0.01514479642901
C           44.26049793764955       -0.00960662944648       -0.00121687152598
C           45.60314850044130       -0.01174245765686        0.01234029956609
C           46.83368118330213       -0.00998184467601        0.02431642339197
C           48.17170392574934       -0.01133676739217        0.03677340936263
C           49.40225312632968       -0.01070908806768        0.04209004794013
C           50.74520150065545       -0.00533326890377        0.04666687884680
C           51.96954703774801       -0.00098574453228        0.04223342946167
Cu          38.19401100022268        0.00408337323100       -0.03400747558018
C           34.75719016383659        0.02260452427655       -0.03479798704249
C           35.40068597703893       -0.87923477609977        0.83196271987365
C           34.71758396113189       -1.75770483678468        1.73342648175146
C           35.66998917357854       -2.46019513310006        2.39797923969476
C           36.94174801164934       -2.01921708394068        1.89981113176546
N           36.74468503988679       -1.05284359035170        0.94974560113508
C           38.18015609056714       -2.48630070127803        2.34393697057093
C           38.17402263458001       -3.56019498409356        3.36749244613278
C           37.63644412757957       -4.81717242975201        3.09402240364615
C           37.65661203196148       -5.78982608292879        4.08119895379223
N           38.16271898738010       -5.58200460133464        5.29249899030847
C           38.67420022770494       -4.38528464536038        5.56229879543248
C           38.70554701671408       -3.35168825437238        4.63938726175567
C           39.42372985814870       -2.02742255045068        1.90579346370315
C           40.69023682754388       -2.55103777872329        2.33213344386122
C           41.65041975802780       -1.85765604774466        1.66919971336374
N           39.63164730951606       -1.03408486039072        0.98630329438575
C           40.97736645101834       -0.91339967220794        0.82876303018689
C           41.63096767084361       -0.00547996168469       -0.02408512256051
C           40.98762412678447        0.90294775658069       -0.88392219724167
C           41.67065508179337        1.83931601563943       -1.72516118081194
C           40.71807012256356        2.53342001310614       -2.39827045358707
C           39.44629094361513        2.01984801960361       -1.97539496384887
N           39.64350179334378        1.03016059112011       -1.04968749272338
C           38.20791879202800        2.48589060172338       -2.42040829456555
C           38.21440049398115        3.55149993722517       -3.45290318690253
C           38.73808552106182        3.32239800279233       -4.72449043738306
C           38.71833609215076        4.34695690397678       -5.65771675604899
N           38.22621139519698        5.55394480183156       -5.39775543308182
C           37.72862326408624        5.78157968165092       -4.18651056380889
C           37.69718282629695        4.81904525624587       -3.18965671886958
C           36.96430665979386        2.03351858697123       -1.97590548853532
C           35.69760980194045        2.48730282927369       -2.47546232423072
C           34.73731382126574        1.79854263463961       -1.80785384931213
C           35.41049391066261        0.91521490904835       -0.90366247793419
N           36.75638597704247        1.07287878251278       -1.02230248140640
H           33.64650495468552       -1.81691937837453        1.84234456307088
H           35.52823382422712       -3.20242525213861        3.16669346099361
H           37.22233069965838       -5.03454271044585        2.11665336974978
H           37.24875746592187       -6.77817308002300        3.89031028665759
H           39.07732185523635       -4.24548214022145        6.56108681248452
H           39.12370057173317       -2.38858485731840        4.90692623599533
H           40.82357207691519       -3.35425830068960        3.03851538620018
H           42.72060368440911       -1.97344906810578        1.73135728000952
H           42.74185340079062        1.94854552561241       -1.78192592139089
H           40.85939986148470        3.33131316495862       -3.10914880191655
H           39.14126656987491        2.35060848921021       -4.98347757359271
H           39.11501573644029        4.19105849117012       -6.65670511677507
H           37.33675563267732        6.77793507045907       -4.00392215670086
H           37.28987844203542        5.05226324992911       -2.21308534894403
H           35.56441936690366        3.22887209720254       -3.24636275409609
H           33.66691693717961        1.86963548384358       -1.91651335141019

          :  Hamiltonian                  GFN1-xTB          :
         :: total energy            -321.513657075123 Eh    ::
         :: gradient norm              0.000722776902 Eh/a0 ::
         :: HOMO-LUMO gap              0.000015032529 eV    ::
         :: SCC energy              -326.781893889436 Eh    ::
         :: repulsion energy           5.427499890927 Eh    ::

    * Orbital Energies and Occupations

         #    Occupation            Energy/Eh            Energy/eV
      -------------------------------------------------------------
         1        2.0000           -0.7713346             -20.9891
       ...           ...                  ...                  ...
       287        2.0000           -0.4147847             -11.2869
       288        2.0000           -0.4146297             -11.2826
       289        2.0000           -0.4143201             -11.2742
       290        2.0000           -0.4131734             -11.2430
       291        2.0000           -0.4111654             -11.1884
       292        2.0000           -0.4025208             -10.9531
       293        2.0000           -0.4025130             -10.9529
       294        2.0000           -0.4024092             -10.9501
       295        2.0000           -0.3956369             -10.7658
       296        2.0000           -0.3918493             -10.6628
       297        2.0000           -0.3856512             -10.4941
       298        1.0204           -0.3628529              -9.8737
       299        0.9899           -0.3627878              -9.8720 (HOMO)
       300        0.9897           -0.3627873              -9.8719 (LUMO)
       301        0.0000           -0.3472551              -9.4493
       302                         -0.3404202              -9.2633
       303                         -0.3362398              -9.1496
       304                         -0.3355718              -9.1314
       305                         -0.3355563              -9.1310
       306                         -0.3351123              -9.1189
       307                         -0.3145188              -8.5585
       308                         -0.3068232              -8.3491
       309                         -0.3063277              -8.3356
       310                         -0.3003663              -8.1734
       ...                                ...                  ...
       623                          1.6022201              43.5986
      -------------------------------------------------------------
                  HL-Gap            0.0000006 Eh            0.0000 eV

Wiberg/Mayer (AO) data.
largest (>0.10) Wiberg bond orders for each atom

     #   Z sym  total        # sym  WBO       # sym  WBO       # sym  WBO
 ---------------------------------------------------------------------------
     1  29 Cu   2.190 --     7 N    0.506    37 N    0.506    25 N    0.503
                            18 N    0.503
     2   6 C    3.930 --    36 C    1.362     3 C    1.362    38 H    0.971
     3   6 C    3.916 --     2 C    1.362     7 N    1.229     4 C    1.170
     4   6 C    3.955 --     5 C    1.657     3 C    1.170    39 H    0.975
     5   6 C    3.958 --     4 C    1.657     6 C    1.172    40 H    0.973
     6   6 C    3.914 --     8 C    1.319     7 N    1.239     5 C    1.172
     7   7 N    3.244 --     6 C    1.239     3 C    1.229     1 Cu   0.506
     8   6 C    3.935 --    15 C    1.327     6 C    1.319     9 C    1.026
     9   6 C    3.986 --    14 C    1.393    10 C    1.393     8 C    1.026
                            12 N    0.107
    10   6 C    3.987 --    11 C    1.442     9 C    1.393    41 H    0.973
                            13 C    0.109
    11   6 C    3.972 --    10 C    1.442    12 N    1.416    42 H    0.972
                            14 C    0.109
    12   7 N    3.030 --    13 C    1.416    11 C    1.416     9 C    0.107
    13   6 C    3.972 --    14 C    1.442    12 N    1.416    43 H    0.972
                            10 C    0.109
    14   6 C    3.987 --    13 C    1.442     9 C    1.393    44 H    0.973
                            11 C    0.109
    15   6 C    3.908 --     8 C    1.327    18 N    1.221    16 C    1.178
    16   6 C    3.954 --    17 C    1.644    15 C    1.178    45 H    0.973
    17   6 C    3.956 --    16 C    1.644    19 C    1.186    46 H    0.974
    18   7 N    3.248 --    19 C    1.256    15 C    1.221     1 Cu   0.503
    19   6 C    3.896 --    20 C    1.259    18 N    1.256    17 C    1.186
    20   6 C    3.940 --    21 C    1.260    19 C    1.259   109 C    1.188
    21   6 C    3.896 --    20 C    1.260    25 N    1.256    22 C    1.186
    22   6 C    3.956 --    23 C    1.643    21 C    1.186    47 H    0.974
    23   6 C    3.954 --    22 C    1.643    24 C    1.179    48 H    0.973
    24   6 C    3.908 --    26 C    1.326    25 N    1.222    23 C    1.179
    25   7 N    3.248 --    21 C    1.256    24 C    1.222     1 Cu   0.503
    26   6 C    3.935 --    24 C    1.326    33 C    1.319    27 C    1.028
    27   6 C    3.986 --    28 C    1.393    32 C    1.393    26 C    1.028
                            30 N    0.107
    28   6 C    3.987 --    29 C    1.442    27 C    1.393    49 H    0.973
                            31 C    0.108
    29   6 C    3.972 --    28 C    1.442    30 N    1.416    50 H    0.972
                            32 C    0.108
    30   7 N    3.030 --    29 C    1.416    31 C    1.415    27 C    0.107
    31   6 C    3.972 --    32 C    1.442    30 N    1.415    51 H    0.972
                            28 C    0.108
    32   6 C    3.987 --    31 C    1.442    27 C    1.393    52 H    0.973
                            29 C    0.108
    33   6 C    3.914 --    26 C    1.319    37 N    1.239    34 C    1.172
    34   6 C    3.958 --    35 C    1.656    33 C    1.172    53 H    0.973
    35   6 C    3.955 --    34 C    1.656    36 C    1.170    54 H    0.975
    36   6 C    3.916 --     2 C    1.362    37 N    1.229    35 C    1.170
    37   7 N    3.244 --    33 C    1.239    36 C    1.229     1 Cu   0.506
    38   1 H    1.001 --     2 C    0.971
    39   1 H    0.998 --     4 C    0.975
    40   1 H    1.004 --     5 C    0.973
    41   1 H    1.004 --    10 C    0.973
    42   1 H    1.013 --    11 C    0.972
    43   1 H    1.013 --    13 C    0.972
    44   1 H    1.004 --    14 C    0.973
    45   1 H    1.004 --    16 C    0.973
    46   1 H    1.002 --    17 C    0.974
    47   1 H    1.002 --    22 C    0.974
    48   1 H    1.004 --    23 C    0.973
    49   1 H    1.004 --    28 C    0.973
    50   1 H    1.013 --    29 C    0.972
    51   1 H    1.013 --    31 C    0.972
    52   1 H    1.004 --    32 C    0.973
    53   1 H    1.004 --    34 C    0.973
    54   1 H    0.998 --    35 C    0.975
    55  29 Cu   2.190 --    91 N    0.506    61 N    0.506    72 N    0.503
                            79 N    0.503
    56   6 C    3.930 --    90 C    1.362    57 C    1.362    92 H    0.971
    57   6 C    3.916 --    56 C    1.362    61 N    1.229    58 C    1.170
    58   6 C    3.955 --    59 C    1.657    57 C    1.170    93 H    0.975
    59   6 C    3.958 --    58 C    1.657    60 C    1.172    94 H    0.973
    60   6 C    3.914 --    62 C    1.319    61 N    1.239    59 C    1.172
    61   7 N    3.244 --    60 C    1.239    57 C    1.229    55 Cu   0.506
    62   6 C    3.935 --    69 C    1.327    60 C    1.319    63 C    1.026
    63   6 C    3.986 --    68 C    1.394    64 C    1.393    62 C    1.026
                            66 N    0.107
    64   6 C    3.987 --    65 C    1.442    63 C    1.393    95 H    0.973
                            67 C    0.109
    65   6 C    3.972 --    64 C    1.442    66 N    1.416    96 H    0.972
                            68 C    0.109
    66   7 N    3.030 --    67 C    1.416    65 C    1.416    63 C    0.107
    67   6 C    3.972 --    68 C    1.442    66 N    1.416    97 H    0.972
                            64 C    0.109
    68   6 C    3.987 --    67 C    1.442    63 C    1.394    98 H    0.973
                            65 C    0.109
    69   6 C    3.908 --    62 C    1.327    72 N    1.221    70 C    1.179
    70   6 C    3.954 --    71 C    1.643    69 C    1.179    99 H    0.973
    71   6 C    3.956 --    70 C    1.643    73 C    1.186   100 H    0.974
    72   7 N    3.248 --    73 C    1.256    69 C    1.221    55 Cu   0.503
    73   6 C    3.896 --    74 C    1.259    72 N    1.256    71 C    1.186
    74   6 C    3.940 --    75 C    1.259    73 C    1.259   124 C    1.188
    75   6 C    3.896 --    74 C    1.259    79 N    1.256    76 C    1.186
    76   6 C    3.956 --    77 C    1.643    75 C    1.186   101 H    0.974
    77   6 C    3.954 --    76 C    1.643    78 C    1.179   102 H    0.973
    78   6 C    3.908 --    80 C    1.326    79 N    1.222    77 C    1.179
    79   7 N    3.248 --    75 C    1.256    78 C    1.222    55 Cu   0.503
    80   6 C    3.935 --    78 C    1.326    87 C    1.319    81 C    1.028
    81   6 C    3.986 --    82 C    1.393    86 C    1.393    80 C    1.028
                            84 N    0.107
    82   6 C    3.987 --    83 C    1.442    81 C    1.393   103 H    0.973
                            85 C    0.108
    83   6 C    3.972 --    82 C    1.442    84 N    1.416   104 H    0.972
                            86 C    0.108
    84   7 N    3.030 --    83 C    1.416    85 C    1.415    81 C    0.107
    85   6 C    3.972 --    86 C    1.442    84 N    1.415   105 H    0.972
                            82 C    0.108
    86   6 C    3.987 --    85 C    1.442    81 C    1.393   106 H    0.973
                            83 C    0.108
    87   6 C    3.914 --    80 C    1.319    91 N    1.239    88 C    1.172
    88   6 C    3.958 --    89 C    1.656    87 C    1.172   107 H    0.973
    89   6 C    3.955 --    88 C    1.656    90 C    1.170   108 H    0.975
    90   6 C    3.916 --    56 C    1.362    91 N    1.229    89 C    1.170
    91   7 N    3.244 --    87 C    1.239    90 C    1.229    55 Cu   0.506
    92   1 H    1.001 --    56 C    0.971
    93   1 H    0.998 --    58 C    0.975
    94   1 H    1.004 --    59 C    0.973
    95   1 H    1.004 --    64 C    0.973
    96   1 H    1.013 --    65 C    0.972
    97   1 H    1.013 --    67 C    0.972
    98   1 H    1.004 --    68 C    0.973
    99   1 H    1.004 --    70 C    0.973
   100   1 H    1.002 --    71 C    0.974
   101   1 H    1.002 --    76 C    0.974
   102   1 H    1.004 --    77 C    0.973
   103   1 H    1.004 --    82 C    0.973
   104   1 H    1.013 --    83 C    0.972
   105   1 H    1.013 --    85 C    0.972
   106   1 H    1.004 --    86 C    0.973
   107   1 H    1.004 --    88 C    0.973
   108   1 H    0.998 --    89 C    0.975
   109   6 C    3.877 --   110 C    2.443    20 C    1.188   112 C    0.187
   110   6 C    3.936 --   109 C    2.443   111 C    1.342
   111   6 C    3.893 --   112 C    2.339   110 C    1.342   114 C    0.182
   112   6 C    3.926 --   111 C    2.339   113 C    1.367   109 C    0.187
   113   6 C    3.925 --   114 C    2.338   112 C    1.367   116 C    0.187
   114   6 C    3.893 --   113 C    2.338   115 C    1.343   111 C    0.182
   115   6 C    3.933 --   116 C    2.440   114 C    1.343
   116   6 C    3.877 --   115 C    2.440   126 C    1.191   113 C    0.187
   117   6 C    3.877 --   118 C    2.439   144 C    1.191   120 C    0.187
   118   6 C    3.933 --   117 C    2.439   119 C    1.343
   119   6 C    3.893 --   120 C    2.337   118 C    1.343   122 C    0.182
   120   6 C    3.925 --   119 C    2.337   121 C    1.368   117 C    0.187
   121   6 C    3.926 --   122 C    2.338   120 C    1.368   124 C    0.187
   122   6 C    3.893 --   121 C    2.338   123 C    1.342   119 C    0.182
   123   6 C    3.936 --   124 C    2.443   122 C    1.342
   124   6 C    3.877 --   123 C    2.443    74 C    1.188   121 C    0.187
   125  29 Cu   2.160 --   131 N    0.498   149 N    0.498   161 N    0.498
                           142 N    0.498
   126   6 C    3.929 --   160 C    1.257   127 C    1.256   116 C    1.191
   127   6 C    3.897 --   131 N    1.259   126 C    1.256   128 C    1.187
   128   6 C    3.955 --   129 C    1.642   127 C    1.187   162 H    0.974
   129   6 C    3.955 --   128 C    1.642   130 C    1.180   163 H    0.973
   130   6 C    3.906 --   132 C    1.324   131 N    1.222   129 C    1.180
   131   7 N    3.241 --   127 C    1.259   130 C    1.222   125 Cu   0.498
   132   6 C    3.931 --   139 C    1.324   130 C    1.324   133 C    1.026
   133   6 C    3.986 --   138 C    1.393   134 C    1.393   132 C    1.026
                           136 N    0.107
   134   6 C    3.987 --   135 C    1.442   133 C    1.393   164 H    0.973
                           137 C    0.109
   135   6 C    3.972 --   134 C    1.442   136 N    1.416   165 H    0.972
                           138 C    0.109
   136   7 N    3.030 --   137 C    1.416   135 C    1.416   133 C    0.107
   137   6 C    3.972 --   138 C    1.442   136 N    1.416   166 H    0.972
                           134 C    0.109
   138   6 C    3.987 --   137 C    1.442   133 C    1.393   167 H    0.973
                           135 C    0.109
   139   6 C    3.906 --   132 C    1.324   142 N    1.222   140 C    1.180
   140   6 C    3.955 --   141 C    1.642   139 C    1.180   168 H    0.973
   141   6 C    3.955 --   140 C    1.642   143 C    1.187   169 H    0.974
   142   7 N    3.241 --   143 C    1.259   139 C    1.222   125 Cu   0.498
   143   6 C    3.897 --   142 N    1.259   144 C    1.256   141 C    1.187
   144   6 C    3.929 --   145 C    1.257   143 C    1.256   117 C    1.191
   145   6 C    3.897 --   149 N    1.259   144 C    1.257   146 C    1.187
   146   6 C    3.955 --   147 C    1.642   145 C    1.187   170 H    0.974
   147   6 C    3.955 --   146 C    1.642   148 C    1.180   171 H    0.973
   148   6 C    3.906 --   150 C    1.324   149 N    1.222   147 C    1.180
   149   7 N    3.241 --   145 C    1.259   148 C    1.222   125 Cu   0.498
   150   6 C    3.931 --   157 C    1.324   148 C    1.324   151 C    1.025
   151   6 C    3.986 --   156 C    1.394   152 C    1.394   150 C    1.025
                           154 N    0.107
   152   6 C    3.987 --   153 C    1.442   151 C    1.394   172 H    0.973
                           155 C    0.109
   153   6 C    3.972 --   152 C    1.442   154 N    1.416   173 H    0.972
                           156 C    0.109
   154   7 N    3.030 --   155 C    1.416   153 C    1.416   151 C    0.107
   155   6 C    3.972 --   156 C    1.442   154 N    1.416   174 H    0.972
                           152 C    0.109
   156   6 C    3.987 --   155 C    1.442   151 C    1.394   175 H    0.973
                           153 C    0.109
   157   6 C    3.906 --   150 C    1.324   161 N    1.222   158 C    1.180
   158   6 C    3.955 --   159 C    1.642   157 C    1.180   176 H    0.973
   159   6 C    3.955 --   158 C    1.642   160 C    1.187   177 H    0.974
   160   6 C    3.897 --   161 N    1.259   126 C    1.257   159 C    1.187
   161   7 N    3.241 --   160 C    1.259   157 C    1.222   125 Cu   0.498
   162   1 H    1.002 --   128 C    0.974
   163   1 H    1.004 --   129 C    0.973
   164   1 H    1.004 --   134 C    0.973
   165   1 H    1.013 --   135 C    0.972
   166   1 H    1.013 --   137 C    0.972
   167   1 H    1.004 --   138 C    0.973
   168   1 H    1.004 --   140 C    0.973
   169   1 H    1.002 --   141 C    0.974
   170   1 H    1.002 --   146 C    0.974
   171   1 H    1.004 --   147 C    0.973
   172   1 H    1.004 --   152 C    0.973
   173   1 H    1.013 --   153 C    0.972
   174   1 H    1.013 --   155 C    0.972
   175   1 H    1.004 --   156 C    0.973
   176   1 H    1.004 --   158 C    0.973
   177   1 H    1.002 --   159 C    0.974
 ---------------------------------------------------------------------------

           -------------------------------------------------
          | TOTAL ENERGY             -321.513657075123 Eh   |
          | GRADIENT NORM               0.000722776902 Eh/α |
          | HOMO-LUMO GAP               0.000015032529 eV   |
           -------------------------------------------------

 * finished run on 2022/07/30 at 05:05:45.194
