   * xtb version 6.5.1 (b24c23e) compiled by 'conda@728c89f4b128' on 2022-07-12
          program call               : xtb H_C4_4.xyz --gfn 1 --opt -T 48

   ID    Z sym.   atoms
    1    6 C      1-5, 7-10, 12-17, 19-23, 38-42, 44-47, 49-54, 56-60, 75-91,
                  93-96, 98-103, 105-109, 123-127, 129-132, 134-139, 141-145
    2    7 N      6, 11, 18, 24, 43, 48, 55, 61, 92, 97, 104, 110, 128, 133,
                  140, 146
    3    1 H      25-37, 62-74, 111-122, 147-158

          :  Hamiltonian                  GFN1-xTB          :
 * total energy  :  -271.0692554 Eh     change       -0.3621437E-08 Eh
 * total energy  :  -271.3411069 Eh     change       -0.2718514E+00 Eh
 * total energy  :  -271.4973850 Eh     change       -0.1562782E+00 Eh
 * total energy  :  -271.5481319 Eh     change       -0.5074690E-01 Eh
 * total energy  :  -271.5737855 Eh     change       -0.2565362E-01 Eh
 * total energy  :  -271.5855997 Eh     change       -0.1181419E-01 Eh
 * total energy  :  -271.5903894 Eh     change       -0.4789642E-02 Eh
 * total energy  :  -271.5919148 Eh     change       -0.1525402E-02 Eh
 * total energy  :  -271.5931416 Eh     change       -0.1226830E-02 Eh
 * total energy  :  -271.5941376 Eh     change       -0.9960516E-03 Eh
 * total energy  :  -272.0666162 Eh     change       -0.1057749E-04 Eh
 * total energy  :  -272.0666263 Eh     change       -0.1005229E-04 Eh
 * total energy  :  -272.0666357 Eh     change       -0.9442995E-05 Eh
 * total energy  :  -272.0666446 Eh     change       -0.8929605E-05 Eh
 * total energy  :  -272.0666529 Eh     change       -0.8290798E-05 Eh
 * total energy  :  -272.0666606 Eh     change       -0.7657844E-05 Eh
 * total energy  :  -272.0666675 Eh     change       -0.6896482E-05 Eh
 * total energy  :  -272.0666736 Eh     change       -0.6151195E-05 Eh
 * total energy  :  -272.0666746 Eh     change       -0.9830315E-06 Eh
   *** GEOMETRY OPTIMIZATION CONVERGED AFTER 152 ITERATIONS ***

 final structure:
================
158
 xtb: 6.5.1 (b24c23e)
C           20.36187994306968       -0.05470303655892       -0.00306466296913
C           20.98549258765387       -1.29532999981080       -0.04310630400155
C           20.37094840285673       -2.57986467177814       -0.08436674829443
C           21.36268964551781       -3.51956087217610       -0.11451749023277
C           22.61417650893701       -2.83914882836615       -0.09260762231283
N           22.33541484548118       -1.50363993476540       -0.04984267973606
C           23.88263708313532       -3.40737183693091       -0.11032565262746
C           25.10302884819266       -2.74760997033274       -0.08871291788866
C           26.38069450138423       -3.43756497092630       -0.10961281079009
C           27.33136560156230       -2.48071346063568       -0.07878136547720
N           25.29777307682190       -1.40131226221379       -0.04613180090681
C           26.63066849496750       -1.20964648272906       -0.03922854876978
C           27.28697560684526        0.03849409144469       -0.00064931385200
C           26.63744575892400        1.28700599505582        0.03721436801275
C           27.24641691172393        2.57031642748384        0.07676989393819
C           26.25070471053950        3.50764996411662        0.10630307027337
C           25.00361288014587        2.82283230330016        0.08556392556484
N           25.28985041357863        1.48492487016432        0.04371628877420
C           23.73631264216742        3.39206512383883        0.10440620590745
C           22.51500125408123        2.73004557192691        0.08454884639796
C           21.23086638435960        3.41353684440659        0.10734566863392
C           20.28643876264764        2.45190507261968        0.07737173686013
C           20.99444839479428        1.18226113829165        0.03634486318693
N           22.33285038946314        1.38932494607381        0.04203714991738
H           19.27704536051593       -0.06124057520660       -0.00291907199491
H           19.30562004230769       -2.74756897607860       -0.08976968970869
H           21.25133082522729       -4.59174522173301       -0.14893475233361
H           23.03012009655074       -0.76475870947612       -0.02608852437921
H           23.91282324517895       -4.49177296354798       -0.14484839143368
H           26.50016676361578       -4.50914794314714       -0.14334299766911
H           28.40392282099141       -2.59326434263364       -0.08164753496870
H           28.31098003870169        2.74161012192380        0.08172175220279
H           26.35871455916697        4.58007198358853        0.13962657052126
H           24.59767961609202        0.74328904819404        0.02108804686169
H           23.70758398541050        4.47643580506557        0.13860512343818
H           21.10555647761563        4.48460584392713        0.14164135512433
H           19.21265868142488        2.55679820316809        0.08154715587782
C           68.01682448098404        0.06062595619348       -0.00114742411599
C           67.39249760487506        1.29011185924050       -0.16915676933796
C           68.00631406705142        2.56407965915162       -0.34130808787363
C           67.01404423244358        3.49503658138554       -0.46860253790304
C           65.76294191426724        2.81958617686244       -0.37819838313780
N           66.04245946495082        1.49567324486492       -0.19862150255555
C           64.49415663198717        3.38216816033195       -0.45475531887812
C           63.27415904814145        2.72720812790756       -0.36670758234286
C           61.99607112470707        3.41056256995219       -0.45850112497631
C           61.04598497524288        2.46110641029421       -0.33138567018243
N           63.08024307069098        1.39207083651168       -0.18770756623600
C           61.74745884665471        1.20110086619376       -0.16263164455004
C           61.09192714580387       -0.03735331433719        0.00032259277779
C           61.74217198692882       -1.27516157894604        0.16488447848822
C           61.13392545830603       -2.54833521980563        0.33332903467223
C           62.13015858265778       -3.47693802839396        0.46027217008259
C           63.37686152028810       -2.79668884753078        0.37284886194679
N           63.08987592635825       -1.47024179916953        0.19438093562163
C           64.64448133837850       -3.35989041823842        0.45264767729422
C           65.86538813734924       -2.70226263040889        0.36791257577745
C           67.14993117188581       -3.37869190848961        0.46315899773705
C           68.09377133984788       -2.42438732022428        0.33649811662182
C           67.38499424032025       -1.16626301240266        0.16410899119291
N           66.04672354991834       -1.37279827479665        0.18858269683889
H           69.10165374013965        0.06799291633437       -0.00014445028871
H           69.07154714235625        2.73109250235718       -0.36285072133044
H           67.12479660066803        4.55811911542076       -0.61266303067927
H           65.34816404668385        0.76264278819341       -0.09990743674102
H           64.46333003142401        4.45735314745828       -0.59985447286120
H           61.87594419090554        4.47309551752276       -0.60095878956917
H           59.97335903990969        2.57201351906336       -0.34649855021476
H           60.06946207109186       -2.71914453099479        0.35338030477692
H           62.02275232382836       -4.54049572707903        0.60230415077189
H           63.78163318292910       -0.73413933663664        0.09815178430720
H           64.67384913389506       -4.43507173566014        0.59747573579711
H           67.27588636451988       -4.44048363494815        0.60738118668282
H           69.16761106539008       -2.52736546688043        0.35345973892044
C           29.91407179111024        0.05987859697827        0.00198557429654
C           28.69148739712773        0.05045483060218        0.00053650217194
C           31.26319005481638        0.06430704399669        0.00301551639504
C           32.48595429719962        0.06352023448900        0.00437185441414
C           43.51516396296695        0.00199323381364        0.00143941565511
C           42.29212665449409        0.00865025690042        0.00231313314715
C           44.86388070874597       -0.00180671363094        0.00055367503522
C           46.08688464482484       -0.00809811426231       -0.00023733662063
C           57.11568996080505       -0.06565645595273       -0.00001359235641
C           55.89295823325406       -0.06484757998447       -0.00031025118664
C           58.46482569663225       -0.06059890947468        0.00091357581623
C           59.68739901466179       -0.05028238139445        0.00039652401045
C           33.88955778269352        0.06063859276698        0.00518776739301
C           34.53613333883155        1.31203942772822        0.00051455308446
C           33.92972271103250        2.59580425833467       -0.00460738036145
C           34.92872029793929        3.53148849625837       -0.00963542990268
C           36.17310832297591        2.84357876009658       -0.00770928207770
N           35.88431915309338        1.50646488420996       -0.00126797953394
C           37.44162101631808        3.41450529933093       -0.01251735066067
C           38.66951236596807        2.77080309627211       -0.01130495470270
C           39.93742950733638        3.47885783561976       -0.01784213812070
C           40.90179213068344        2.53503915758932       -0.01383174498904
N           38.88369122356533        1.42661575732809       -0.00382700150004
C           40.21915930001543        1.25435124416981       -0.00481322355090
C           40.88882846000079        0.01255221488055        0.00338740324893
C           40.24193170667592       -1.23885385087016        0.01283134732239
C           40.84822875466131       -2.52274603567469        0.02136094095652
C           39.84918390467468       -3.45823773873130        0.02714789358521
C           38.60478634033587       -2.77022474705482        0.02226630770794
N           38.89379933246833       -1.43301803722489        0.01392973760613
C           37.33645793538437       -3.34111266328343        0.02454048709686
C           36.10840672047176       -2.69740963512717        0.01956176998906
C           34.84046340350938       -3.40550663303490        0.02179139758922
C           33.87613321615252       -2.46174363183956        0.01592033987645
C           34.55881364504101       -1.18105274239618        0.01046789719644
N           35.89452736738255       -1.35340308294269        0.01251882656183
H           32.86560729495677        2.76976445559242       -0.00452137665844
H           34.82306922440906        4.60465120557737       -0.01435660632750
H           36.57115763616432        0.75947174385677        0.00134820719925
H           37.46219541131237        4.49994260681259       -0.01823619316585
H           40.04182951826902        4.55254028073479       -0.02447499374249
H           41.97273754272284        2.66237944152684       -0.01640249441379
H           41.91228340869856       -2.69687652787041        0.02269626862167
H           39.95462805404278       -4.53139632995105        0.03406034597858
H           38.20696418197546       -0.68604139882392        0.00880375198312
H           37.31579525825704       -4.42654034058494        0.03078167969804
H           34.73602488825845       -4.47917735687343        0.02706630848572
H           32.80522223839176       -2.58911588802958        0.01540735129520
C           47.49018879593381       -0.01228106310747       -0.00100169534079
C           48.13733524812211        1.23777673326943       -0.05690921486355
C           47.53127686678712        2.52054851580759       -0.11385289479328
C           48.53049024902088        3.45481905086187       -0.15831030878385
C           49.77475739854290        2.76714850541650       -0.12966242315816
N           49.48550041392271        1.43138819728611       -0.06805934399635
C           51.04319274835685        3.33702062587278       -0.15940349216601
C           52.27109294505495        2.69357441052019       -0.13234411829716
C           53.53919872009470        3.40043421156360       -0.16899869590757
C           54.50330362466762        2.45743041215677       -0.12547157851393
N           52.48464894062822        1.35102739944696       -0.06833998621385
C           53.82032468905457        1.17844526235079       -0.06223133925625
C           54.48932599383502       -0.06185189281700       -0.00052110675406
C           53.84254940204111       -1.31160038251221        0.06152445940144
C           54.44871580526634       -2.59397175287404        0.12403321337794
C           53.44954190194075       -3.52848208196279        0.16719771487292
C           52.20528238205774       -2.84121947354865        0.13223622383082
N           52.49432293239290       -1.50563882621543        0.06910321676808
C           50.93665358308343       -3.41139723515851        0.15630397893204
C           49.70890572405501       -2.76822183577098        0.12411090601280
C           48.44083236121715       -3.47537795094299        0.15439777731499
C           47.47667765346198       -2.53235839036633        0.11057095769401
C           48.15959166866253       -1.25304943850286        0.05373219597907
N           49.49502286531678       -1.42536604263485        0.06278567537400
H           46.46725528374764        2.69478938274667       -0.11970951418491
H           48.42524991793151        4.52692205080512       -0.20683845669167
H           50.17220729100191        0.68498281345123       -0.03557126938829
H           51.06409536708248        4.42127709503856       -0.21006637888894
H           53.64389102420517        4.47283807559749       -0.22088687426106
H           55.57424229167498        2.58430021203491       -0.13366749103031
H           55.51279769093362       -2.76786052487246        0.13385138100070
H           53.55498797602716       -4.60044470808844        0.21857673209979
H           51.80761865705885       -0.75943732853347        0.03205848992785
H           50.91583943397404       -4.49567112776716        0.20676389571468
H           48.33619411313841       -4.54796834460631        0.20274066945797
H           46.40570507186829       -2.65941418020085        0.11498456363439

          :  Hamiltonian                  GFN1-xTB          :
         :: total energy            -272.066674628745 Eh    ::
         :: gradient norm              0.000159240131 Eh/a0 ::
         :: HOMO-LUMO gap              0.777488397783 eV    ::
         :: SCC energy              -276.716894500545 Eh    ::
         :: repulsion energy           4.776923073818 Eh    ::

    * Orbital Energies and Occupations

         #    Occupation            Energy/Eh            Energy/eV
      -------------------------------------------------------------
         1        2.0000           -0.8051084             -21.9081
       ...           ...                  ...                  ...
       237        2.0000           -0.4165073             -11.3337
       238        2.0000           -0.4165049             -11.3337
       239        2.0000           -0.4163265             -11.3288
       240        2.0000           -0.4162385             -11.3264
       241        2.0000           -0.4159496             -11.3186
       242        2.0000           -0.4003256             -10.8934
       243        2.0000           -0.4002636             -10.8917
       244        2.0000           -0.3992901             -10.8652
       245        2.0000           -0.3992527             -10.8642
       246        2.0000           -0.3940628             -10.7230
       247        2.0000           -0.3891991             -10.5906
       248        2.0000           -0.3823671             -10.4047
       249        2.0000           -0.3762662             -10.2387 (HOMO)
       250        0.0000           -0.3476940              -9.4612 (LUMO)
       251                         -0.3403642              -9.2618
       252                         -0.3326327              -9.0514
       253                         -0.3317155              -9.0264
       254                         -0.3315469              -9.0219
       255                         -0.3311365              -9.0107
       256                         -0.3308019              -9.0016
       257                         -0.3265546              -8.8860
       258                         -0.3052350              -8.3059
       259                         -0.2984009              -8.1199
       260                         -0.2927717              -7.9667
       ...                                ...                  ...
       532                          1.5146400              41.2155
      -------------------------------------------------------------
                  HL-Gap            0.0285722 Eh            0.7775 eV

Wiberg/Mayer (AO) data.
largest (>0.10) Wiberg bond orders for each atom

     #   Z sym  total        # sym  WBO       # sym  WBO       # sym  WBO
 ---------------------------------------------------------------------------
     1   6 C    3.929 --    23 C    1.363     2 C    1.349    25 H    0.972
     2   6 C    3.903 --     1 C    1.349     3 C    1.225     6 N    1.172
     3   6 C    3.954 --     4 C    1.602     2 C    1.225    26 H    0.977
     4   6 C    3.958 --     3 C    1.602     5 C    1.226    27 H    0.977
     5   6 C    3.897 --     7 C    1.342     4 C    1.226     6 N    1.174
     6   7 N    3.471 --     5 C    1.174     2 C    1.172    28 H    0.873
     7   6 C    3.944 --     8 C    1.379     5 C    1.342    29 H    0.971
     8   6 C    3.915 --     7 C    1.379    11 N    1.277     9 C    1.119
     9   6 C    3.965 --    10 C    1.717     8 C    1.119    30 H    0.976
    10   6 C    3.964 --     9 C    1.717    12 C    1.124    31 H    0.975
    11   7 N    3.026 --    12 C    1.353     8 C    1.277
    12   6 C    3.909 --    11 N    1.353    13 C    1.251    10 C    1.124
    13   6 C    3.941 --    14 C    1.253    12 C    1.251    76 C    1.194
    14   6 C    3.885 --    13 C    1.253    15 C    1.245    18 N    1.193
    15   6 C    3.959 --    16 C    1.589    14 C    1.245    32 H    0.975
    16   6 C    3.953 --    15 C    1.589    17 C    1.233    33 H    0.977
    17   6 C    3.899 --    19 C    1.349    16 C    1.233    18 N    1.162
    18   7 N    3.476 --    14 C    1.193    17 C    1.162    34 H    0.873
    19   6 C    3.929 --    20 C    1.364    17 C    1.349    35 H    0.971
    20   6 C    3.930 --    19 C    1.364    24 N    1.308    21 C    1.112
    21   6 C    3.967 --    22 C    1.729    20 C    1.112    36 H    0.976
    22   6 C    3.966 --    21 C    1.729    23 C    1.113    37 H    0.976
    23   6 C    3.929 --     1 C    1.363    24 N    1.308    22 C    1.113
    24   7 N    3.015 --    20 C    1.308    23 C    1.308
    25   1 H    1.002 --     1 C    0.972
    26   1 H    0.998 --     3 C    0.977
    27   1 H    0.998 --     4 C    0.977
    28   1 H    0.986 --     6 N    0.873
    29   1 H    1.002 --     7 C    0.971
    30   1 H    0.998 --     9 C    0.976
    31   1 H    1.003 --    10 C    0.975
    32   1 H    1.002 --    15 C    0.975
    33   1 H    0.998 --    16 C    0.977
    34   1 H    0.987 --    18 N    0.873
    35   1 H    1.002 --    19 C    0.971
    36   1 H    0.998 --    21 C    0.976
    37   1 H    0.998 --    22 C    0.976
    38   6 C    3.929 --    60 C    1.363    39 C    1.349    62 H    0.972
    39   6 C    3.903 --    38 C    1.349    40 C    1.225    43 N    1.172
    40   6 C    3.954 --    41 C    1.602    39 C    1.225    63 H    0.977
    41   6 C    3.958 --    40 C    1.602    42 C    1.226    64 H    0.977
    42   6 C    3.897 --    44 C    1.342    41 C    1.226    43 N    1.174
    43   7 N    3.471 --    42 C    1.174    39 C    1.172    65 H    0.873
    44   6 C    3.944 --    45 C    1.379    42 C    1.342    66 H    0.971
    45   6 C    3.915 --    44 C    1.379    48 N    1.277    46 C    1.119
    46   6 C    3.965 --    47 C    1.717    45 C    1.119    67 H    0.976
    47   6 C    3.964 --    46 C    1.717    49 C    1.124    68 H    0.975
    48   7 N    3.026 --    49 C    1.353    45 C    1.277
    49   6 C    3.909 --    48 N    1.353    50 C    1.251    47 C    1.124
    50   6 C    3.941 --    51 C    1.253    49 C    1.251    86 C    1.193
    51   6 C    3.885 --    50 C    1.253    52 C    1.245    55 N    1.193
    52   6 C    3.959 --    53 C    1.589    51 C    1.245    69 H    0.975
    53   6 C    3.953 --    52 C    1.589    54 C    1.233    70 H    0.977
    54   6 C    3.899 --    56 C    1.349    53 C    1.233    55 N    1.162
    55   7 N    3.476 --    51 C    1.193    54 C    1.162    71 H    0.873
    56   6 C    3.929 --    57 C    1.364    54 C    1.349    72 H    0.971
    57   6 C    3.930 --    56 C    1.364    61 N    1.308    58 C    1.112
    58   6 C    3.967 --    59 C    1.729    57 C    1.112    73 H    0.976
    59   6 C    3.966 --    58 C    1.729    60 C    1.113    74 H    0.976
    60   6 C    3.929 --    38 C    1.363    61 N    1.308    59 C    1.113
    61   7 N    3.015 --    57 C    1.308    60 C    1.308
    62   1 H    1.002 --    38 C    0.972
    63   1 H    0.998 --    40 C    0.977
    64   1 H    0.998 --    41 C    0.977
    65   1 H    0.986 --    43 N    0.873
    66   1 H    1.002 --    44 C    0.971
    67   1 H    0.998 --    46 C    0.976
    68   1 H    1.003 --    47 C    0.975
    69   1 H    1.002 --    52 C    0.975
    70   1 H    0.998 --    53 C    0.977
    71   1 H    0.987 --    55 N    0.873
    72   1 H    1.002 --    56 C    0.971
    73   1 H    0.998 --    58 C    0.976
    74   1 H    0.998 --    59 C    0.976
    75   6 C    3.933 --    76 C    2.471    77 C    1.312
    76   6 C    3.923 --    75 C    2.471    13 C    1.194    78 C    0.198
    77   6 C    3.930 --    78 C    2.469    75 C    1.312
    78   6 C    3.925 --    77 C    2.469    87 C    1.197    76 C    0.198
    79   6 C    3.929 --    80 C    2.466    81 C    1.315
    80   6 C    3.923 --    79 C    2.466    99 C    1.198    82 C    0.198
    81   6 C    3.930 --    82 C    2.466    79 C    1.315
    82   6 C    3.923 --    81 C    2.466   123 C    1.198    80 C    0.198
    83   6 C    3.930 --    84 C    2.469    85 C    1.312
    84   6 C    3.925 --    83 C    2.469   135 C    1.196    86 C    0.198
    85   6 C    3.933 --    86 C    2.471    83 C    1.312
    86   6 C    3.923 --    85 C    2.471    50 C    1.193    84 C    0.198
    87   6 C    3.927 --   109 C    1.251    88 C    1.248    78 C    1.197
    88   6 C    3.886 --    89 C    1.250    87 C    1.248    92 N    1.193
    89   6 C    3.955 --    90 C    1.582    88 C    1.250   111 H    0.975
    90   6 C    3.954 --    89 C    1.582    91 C    1.239   112 H    0.977
    91   6 C    3.894 --    93 C    1.337    90 C    1.239    92 N    1.164
    92   7 N    3.472 --    88 C    1.193    91 C    1.164   113 H    0.872
    93   6 C    3.931 --    94 C    1.383    91 C    1.337   114 H    0.971
    94   6 C    3.918 --    93 C    1.383    97 N    1.274    95 C    1.119
    95   6 C    3.965 --    96 C    1.716    94 C    1.119   115 H    0.976
    96   6 C    3.963 --    95 C    1.716    98 C    1.125   116 H    0.975
    97   7 N    3.013 --    98 C    1.354    94 C    1.274
    98   6 C    3.909 --    97 N    1.354    99 C    1.249    96 C    1.125
    99   6 C    3.927 --    98 C    1.249   100 C    1.248    80 C    1.198
   100   6 C    3.886 --   101 C    1.250    99 C    1.248   104 N    1.193
   101   6 C    3.955 --   102 C    1.582   100 C    1.250   117 H    0.975
   102   6 C    3.954 --   101 C    1.582   103 C    1.239   118 H    0.977
   103   6 C    3.894 --   105 C    1.339   102 C    1.239   104 N    1.163
   104   7 N    3.472 --   100 C    1.193   103 C    1.163   119 H    0.872
   105   6 C    3.931 --   106 C    1.382   103 C    1.339   120 H    0.971
   106   6 C    3.918 --   105 C    1.382   110 N    1.275   107 C    1.119
   107   6 C    3.965 --   108 C    1.716   106 C    1.119   121 H    0.976
   108   6 C    3.964 --   107 C    1.716   109 C    1.125   122 H    0.975
   109   6 C    3.910 --   110 N    1.353    87 C    1.251   108 C    1.125
   110   7 N    3.013 --   109 C    1.353   106 C    1.275
   111   1 H    1.001 --    89 C    0.975
   112   1 H    0.998 --    90 C    0.977
   113   1 H    0.986 --    92 N    0.872
   114   1 H    1.002 --    93 C    0.971
   115   1 H    0.998 --    95 C    0.976
   116   1 H    1.002 --    96 C    0.975
   117   1 H    1.001 --   101 C    0.975
   118   1 H    0.998 --   102 C    0.977
   119   1 H    0.986 --   104 N    0.872
   120   1 H    1.002 --   105 C    0.971
   121   1 H    0.998 --   107 C    0.976
   122   1 H    1.002 --   108 C    0.975
   123   6 C    3.927 --   145 C    1.249   124 C    1.248    82 C    1.198
   124   6 C    3.886 --   125 C    1.250   123 C    1.248   128 N    1.193
   125   6 C    3.955 --   126 C    1.582   124 C    1.250   147 H    0.975
   126   6 C    3.954 --   125 C    1.582   127 C    1.239   148 H    0.977
   127   6 C    3.894 --   129 C    1.339   126 C    1.239   128 N    1.163
   128   7 N    3.472 --   124 C    1.193   127 C    1.163   149 H    0.872
   129   6 C    3.931 --   130 C    1.382   127 C    1.339   150 H    0.971
   130   6 C    3.918 --   129 C    1.382   133 N    1.275   131 C    1.119
   131   6 C    3.965 --   132 C    1.716   130 C    1.119   151 H    0.976
   132   6 C    3.964 --   131 C    1.716   134 C    1.125   152 H    0.975
   133   7 N    3.013 --   134 C    1.353   130 C    1.275
   134   6 C    3.910 --   133 N    1.353   135 C    1.251   132 C    1.125
   135   6 C    3.927 --   134 C    1.251   136 C    1.248    84 C    1.196
   136   6 C    3.886 --   137 C    1.250   135 C    1.248   140 N    1.193
   137   6 C    3.955 --   138 C    1.582   136 C    1.250   153 H    0.975
   138   6 C    3.954 --   137 C    1.582   139 C    1.239   154 H    0.977
   139   6 C    3.894 --   141 C    1.337   138 C    1.239   140 N    1.164
   140   7 N    3.472 --   136 C    1.193   139 C    1.164   155 H    0.872
   141   6 C    3.931 --   142 C    1.383   139 C    1.337   156 H    0.971
   142   6 C    3.918 --   141 C    1.383   146 N    1.274   143 C    1.119
   143   6 C    3.965 --   144 C    1.716   142 C    1.119   157 H    0.976
   144   6 C    3.963 --   143 C    1.716   145 C    1.125   158 H    0.975
   145   6 C    3.909 --   146 N    1.354   123 C    1.249   144 C    1.125
   146   7 N    3.013 --   145 C    1.354   142 C    1.274
   147   1 H    1.001 --   125 C    0.975
   148   1 H    0.998 --   126 C    0.977
   149   1 H    0.986 --   128 N    0.872
   150   1 H    1.002 --   129 C    0.971
   151   1 H    0.998 --   131 C    0.976
   152   1 H    1.002 --   132 C    0.975
   153   1 H    1.001 --   137 C    0.975
   154   1 H    0.998 --   138 C    0.977
   155   1 H    0.986 --   140 N    0.872
   156   1 H    1.002 --   141 C    0.971
   157   1 H    0.998 --   143 C    0.976
   158   1 H    1.002 --   144 C    0.975
 ---------------------------------------------------------------------------

           -------------------------------------------------
          | TOTAL ENERGY             -272.066674628745 Eh   |
          | GRADIENT NORM               0.000159240131 Eh/α |
          | HOMO-LUMO GAP               0.777488397783 eV   |
           -------------------------------------------------

 * finished run on 2022/07/26 at 14:22:09.227
