   * xtb version 6.5.1 (b24c23e) compiled by 'conda@728c89f4b128' on 2022-07-12
          program call               : xtb Ni_Py_C6_3.xyz --gfn 1 --opt -T 48

   ID    Z sym.   atoms
    1   28 Ni     1, 55, 121
    2    6 C      2-6, 8-11, 13-17, 19-24, 26-29, 31-36, 56-60, 62-65, 67-71,
                  73-78, 80-83, 85-90, 109-120, 122-126, 128-131, 133-137,
                  139-144, 146-149, 151-156
    3    7 N      7, 12, 18, 25, 30, 37, 61, 66, 72, 79, 84, 91, 127, 132,
                  138, 145, 150, 157
    4    1 H      38-54, 92-108, 158-173

          :  Hamiltonian                  GFN1-xTB          :
 * total energy  :  -311.1595815 Eh     change       -0.2254166E-07 Eh
 * total energy  :  -311.5428126 Eh     change       -0.3832311E+00 Eh
 * total energy  :  -311.6634880 Eh     change       -0.1206754E+00 Eh
 * total energy  :  -311.7474915 Eh     change       -0.8400350E-01 Eh
 * total energy  :  -311.8185825 Eh     change       -0.7109105E-01 Eh
 * total energy  :  -311.8873972 Eh     change       -0.6881466E-01 Eh
 * total energy  :  -311.9287926 Eh     change       -0.4139536E-01 Eh
 * total energy  :  -311.9549447 Eh     change       -0.2615214E-01 Eh
 * total energy  :  -311.9745691 Eh     change       -0.1962442E-01 Eh
 * total energy  :  -311.9874051 Eh     change       -0.1283600E-01 Eh
 * total energy  :  -312.0718776 Eh     change       -0.4593989E-05 Eh
 * total energy  :  -312.0719416 Eh     change       -0.6403978E-04 Eh
 * total energy  :  -312.0719520 Eh     change       -0.1039788E-04 Eh
 * total energy  :  -312.0719775 Eh     change       -0.2554097E-04 Eh
 * total energy  :  -312.0719988 Eh     change       -0.2122242E-04 Eh
 * total energy  :  -312.0720258 Eh     change       -0.2704492E-04 Eh
 * total energy  :  -312.0720447 Eh     change       -0.1890077E-04 Eh
 * total energy  :  -312.0720542 Eh     change       -0.9474884E-05 Eh
 * total energy  :  -312.0720587 Eh     change       -0.4568514E-05 Eh
   *** GEOMETRY OPTIMIZATION CONVERGED AFTER 55 ITERATIONS ***

 final structure:
================
173
 xtb: 6.5.1 (b24c23e)
Ni          22.17522270732636       -0.01810992396879       -0.00942602561721
C           18.78095586115434       -0.05432108941819       -0.02607377367572
C           19.44070300157519       -1.26511356021435       -0.00245691325453
C           18.76871950191207       -2.52842545397269        0.02403514681205
C           19.72842390739518       -3.47607956770350        0.13334892173084
C           20.98726566535482       -2.79037648209928        0.16712059258234
N           20.80090058749187       -1.43419657555555        0.06839585204843
C           22.20586908398678       -3.42416088466722        0.36957335451543
C           22.21877854382691       -4.89815252492983        0.53060316832169
C           22.58321142051662       -5.49195453338914        1.73776115521816
C           22.57558404316134       -6.87437183777784        1.83872211160603
N           22.23919730924024       -7.67233737767265        0.83053292493929
C           21.89333057769802       -7.11344580972819       -0.32461618045891
C           21.86528547693384       -5.74169484805411       -0.52127444814094
C           23.41149122983957       -2.73908202438565        0.42671055653657
C           24.67864047173325       -3.37812041172844        0.61531771039355
C           25.62283961697242       -2.41297776765955        0.51082402923389
N           23.57905662837296       -1.38826007093183        0.21912892434717
C           24.93198255055554       -1.18989736969950        0.25151699572021
C           25.58969720750629        0.01522856701919       -0.00874638251277
C           24.90788289425414        1.20807875121270       -0.26238843615784
C           25.57178671089742        2.43922478963509       -0.55156746078482
C           24.60863400771468        3.38652064709114       -0.64889401220851
C           23.35849365665822        2.73055080213418       -0.41157908709502
N           23.55223763954049        1.38294743507008       -0.20843332354155
C           22.13809714500573        3.39107537626015       -0.36972975841206
C           22.12437908979846        4.86503167544884       -0.51897989304711
C           21.47383376263564        5.47925776939298       -1.58830657165411
C           21.48956193214781        6.86180396292586       -1.68413794598746
N           22.09584683031062        7.64256762483736       -0.79571571737383
C           22.71711506531669        7.06488758399383        0.22744110420134
C           22.76126200600983        5.69123911212727        0.40609935141710
C           20.93006943680737        2.72822636727285       -0.19693353606478
C           19.65995167528902        3.38903864416324       -0.11942109418139
C           18.71911006318323        2.42022061147442       -0.03184076970952
C           19.41542757117464        1.17002436687228       -0.04200062987769
N           20.77175775380569        1.36745533901753       -0.11445696620840
H           17.69726016898116       -0.06563334506420       -0.02583902947692
H           17.69855475288006       -2.65207472668203       -0.02369588003147
H           19.60804386723123       -4.54501483595164        0.20101989930539
H           22.85516068211234       -4.87988939237377        2.58940242893527
H           22.85127685889353       -7.36103872070909        2.76968687485966
H           21.62604997154655       -7.79183113458886       -1.12958442534786
H           21.58577539804685       -5.32976344018291       -1.48361207692832
H           24.81809022411030       -4.43235169012599        0.78983713756621
H           26.69395502324123       -2.50655765841698        0.58815981894151
H           26.63854922707989        2.54822765411820       -0.66195550032676
H           24.72313472104967        4.43558647644947       -0.86733978367143
H           20.97581826253707        4.88178368584512       -2.34257906058695
H           20.99351918270109        7.36324849818260       -2.51001240536812
H           23.20127296413374        7.72945151492380        0.93704234564640
H           23.27099074391603        5.26451771250031        1.26167145367039
H           19.52033276788707        4.45774821230019       -0.12829591331322
H           17.64776483419867        2.52214489519965        0.03632956944192
Ni          54.19256251615886        0.03251330474486        0.00005493823619
C           57.58836761867757        0.05808452965328       -0.01454702838838
C           56.93155263688464        1.22573634753911       -0.34132497788076
C           57.60738025505792        2.44205892065882       -0.67603508581874
C           56.64946573440674        3.37952096145193       -0.86171896809567
C           55.38818312158876        2.73280616034521       -0.64527165650964
N           55.57119870436622        1.40774887612515       -0.33789685542727
C           54.16897449685684        3.39654840260823       -0.66147495473372
C           54.15875451791163        4.85119629229050       -0.94901227294625
C           53.77802628248352        5.77777673874628        0.02013626737559
C           53.78805722576160        7.12722504936548       -0.29615074498930
N           54.14181269563074        7.58826299215609       -1.49145092898145
C           54.50351666832349        6.71055179656954       -2.42154081598156
C           54.53063479435438        5.34269113889577       -2.19918901098374
C           52.96021501588677        2.75966893189002       -0.41837635426749
C           51.69360998136702        3.42616074171237       -0.44965123391166
C           50.74738754684811        2.47682005808407       -0.25681140426529
N           52.79027580454326        1.41069361149201       -0.20083608483812
C           51.43664940539365        1.23359546887210       -0.11671094577882
C           50.77638748491646        0.00999309305691        0.02315568989870
C           51.45527232096170       -1.20397849832037        0.15577451709537
C           50.78659745667716       -2.46127981371866        0.26522387536473
C           51.74831946502792       -3.39905175310967        0.43831210444171
C           53.00236573398107       -2.70854902845165        0.44398328511612
N           52.81160613712077       -1.36059217364204        0.23883693947627
C           54.22387276249533       -3.33435706115646        0.65223329541246
C           54.23713960783657       -4.78947833126001        0.93128478493229
C           54.86673355038662       -5.68564141727246        0.06843936263274
C           54.85189244907463       -7.03805144157966        0.37108758642593
N           54.26544039561258       -7.53072140984513        1.45728537582172
C           53.66449577650327       -6.68284033481773        2.28581217735864
C           53.62169388833181       -5.31500934791901        2.06658526933314
C           55.43439853349189       -2.65522835473625        0.60923807091525
C           56.70420081280120       -3.27117306700449        0.86232978574538
C           57.64643399552381       -2.31882185365475        0.67127587015714
C           56.95144025014555       -1.12044444354826        0.31246856119810
N           55.59459138736887       -1.32740274818322        0.30167785737276
H           58.67207835628177        0.06802350218702       -0.01210948245602
H           58.67844443187649        2.54663918532099       -0.74467100677371
H           56.77223833837257        4.42135776886204       -1.10911765451849
H           53.49149018309227        5.44731117922414        1.01139274246176
H           53.49999937377166        7.86919115729985        0.44277368800035
H           54.78449824187749        7.11808169065791       -3.38827966419233
H           54.82342999987002        4.66271410445637       -2.99024981229119
H           51.55608388746851        4.48254023923971       -0.61221303916415
H           49.67604088643512        2.59043144904601       -0.22059533594319
H           49.71800808554715       -2.59295067090359        0.21199189919614
H           51.63011680501810       -4.46468256022897        0.54679973089443
H           55.34799180499476       -5.32984764217508       -0.83474752905252
H           55.33165779026779       -7.75608361538804       -0.28754013439232
H           53.19678269584895       -7.11558520933981        3.16536307187708
H           53.12955767875245       -4.66004295859226        2.77560013595068
H           56.84250872327074       -4.29965667574955        1.15352353437101
H           58.71792688259103       -2.39978849352337        0.76149476172554
C           30.79169471149713        0.03592087525974       -0.03360250018019
C           29.56401385411351        0.03563283126821       -0.02804169819213
C           28.21858495074915        0.03328671144192       -0.02187796953483
C           26.99539265200899        0.02615655890837       -0.01887563665360
C           32.13699635863745        0.02947665545501       -0.03836094644588
C           33.36035401700563        0.02223208377752       -0.04165686172579
C           46.80221138820905       -0.00154946032013        0.01667581479103
C           45.57442451616197        0.00041616596665        0.01142143149481
C           44.22927225564297        0.00180705032758        0.00252156337446
C           43.00581491354563        0.00093996013374       -0.00639052361996
C           48.14748714549569        0.00061873919721        0.02253006919957
C           49.37080408665445        0.00072935915673        0.02310558442272
Ni          38.18323958013960        0.00107705059688       -0.03638036682171
C           34.76537646602253        0.01466621182807       -0.04234214590891
C           35.43309849515065       -0.76300773530788        0.90800189663890
C           34.75699889462721       -1.52798719594020        1.90649727558922
C           35.70839596980765       -2.22800223763322        2.57021887824589
C           36.96233791032566       -1.89379444877852        1.96716614456493
N           36.78481084236211       -0.96220878366097        0.96956456287907
C           38.17024919013530       -2.48042220740786        2.31929640999454
C           38.16605711221624       -3.55112771642020        3.34337480520575
C           37.48903283768768       -4.75164994289987        3.13388157638024
C           37.51782038169284       -5.72378069614068        4.12145594564393
N           38.15941105149828       -5.56589176567464        5.27464113383914
C           38.80427169732549       -4.42264242148366        5.48345990963901
C           38.83958381179441       -3.39503559949664        4.55408478181439
C           39.38295141972412       -2.10575189938029        1.75705450642595
C           40.63209658903532       -2.73142666657510        2.06676058631662
C           41.59101401898083       -2.03510138571569        1.40994188188824
N           39.57086798461005       -1.06109839127405        0.88078386926004
C           40.92425155043824       -0.99377423899453        0.69557789128699
C           41.60105217169136        0.00048368681612       -0.01687424542587
C           40.93251822348148        0.99216977271193       -0.74048168908394
C           41.60730247371006        2.03089728573938       -1.45094564664524
C           40.65643804142952        2.72164602554542       -2.12517462053529
C           39.40396605578299        2.09623569622738       -1.82860043237777
N           39.58147853620628        1.05693197159904       -0.94393901196930
C           38.19767659106743        2.46930387838002       -2.40599529854939
C           38.20636355198256        3.53331700672195       -3.43681396217528
C           38.89702560645121        3.37081048419227       -4.63700561819114
C           38.87348517769045        4.39266365507280       -5.57309121470030
N           38.22402074150970        5.53617167093923       -5.38066493847529
C           37.56617164799028        5.70031719853449       -4.23757089897074
C           37.52520300547277        4.73445219962442       -3.24432559666248
C           36.98439118982459        1.89099855003048       -2.05829542332790
C           35.73515797305248        2.23057483289381       -2.66830784156914
C           34.77553830726998        1.54586359283108       -2.00042558171064
C           35.44206904446057        0.78254931940499       -0.99429465820831
N           36.79569455528183        0.96867879760904       -1.05410817332181
H           33.69082339667047       -1.52101206345133        2.06549623623619
H           35.58299870712032       -2.90872302305757        3.39621172163044
H           36.96060478572307       -4.92751210612038        2.20451314772124
H           37.00323313224303       -6.66962258026603        3.97966404262500
H           39.31610641664514       -4.32273009765948        6.43612881885696
H           39.37048657423308       -2.47572134198685        4.77075690468810
H           40.74940133001307       -3.59320186453279        2.70315019261655
H           42.65661394175698       -2.19789318557401        1.40195554178791
H           42.67241600239810        2.19551193303516       -1.42909368843916
H           40.78116877924918        3.58026037520173       -2.76439352984980
H           39.43206378915161        2.45093631531145       -4.84067377627681
H           39.39895872445133        4.28769353747059       -6.51773312591500
H           37.04823592084352        6.64619486599558       -4.10890308059362
H           36.98425459090185        4.91577788636621       -2.32325482036166
H           35.61784986840370        2.90468003393760       -3.50089363445212
H           33.70971501288573        1.54754142420245       -2.16199659140571

          :  Hamiltonian                  GFN1-xTB          :
         :: total energy            -312.072058746577 Eh    ::
         :: gradient norm              0.000624552710 Eh/a0 ::
         :: HOMO-LUMO gap              1.092045647798 eV    ::
         :: SCC energy              -317.115330887838 Eh    ::
         :: repulsion energy           5.201379796008 Eh    ::

    * Orbital Energies and Occupations

         #    Occupation            Energy/Eh            Energy/eV
      -------------------------------------------------------------
         1        2.0000           -0.7891415             -21.4736
       ...           ...                  ...                  ...
       277        2.0000           -0.4047909             -11.0149
       278        2.0000           -0.4047634             -11.0142
       279        2.0000           -0.4042467             -11.0001
       280        2.0000           -0.4041187             -10.9966
       281        2.0000           -0.4040863             -10.9957
       282        2.0000           -0.4040569             -10.9949
       283        2.0000           -0.4030171             -10.9667
       284        2.0000           -0.4030005             -10.9662
       285        2.0000           -0.4029526             -10.9649
       286        2.0000           -0.4029377             -10.9645
       287        2.0000           -0.4009270             -10.9098
       288        2.0000           -0.3959630             -10.7747
       289        2.0000           -0.3895710             -10.6008 (HOMO)
       290                         -0.3494390              -9.5087 (LUMO)
       291                         -0.3413974              -9.2899
       292                         -0.3379825              -9.1970
       293                         -0.3370705              -9.1722
       294                         -0.3370361              -9.1712
       295                         -0.3365981              -9.1593
       296                         -0.3363418              -9.1523
       297                         -0.3355823              -9.1317
       298                         -0.3353722              -9.1259
       299                         -0.3137529              -8.5377
       300                         -0.3052920              -8.3074
       ...                                ...                  ...
       607                          1.5733063              42.8118
      -------------------------------------------------------------
                  HL-Gap            0.0401319 Eh            1.0920 eV

Wiberg/Mayer (AO) data.
largest (>0.10) Wiberg bond orders for each atom

     #   Z sym  total        # sym  WBO       # sym  WBO       # sym  WBO
 ---------------------------------------------------------------------------
     1  28 Ni   3.011 --     7 N    0.664    37 N    0.664    18 N    0.661
                            25 N    0.661
     2   6 C    3.935 --     3 C    1.364    36 C    1.364    38 H    0.970
     3   6 C    3.923 --     2 C    1.364     7 N    1.213     4 C    1.174
     4   6 C    3.960 --     5 C    1.651     3 C    1.174    39 H    0.975
     5   6 C    3.963 --     4 C    1.651     6 C    1.176    40 H    0.972
     6   6 C    3.920 --     8 C    1.324     7 N    1.221     5 C    1.176
     7   7 N    3.403 --     6 C    1.221     3 C    1.213     1 Ni   0.664
     8   6 C    3.939 --    15 C    1.330     6 C    1.324     9 C    1.022
     9   6 C    3.986 --    10 C    1.395    14 C    1.395     8 C    1.022
                            12 N    0.107
    10   6 C    3.988 --    11 C    1.441     9 C    1.395    41 H    0.973
                            13 C    0.109
    11   6 C    3.972 --    10 C    1.441    12 N    1.416    42 H    0.972
                            14 C    0.109
    12   7 N    3.031 --    11 C    1.416    13 C    1.416     9 C    0.107
    13   6 C    3.972 --    14 C    1.441    12 N    1.416    43 H    0.972
                            10 C    0.109
    14   6 C    3.988 --    13 C    1.441     9 C    1.395    44 H    0.973
                            11 C    0.109
    15   6 C    3.915 --     8 C    1.330    18 N    1.206    16 C    1.183
    16   6 C    3.959 --    17 C    1.638    15 C    1.183    45 H    0.972
    17   6 C    3.961 --    16 C    1.638    19 C    1.190    46 H    0.973
    18   7 N    3.407 --    19 C    1.239    15 C    1.206     1 Ni   0.661
    19   6 C    3.903 --    20 C    1.264    18 N    1.239    17 C    1.190
    20   6 C    3.945 --    21 C    1.265    19 C    1.264   112 C    1.181
    21   6 C    3.903 --    20 C    1.265    25 N    1.238    22 C    1.190
    22   6 C    3.961 --    23 C    1.637    21 C    1.190    47 H    0.973
    23   6 C    3.959 --    22 C    1.637    24 C    1.183    48 H    0.973
    24   6 C    3.915 --    26 C    1.328    25 N    1.207    23 C    1.183
    25   7 N    3.406 --    21 C    1.238    24 C    1.207     1 Ni   0.661
    26   6 C    3.940 --    24 C    1.328    33 C    1.322    27 C    1.027
    27   6 C    3.986 --    28 C    1.393    32 C    1.393    26 C    1.027
                            30 N    0.107
    28   6 C    3.987 --    29 C    1.442    27 C    1.393    49 H    0.973
                            31 C    0.109
    29   6 C    3.972 --    28 C    1.442    30 N    1.416    50 H    0.972
                            32 C    0.109
    30   7 N    3.030 --    29 C    1.416    31 C    1.416    27 C    0.107
    31   6 C    3.972 --    32 C    1.442    30 N    1.416    51 H    0.972
                            28 C    0.109
    32   6 C    3.987 --    31 C    1.442    27 C    1.393    52 H    0.973
                            29 C    0.109
    33   6 C    3.920 --    26 C    1.322    37 N    1.222    34 C    1.176
    34   6 C    3.963 --    35 C    1.650    33 C    1.176    53 H    0.972
    35   6 C    3.960 --    34 C    1.650    36 C    1.174    54 H    0.975
    36   6 C    3.923 --     2 C    1.364    37 N    1.213    35 C    1.174
    37   7 N    3.403 --    33 C    1.222    36 C    1.213     1 Ni   0.664
    38   1 H    1.000 --     2 C    0.970
    39   1 H    0.997 --     4 C    0.975
    40   1 H    1.004 --     5 C    0.972
    41   1 H    1.003 --    10 C    0.973
    42   1 H    1.013 --    11 C    0.972
    43   1 H    1.013 --    13 C    0.972
    44   1 H    1.003 --    14 C    0.973
    45   1 H    1.004 --    16 C    0.972
    46   1 H    1.002 --    17 C    0.973
    47   1 H    1.002 --    22 C    0.973
    48   1 H    1.004 --    23 C    0.973
    49   1 H    1.004 --    28 C    0.973
    50   1 H    1.013 --    29 C    0.972
    51   1 H    1.013 --    31 C    0.972
    52   1 H    1.004 --    32 C    0.973
    53   1 H    1.004 --    34 C    0.972
    54   1 H    0.997 --    35 C    0.975
    55  28 Ni   3.008 --    61 N    0.664    91 N    0.664    72 N    0.661
                            79 N    0.661
    56   6 C    3.935 --    90 C    1.364    57 C    1.364    92 H    0.970
    57   6 C    3.923 --    56 C    1.364    61 N    1.214    58 C    1.174
    58   6 C    3.960 --    59 C    1.651    57 C    1.174    93 H    0.975
    59   6 C    3.963 --    58 C    1.651    60 C    1.176    94 H    0.972
    60   6 C    3.920 --    62 C    1.324    61 N    1.221    59 C    1.176
    61   7 N    3.403 --    60 C    1.221    57 C    1.214    55 Ni   0.664
    62   6 C    3.939 --    69 C    1.330    60 C    1.324    63 C    1.022
    63   6 C    3.986 --    68 C    1.395    64 C    1.395    62 C    1.022
                            66 N    0.107
    64   6 C    3.988 --    65 C    1.441    63 C    1.395    95 H    0.973
                            67 C    0.109
    65   6 C    3.972 --    64 C    1.441    66 N    1.416    96 H    0.972
                            68 C    0.109
    66   7 N    3.031 --    67 C    1.416    65 C    1.416    63 C    0.107
    67   6 C    3.972 --    68 C    1.441    66 N    1.416    97 H    0.972
                            64 C    0.109
    68   6 C    3.988 --    67 C    1.441    63 C    1.395    98 H    0.973
                            65 C    0.109
    69   6 C    3.915 --    62 C    1.330    72 N    1.206    70 C    1.183
    70   6 C    3.959 --    71 C    1.638    69 C    1.183    99 H    0.972
    71   6 C    3.961 --    70 C    1.638    73 C    1.190   100 H    0.973
    72   7 N    3.407 --    73 C    1.239    69 C    1.206    55 Ni   0.661
    73   6 C    3.903 --    74 C    1.264    72 N    1.239    71 C    1.190
    74   6 C    3.945 --    75 C    1.264    73 C    1.264   120 C    1.183
    75   6 C    3.903 --    74 C    1.264    79 N    1.239    76 C    1.191
    76   6 C    3.961 --    77 C    1.637    75 C    1.191   101 H    0.973
    77   6 C    3.959 --    76 C    1.637    78 C    1.183   102 H    0.972
    78   6 C    3.915 --    80 C    1.328    79 N    1.206    77 C    1.183
    79   7 N    3.406 --    75 C    1.239    78 C    1.206    55 Ni   0.661
    80   6 C    3.939 --    78 C    1.328    87 C    1.322    81 C    1.026
    81   6 C    3.986 --    86 C    1.393    82 C    1.393    80 C    1.026
                            84 N    0.107
    82   6 C    3.987 --    83 C    1.442    81 C    1.393   103 H    0.973
                            85 C    0.109
    83   6 C    3.972 --    82 C    1.442    84 N    1.416   104 H    0.972
                            86 C    0.109
    84   7 N    3.031 --    83 C    1.416    85 C    1.416    81 C    0.107
    85   6 C    3.972 --    86 C    1.442    84 N    1.416   105 H    0.972
                            82 C    0.109
    86   6 C    3.987 --    85 C    1.442    81 C    1.393   106 H    0.973
                            83 C    0.109
    87   6 C    3.920 --    80 C    1.322    91 N    1.222    88 C    1.176
    88   6 C    3.963 --    89 C    1.650    87 C    1.176   107 H    0.972
    89   6 C    3.960 --    88 C    1.650    90 C    1.174   108 H    0.975
    90   6 C    3.923 --    56 C    1.364    91 N    1.213    89 C    1.174
    91   7 N    3.402 --    87 C    1.222    90 C    1.213    55 Ni   0.664
    92   1 H    1.000 --    56 C    0.970
    93   1 H    0.997 --    58 C    0.975
    94   1 H    1.004 --    59 C    0.972
    95   1 H    1.003 --    64 C    0.973
    96   1 H    1.013 --    65 C    0.972
    97   1 H    1.013 --    67 C    0.972
    98   1 H    1.003 --    68 C    0.973
    99   1 H    1.004 --    70 C    0.972
   100   1 H    1.002 --    71 C    0.973
   101   1 H    1.002 --    76 C    0.973
   102   1 H    1.004 --    77 C    0.972
   103   1 H    1.004 --    82 C    0.973
   104   1 H    1.013 --    83 C    0.972
   105   1 H    1.013 --    85 C    0.972
   106   1 H    1.004 --    86 C    0.973
   107   1 H    1.004 --    88 C    0.972
   108   1 H    0.997 --    89 C    0.975
   109   6 C    3.927 --   110 C    2.377   113 C    1.329   112 C    0.191
   110   6 C    3.926 --   109 C    2.377   111 C    1.329   114 C    0.191
   111   6 C    3.938 --   112 C    2.459   110 C    1.329
   112   6 C    3.891 --   111 C    2.459    20 C    1.181   109 C    0.191
   113   6 C    3.935 --   114 C    2.457   109 C    1.329
   114   6 C    3.891 --   113 C    2.457   122 C    1.184   110 C    0.191
   115   6 C    3.926 --   116 C    2.375   119 C    1.330   118 C    0.191
   116   6 C    3.928 --   115 C    2.375   117 C    1.330   120 C    0.191
   117   6 C    3.935 --   118 C    2.456   116 C    1.330
   118   6 C    3.892 --   117 C    2.456   140 C    1.185   115 C    0.191
   119   6 C    3.938 --   120 C    2.458   115 C    1.330
   120   6 C    3.891 --   119 C    2.458    74 C    1.183   116 C    0.191
   121  28 Ni   3.001 --   145 N    0.660   138 N    0.660   127 N    0.660
                           157 N    0.660
   122   6 C    3.935 --   123 C    1.262   156 C    1.262   114 C    1.184
   123   6 C    3.904 --   122 C    1.262   127 N    1.239   124 C    1.192
   124   6 C    3.960 --   125 C    1.634   123 C    1.192   158 H    0.973
   125   6 C    3.960 --   124 C    1.634   126 C    1.185   159 H    0.973
   126   6 C    3.913 --   128 C    1.325   127 N    1.205   125 C    1.185
   127   7 N    3.400 --   123 C    1.239   126 C    1.205   121 Ni   0.660
   128   6 C    3.935 --   126 C    1.325   135 C    1.325   129 C    1.026
   129   6 C    3.986 --   130 C    1.393   134 C    1.393   128 C    1.026
                           132 N    0.107
   130   6 C    3.987 --   131 C    1.441   129 C    1.393   160 H    0.973
                           133 C    0.109
   131   6 C    3.972 --   130 C    1.441   132 N    1.416   161 H    0.972
                           134 C    0.109
   132   7 N    3.031 --   131 C    1.416   133 C    1.416   129 C    0.107
   133   6 C    3.972 --   134 C    1.442   132 N    1.416   162 H    0.972
                           130 C    0.109
   134   6 C    3.987 --   133 C    1.442   129 C    1.393   163 H    0.973
                           131 C    0.109
   135   6 C    3.913 --   128 C    1.325   138 N    1.205   136 C    1.185
   136   6 C    3.960 --   137 C    1.634   135 C    1.185   164 H    0.973
   137   6 C    3.960 --   136 C    1.634   139 C    1.192   165 H    0.973
   138   7 N    3.400 --   139 C    1.239   135 C    1.205   121 Ni   0.660
   139   6 C    3.903 --   140 C    1.261   138 N    1.239   137 C    1.192
   140   6 C    3.935 --   141 C    1.262   139 C    1.261   118 C    1.185
   141   6 C    3.903 --   140 C    1.262   145 N    1.239   142 C    1.192
   142   6 C    3.960 --   143 C    1.634   141 C    1.192   166 H    0.973
   143   6 C    3.960 --   142 C    1.634   144 C    1.185   167 H    0.973
   144   6 C    3.913 --   146 C    1.325   145 N    1.206   143 C    1.185
   145   7 N    3.400 --   141 C    1.239   144 C    1.206   121 Ni   0.660
   146   6 C    3.935 --   153 C    1.325   144 C    1.325   147 C    1.027
   147   6 C    3.986 --   152 C    1.393   148 C    1.393   146 C    1.027
                           150 N    0.107
   148   6 C    3.987 --   149 C    1.442   147 C    1.393   168 H    0.973
                           151 C    0.109
   149   6 C    3.972 --   148 C    1.442   150 N    1.416   169 H    0.972
                           152 C    0.109
   150   7 N    3.031 --   151 C    1.416   149 C    1.416   147 C    0.107
   151   6 C    3.972 --   152 C    1.441   150 N    1.416   170 H    0.972
                           148 C    0.109
   152   6 C    3.987 --   151 C    1.441   147 C    1.393   171 H    0.973
                           149 C    0.109
   153   6 C    3.913 --   146 C    1.325   157 N    1.205   154 C    1.185
   154   6 C    3.960 --   155 C    1.634   153 C    1.185   172 H    0.973
   155   6 C    3.960 --   154 C    1.634   156 C    1.192   173 H    0.973
   156   6 C    3.904 --   122 C    1.262   157 N    1.239   155 C    1.192
   157   7 N    3.400 --   156 C    1.239   153 C    1.205   121 Ni   0.660
   158   1 H    1.001 --   124 C    0.973
   159   1 H    1.004 --   125 C    0.973
   160   1 H    1.003 --   130 C    0.973
   161   1 H    1.013 --   131 C    0.972
   162   1 H    1.013 --   133 C    0.972
   163   1 H    1.004 --   134 C    0.973
   164   1 H    1.004 --   136 C    0.973
   165   1 H    1.001 --   137 C    0.973
   166   1 H    1.001 --   142 C    0.973
   167   1 H    1.004 --   143 C    0.973
   168   1 H    1.004 --   148 C    0.973
   169   1 H    1.013 --   149 C    0.972
   170   1 H    1.013 --   151 C    0.972
   171   1 H    1.004 --   152 C    0.973
   172   1 H    1.004 --   154 C    0.973
   173   1 H    1.001 --   155 C    0.973
 ---------------------------------------------------------------------------

           -------------------------------------------------
          | TOTAL ENERGY             -312.072058746577 Eh   |
          | GRADIENT NORM               0.000624552710 Eh/α |
          | HOMO-LUMO GAP               1.092045647798 eV   |
           -------------------------------------------------

 * finished run on 2022/07/30 at 02:35:39.195
