   * xtb version 6.5.1 (b24c23e) compiled by 'conda@728c89f4b128' on 2022-07-12
          program call               : xtb Co_PhNH2_C2_2.xyz --gfn 1 --opt -T 48

   ID    Z sym.   atoms
    1   27 Co     1, 61
    2    6 C      2-6, 8-12, 14-18, 20-25, 27-31, 33-38, 62-66, 68-72, 74-78,
                  80-85, 87-91, 93-98, 121, 122
    3    7 N      7, 13, 19, 26, 32, 39, 67, 73, 79, 86, 92, 99
    4    1 H      40-60, 100-120
########################################################################
[WARNING] Please study the warnings concerning your input carefully
-1- prog_main_parseArguments: Unknown option '-T' provided
########################################################################

          :  Hamiltonian                  GFN1-xTB          :
 * total energy  :  -207.1765552 Eh     change       -0.2845866E-09 Eh
 * total energy  :  -207.3967314 Eh     change       -0.2201761E+00 Eh
 * total energy  :  -207.4732227 Eh     change       -0.7649131E-01 Eh
 * total energy  :  -207.5030602 Eh     change       -0.2983754E-01 Eh
 * total energy  :  -207.5149619 Eh     change       -0.1190167E-01 Eh
 * total energy  :  -207.5219473 Eh     change       -0.6985401E-02 Eh
 * total energy  :  -207.5257292 Eh     change       -0.3781952E-02 Eh
 * total energy  :  -207.5280943 Eh     change       -0.2365091E-02 Eh
 * total energy  :  -207.5297641 Eh     change       -0.1669772E-02 Eh
 * total energy  :  -207.5310325 Eh     change       -0.1268387E-02 Eh
 * total energy  :  -207.5394854 Eh     change       -0.6476766E-05 Eh
 * total energy  :  -207.5394911 Eh     change       -0.5683207E-05 Eh
 * total energy  :  -207.5394984 Eh     change       -0.7354605E-05 Eh
 * total energy  :  -207.5395092 Eh     change       -0.1081616E-04 Eh
 * total energy  :  -207.5395231 Eh     change       -0.1389049E-04 Eh
 * total energy  :  -207.5395358 Eh     change       -0.1266762E-04 Eh
 * total energy  :  -207.5395441 Eh     change       -0.8307053E-05 Eh
 * total energy  :  -207.5395494 Eh     change       -0.5245891E-05 Eh
 * total energy  :  -207.5395533 Eh     change       -0.3962565E-05 Eh
   *** GEOMETRY OPTIMIZATION CONVERGED AFTER 60 ITERATIONS ***

 final structure:
================
122
 xtb: 6.5.1 (b24c23e)
Co          16.70030465564653        0.05006499086197       -0.04414631061733
C           13.32913962819627        0.12222081190733        0.01425523582254
C           13.99417543136492        1.06229694304223       -0.74426151630745
C           13.34373524627379        2.04406270481030       -1.55643388894223
C           14.30693023564859        2.89808659922004       -1.97850420748350
C           15.54197909979832        2.44413209851514       -1.41037125939673
N           15.34871603609934        1.28148071101082       -0.71008632536240
C           16.73495520874290        3.15648598730625       -1.45980215580141
C           16.74855539926345        4.50267644317865       -2.07061558467659
C           17.61034875994896        4.79903522624270       -3.13012995559717
C           17.62880909819106        6.05987218913340       -3.69881840487286
C           16.78340068036544        7.06094747736932       -3.21285321195152
N           16.83702255971958        8.33801808760316       -3.74241732541334
C           15.92592675890828        6.77604893579443       -2.14673612322384
C           15.90570736298685        5.50942269688763       -1.59149784476877
C           17.91293849863121        2.63719226795802       -0.94108220255508
C           19.15844669332131        3.34324160204067       -0.91028144209643
C           20.10274558114004        2.45398051860671       -0.51804820775548
N           18.08318477817828        1.34711730908715       -0.49248072707832
C           19.42954313774924        1.21402407381770       -0.29566662466765
C           20.08996112566027        0.01503283058360       -0.02346625696148
C           19.39728677273537       -1.16687022572633        0.24522781951028
C           20.03430557160819       -2.42815022136624        0.45137810133672
C           19.06608500747715       -3.29243958946267        0.84263257993701
C           17.84310658535010       -2.54942645987421        0.89012186466804
N           18.05046653354998       -1.25942085523786        0.45850140860691
C           16.65386743066195       -3.03453687369608        1.41724096365458
C           16.62927464502212       -4.38333301245877        2.02136341992646
C           17.49570411305546       -4.71398145712625        3.06704679026852
C           17.47550137817665       -5.97553684278255        3.63373736104296
C           16.59345439577259       -6.94680987593428        3.15241922863878
N           16.54440448871783       -8.19769642480185        3.74108818758070
C           15.72057360593022       -6.62346743658224        2.10999892604758
C           15.73991324879715       -5.35613394702208        1.55629308057303
C           15.48506727852949       -2.28231544538990        1.38737786127212
C           14.24385784834716       -2.69789256077629        1.97193243073645
C           13.30501227604273       -1.80669132667991        1.57374635475056
C           13.97591310722693       -0.84205597509478        0.75732240829300
N           15.32302871231525       -1.10310403438727        0.70631216205075
H           12.24560975663243        0.14079250946099        0.02505495782619
H           12.28516195649146        2.06380875196020       -1.76208782822728
H           14.20326241454440        3.76087052046025       -2.61657409885464
H           18.25712654683322        4.02302555308813       -3.52481584359523
H           18.29738903410733        6.27536631496969       -4.52520413385062
H           17.20572360595204        8.39818625214516       -4.67801905944440
H           16.01352128284216        8.89840599086859       -3.59142500961051
H           15.27752913241650        7.55293060929561       -1.75639592233689
H           15.24584684254759        5.30004305827870       -0.75664925388663
H           19.28406034519884        4.38491472240076       -1.15684017587974
H           21.16187122892739        2.60861198515578       -0.38829865902384
H           21.08716031760564       -2.61337477743491        0.31071187063291
H           19.16148492971817       -4.34035172675487        1.07633661205949
H           18.17597580407502       -3.96312876030104        3.45378333994827
H           18.14458220765634       -6.21603881728034        4.45271581395556
H           17.38009816723794       -8.47253671335347        4.23187531218108
H           16.14909318935573       -8.92537910919764        3.16750739035646
H           15.03176054569661       -7.37213728536963        1.73406831510677
H           15.07338400891326       -5.12001231740184        0.73395924089501
H           14.11991190764925       -3.56168666598050        2.60483504568504
H           12.24961790996973       -1.79175949435506        1.79536628983611
Co          27.50908415625210       -0.06447134035663        0.01731337664939
C           30.88024815502735       -0.05564237909836        0.10973622380842
C           30.21521684125182       -1.20728133618831        0.47418778380947
C           30.86565774428813       -2.42667765569382        0.84372654059422
C           29.90246673417165       -3.25033711275375        1.32236401485254
C           28.66741913206808       -2.52597648670459        1.25791636773267
N           28.86067864302122       -1.29989855606021        0.67577499110661
C           27.47444488493157       -2.96076959723933        1.82435488782931
C           27.46084790412123       -4.21368581633301        2.60890675749214
C           26.59905436022169       -5.26053230665513        2.27050915303531
C           26.58059876444776       -6.43118090350987        3.00718904388620
C           27.42601133322077       -6.57925603173081        4.11008585601333
N           27.37239213430457       -7.72626399913474        4.88191437332441
C           28.28348559072067       -5.53323918757198        4.46168328183306
C           28.30370140664274       -4.37060260580617        3.71274516660360
C           26.29645811114793       -2.24150291509718        1.67812283362836
C           25.05094620781497       -2.60595290206310        2.28361571642252
C           24.10664368316615       -1.78770552767288        1.75911942836208
N           26.12620974359093       -1.15480003030098        0.85070863059312
C           24.77984758155004       -0.91723807059919        0.84849863996544
C           24.11942909608365       -0.02789087892143       -0.00046244566040
C           24.81210252029469        0.84909841502191       -0.83711226881418
C           24.17508589120920        1.71780697414832       -1.77448787347651
C           25.14330222904002        2.52147779731634       -2.27866918588694
C           26.36627581971409        2.15053929596218       -1.63311590857636
N           26.15891847165573        1.07801881870791       -0.79639049811277
C           27.55551079872680        2.85793708165189       -1.74619106686536
C           27.58010310121992        4.10671475267302       -2.53661491687631
C           26.71367528804151        5.16098162269568       -2.23444717568841
C           26.73387863805575        6.33035327159691       -2.97284488299782
C           27.61592264575194        6.46582146914895       -4.04834105806786
N           27.66497263906337        7.64761521947189       -4.76570498955390
C           28.48880130976021        5.41831003441886       -4.35479581583142
C           28.46946235193102        4.25656995346867       -3.60440704601755
C           28.72431102735009        2.41742491315374       -1.13571889261283
C           29.96552046429598        3.13426655503579       -1.15912145993013
C           30.90437020280694        2.30996266564214       -0.63633441935993
C           30.23347052009182        1.09648978852003       -0.28341018985708
N           28.88635308264883        1.19821104813834       -0.52916446237173
H           31.96377852307716       -0.05690180545898        0.13116808815133
H           31.92422929049269       -2.60900195816733        0.74654313327327
H           30.00613588716072       -4.25887497023457        1.68894229000508
H           25.95227501515363       -5.16073274003736        1.40563598081507
H           25.91202005187967       -7.23903593722885        2.73019990976285
H           27.00368705410060       -8.53932586713310        4.41511878829978
H           28.19589358482772       -7.91004543405203        5.43242098795428
H           28.93188720419849       -5.63714344109111        5.32488038145745
H           28.96356359804607       -3.55907401071893        3.99950530810856
H           24.92533204794728       -3.38700658394365        3.01561913882122
H           23.04751399764427       -1.76501358866100        1.95967552802940
H           23.12223556398420        1.70288522024725       -2.00661278333541
H           25.04790375572877        3.29527173407960       -3.02296804177948
H           26.03340308371667        5.06846541035165       -1.39493236975356
H           26.06479955326303        7.14585454374195       -2.72079932188868
H           26.82928034825483        8.20854292614509       -4.72361505218047
H           28.06028573121171        7.57159369409686       -5.68914215246327
H           29.17761158497976        5.51862585547729       -5.18652355013251
H           29.13599066783294        3.44069240308586       -3.86195597961323
H           30.08946348599171        4.13906008217428       -1.52938769878942
H           31.95976641125724        2.48642846522384       -0.50144784374041
C           21.49655312796875       -0.00245509766755       -0.02034895990985
C           22.71283711307712       -0.01563347678062       -0.01331410735402

          :  Hamiltonian                  GFN1-xTB          :
         :: total energy            -207.539553314277 Eh    ::
         :: gradient norm              0.000310712058 Eh/a0 ::
         :: HOMO-LUMO gap              0.012169356040 eV    ::
         :: SCC energy              -210.772561040926 Eh    ::
         :: repulsion energy           3.342405674928 Eh    ::

    * Orbital Energies and Occupations

         #    Occupation            Energy/Eh            Energy/eV
      -------------------------------------------------------------
         1        2.0000           -0.7797388             -21.2178
       ...           ...                  ...                  ...
       180        2.0000           -0.3967119             -10.7951
       181        2.0000           -0.3967005             -10.7948
       182        2.0000           -0.3871661             -10.5353
       183        2.0000           -0.3871508             -10.5349
       184        2.0000           -0.3844269             -10.4608
       185        2.0000           -0.3843017             -10.4574
       186        2.0000           -0.3842073             -10.4548
       187        1.9999           -0.3811939             -10.3728
       188        1.9999           -0.3811887             -10.3727
       189        1.9999           -0.3810949             -10.3701
       190        1.9999           -0.3810927             -10.3701
       191        1.8942           -0.3747965             -10.1987
       192        1.1700           -0.3723817             -10.1330 (HOMO)
       193        0.9364           -0.3719345             -10.1209 (LUMO)
       194                         -0.3282168              -8.9312
       195                         -0.3175753              -8.6417
       196                         -0.3175638              -8.6414
       197                         -0.3133894              -8.5278
       198                         -0.2876482              -7.8273
       199                         -0.2828321              -7.6963
       200                         -0.2828285              -7.6962
       201                         -0.2798356              -7.6147
       202                         -0.2572340              -6.9997
       203                         -0.2572327              -6.9997
       ...                                ...                  ...
       414                          1.3532665              36.8243
      -------------------------------------------------------------
                  HL-Gap            0.0004472 Eh            0.0122 eV

Wiberg/Mayer (AO) data.
largest (>0.10) Wiberg bond orders for each atom

     #   Z sym  total        # sym  WBO       # sym  WBO       # sym  WBO
 ---------------------------------------------------------------------------
     1  27 Co   3.054 --    39 N    0.639    19 N    0.634     7 N    0.634
                            26 N    0.630
     2   6 C    3.927 --    38 C    1.365     3 C    1.362    40 H    0.970
     3   6 C    3.926 --     2 C    1.362     7 N    1.201     4 C    1.178
     4   6 C    3.958 --     5 C    1.643     3 C    1.178    41 H    0.975
     5   6 C    3.963 --     4 C    1.643     6 C    1.180    42 H    0.973
     6   6 C    3.919 --     8 C    1.311     7 N    1.216     5 C    1.180
     7   7 N    3.343 --     6 C    1.216     3 C    1.201     1 Co   0.634
     8   6 C    3.931 --    16 C    1.328     6 C    1.311     9 C    1.039
     9   6 C    3.986 --    10 C    1.378    15 C    1.377     8 C    1.039
    10   6 C    3.985 --    11 C    1.470     9 C    1.378    43 H    0.972
    11   6 C    3.989 --    10 C    1.470    12 C    1.352    44 H    0.972
    12   6 C    3.950 --    11 C    1.352    14 C    1.352    13 N    1.117
    13   7 N    3.134 --    12 C    1.117    45 H    0.933    46 H    0.933
    14   6 C    3.989 --    15 C    1.471    12 C    1.352    47 H    0.972
    15   6 C    3.985 --    14 C    1.471     9 C    1.377    48 H    0.972
    16   6 C    3.917 --     8 C    1.328    19 N    1.196    17 C    1.183
    17   6 C    3.960 --    18 C    1.634    16 C    1.183    49 H    0.973
    18   6 C    3.960 --    17 C    1.634    20 C    1.191    50 H    0.973
    19   7 N    3.344 --    20 C    1.229    16 C    1.196     1 Co   0.634
    20   6 C    3.912 --    21 C    1.266    19 N    1.229    18 C    1.191
    21   6 C    3.930 --    20 C    1.266    22 C    1.264   121 C    1.175
    22   6 C    3.912 --    21 C    1.264    26 N    1.229    23 C    1.193
    23   6 C    3.960 --    24 C    1.632    22 C    1.193    51 H    0.973
    24   6 C    3.960 --    23 C    1.632    25 C    1.185    52 H    0.973
    25   6 C    3.917 --    27 C    1.325    26 N    1.197    24 C    1.185
    26   7 N    3.345 --    22 C    1.229    25 C    1.197     1 Co   0.630
    27   6 C    3.931 --    25 C    1.325    35 C    1.313    28 C    1.040
    28   6 C    3.986 --    34 C    1.377    29 C    1.377    27 C    1.040
    29   6 C    3.985 --    30 C    1.471    28 C    1.377    53 H    0.972
    30   6 C    3.989 --    29 C    1.471    31 C    1.352    54 H    0.972
    31   6 C    3.950 --    30 C    1.352    33 C    1.352    32 N    1.118
    32   7 N    3.134 --    31 C    1.118    56 H    0.933    55 H    0.933
    33   6 C    3.988 --    34 C    1.471    31 C    1.352    57 H    0.972
    34   6 C    3.985 --    33 C    1.471    28 C    1.377    58 H    0.972
    35   6 C    3.919 --    27 C    1.313    39 N    1.215    36 C    1.179
    36   6 C    3.963 --    37 C    1.645    35 C    1.179    59 H    0.973
    37   6 C    3.958 --    36 C    1.645    38 C    1.177    60 H    0.975
    38   6 C    3.926 --     2 C    1.365    39 N    1.199    37 C    1.177
    39   7 N    3.342 --    35 C    1.215    38 C    1.199     1 Co   0.639
    40   1 H    1.000 --     2 C    0.970
    41   1 H    0.998 --     4 C    0.975
    42   1 H    1.005 --     5 C    0.973
    43   1 H    1.006 --    10 C    0.972
    44   1 H    0.999 --    11 C    0.972
    45   1 H    0.960 --    13 N    0.933
    46   1 H    0.960 --    13 N    0.933
    47   1 H    0.998 --    14 C    0.972
    48   1 H    1.005 --    15 C    0.972
    49   1 H    1.005 --    17 C    0.973
    50   1 H    1.003 --    18 C    0.973
    51   1 H    1.003 --    23 C    0.973
    52   1 H    1.005 --    24 C    0.973
    53   1 H    1.006 --    29 C    0.972
    54   1 H    0.998 --    30 C    0.972
    55   1 H    0.960 --    32 N    0.933
    56   1 H    0.960 --    32 N    0.933
    57   1 H    0.998 --    33 C    0.972
    58   1 H    1.006 --    34 C    0.972
    59   1 H    1.005 --    36 C    0.973
    60   1 H    0.998 --    37 C    0.975
    61  27 Co   3.054 --    99 N    0.639    79 N    0.634    67 N    0.634
                            86 N    0.630
    62   6 C    3.927 --    98 C    1.365    63 C    1.362   100 H    0.970
    63   6 C    3.926 --    62 C    1.362    67 N    1.201    64 C    1.178
    64   6 C    3.958 --    65 C    1.643    63 C    1.178   101 H    0.975
    65   6 C    3.963 --    64 C    1.643    66 C    1.180   102 H    0.973
    66   6 C    3.919 --    68 C    1.311    67 N    1.216    65 C    1.180
    67   7 N    3.343 --    66 C    1.216    63 C    1.201    61 Co   0.634
    68   6 C    3.931 --    76 C    1.328    66 C    1.311    69 C    1.039
    69   6 C    3.986 --    70 C    1.378    75 C    1.377    68 C    1.039
    70   6 C    3.985 --    71 C    1.470    69 C    1.378   103 H    0.972
    71   6 C    3.989 --    70 C    1.470    72 C    1.352   104 H    0.972
    72   6 C    3.950 --    71 C    1.352    74 C    1.352    73 N    1.117
    73   7 N    3.134 --    72 C    1.117   105 H    0.933   106 H    0.933
    74   6 C    3.989 --    75 C    1.471    72 C    1.352   107 H    0.972
    75   6 C    3.985 --    74 C    1.471    69 C    1.377   108 H    0.972
    76   6 C    3.917 --    68 C    1.328    79 N    1.196    77 C    1.183
    77   6 C    3.960 --    78 C    1.634    76 C    1.183   109 H    0.973
    78   6 C    3.960 --    77 C    1.634    80 C    1.191   110 H    0.973
    79   7 N    3.344 --    80 C    1.229    76 C    1.196    61 Co   0.634
    80   6 C    3.912 --    81 C    1.266    79 N    1.229    78 C    1.191
    81   6 C    3.930 --    80 C    1.266    82 C    1.264   122 C    1.175
    82   6 C    3.912 --    81 C    1.264    86 N    1.229    83 C    1.193
    83   6 C    3.960 --    84 C    1.632    82 C    1.193   111 H    0.973
    84   6 C    3.960 --    83 C    1.632    85 C    1.185   112 H    0.973
    85   6 C    3.917 --    87 C    1.325    86 N    1.197    84 C    1.185
    86   7 N    3.345 --    82 C    1.229    85 C    1.197    61 Co   0.630
    87   6 C    3.931 --    85 C    1.325    95 C    1.313    88 C    1.040
    88   6 C    3.986 --    94 C    1.377    89 C    1.377    87 C    1.040
    89   6 C    3.985 --    90 C    1.471    88 C    1.377   113 H    0.972
    90   6 C    3.989 --    89 C    1.471    91 C    1.352   114 H    0.972
    91   6 C    3.950 --    90 C    1.352    93 C    1.352    92 N    1.118
    92   7 N    3.134 --    91 C    1.118   116 H    0.933   115 H    0.933
    93   6 C    3.988 --    94 C    1.471    91 C    1.352   117 H    0.972
    94   6 C    3.985 --    93 C    1.471    88 C    1.377   118 H    0.972
    95   6 C    3.919 --    87 C    1.313    99 N    1.215    96 C    1.179
    96   6 C    3.963 --    97 C    1.645    95 C    1.179   119 H    0.973
    97   6 C    3.958 --    96 C    1.645    98 C    1.177   120 H    0.975
    98   6 C    3.926 --    62 C    1.365    99 N    1.199    97 C    1.177
    99   7 N    3.342 --    95 C    1.215    98 C    1.199    61 Co   0.639
   100   1 H    1.000 --    62 C    0.970
   101   1 H    0.998 --    64 C    0.975
   102   1 H    1.005 --    65 C    0.973
   103   1 H    1.006 --    70 C    0.972
   104   1 H    0.999 --    71 C    0.972
   105   1 H    0.960 --    73 N    0.933
   106   1 H    0.960 --    73 N    0.933
   107   1 H    0.998 --    74 C    0.972
   108   1 H    1.005 --    75 C    0.972
   109   1 H    1.005 --    77 C    0.973
   110   1 H    1.003 --    78 C    0.973
   111   1 H    1.003 --    83 C    0.973
   112   1 H    1.005 --    84 C    0.973
   113   1 H    1.006 --    89 C    0.972
   114   1 H    0.998 --    90 C    0.972
   115   1 H    0.960 --    92 N    0.933
   116   1 H    0.960 --    92 N    0.933
   117   1 H    0.998 --    93 C    0.972
   118   1 H    1.006 --    94 C    0.972
   119   1 H    1.005 --    96 C    0.973
   120   1 H    0.998 --    97 C    0.975
   121   6 C    3.928 --   122 C    2.573    21 C    1.175
   122   6 C    3.928 --   121 C    2.573    81 C    1.175
 ---------------------------------------------------------------------------

           -------------------------------------------------
          | TOTAL ENERGY             -207.539553314277 Eh   |
          | GRADIENT NORM               0.000310712058 Eh/α |
          | HOMO-LUMO GAP               0.012169356040 eV   |
           -------------------------------------------------

 * finished run on 2022/07/29 at 23:45:35.949
