   * xtb version 6.5.1 (b24c23e) compiled by 'conda@728c89f4b128' on 2022-07-12
          program call               : xtb Cu_PhNH2_C6_3.xyz --gfn 1 --opt -T 48

   ID    Z sym.   atoms
    1   29 Cu     1, 61, 133
    2    6 C      2-6, 8-12, 14-18, 20-25, 27-31, 33-38, 62-66, 68-72, 74-78,
                  80-85, 87-91, 93-98, 121-132, 134-138, 140-144, 146-150,
                  152-157, 159-163, 165-170
    3    7 N      7, 13, 19, 26, 32, 39, 67, 73, 79, 86, 92, 99, 139, 145,
                  151, 158, 164, 171
    4    1 H      40-60, 100-120, 172-191

          :  Hamiltonian                  GFN1-xTB          :
 * total energy  :  -331.8415229 Eh     change       -0.1239187E-09 Eh
 * total energy  :  -332.0875111 Eh     change       -0.2459882E+00 Eh
 * total energy  :  -332.1998526 Eh     change       -0.1123415E+00 Eh
 * total energy  :  -332.2744692 Eh     change       -0.7461659E-01 Eh
 * total energy  :  -332.3428865 Eh     change       -0.6841736E-01 Eh
 * total energy  :  -332.3927199 Eh     change       -0.4983337E-01 Eh
 * total energy  :  -332.4196802 Eh     change       -0.2696033E-01 Eh
 * total energy  :  -332.4402274 Eh     change       -0.2054717E-01 Eh
 * total energy  :  -332.4546982 Eh     change       -0.1447081E-01 Eh
 * total energy  :  -332.4631982 Eh     change       -0.8500019E-02 Eh
 * total energy  :  -332.5500926 Eh     change       -0.2971552E-04 Eh
 * total energy  :  -332.5501212 Eh     change       -0.2863948E-04 Eh
 * total energy  :  -332.5501520 Eh     change       -0.3078065E-04 Eh
 * total energy  :  -332.5501733 Eh     change       -0.2126070E-04 Eh
 * total energy  :  -332.5501849 Eh     change       -0.1163879E-04 Eh
 * total energy  :  -332.5501931 Eh     change       -0.8215605E-05 Eh
 * total energy  :  -332.5502008 Eh     change       -0.7652008E-05 Eh
 * total energy  :  -332.5502066 Eh     change       -0.5848663E-05 Eh
 * total energy  :  -332.5502115 Eh     change       -0.4892249E-05 Eh
   *** GEOMETRY OPTIMIZATION CONVERGED AFTER 61 ITERATIONS ***

 final structure:
================
191
 xtb: 6.5.1 (b24c23e)
Cu          29.07871895857564        0.02124485577879        0.02459570577220
C           25.67448090483902        0.08682734517912        0.07914057560347
C           26.31162836872368        1.20050635079702       -0.44734046344602
C           25.63906294684953        2.33286559643880       -1.01549068136668
C           26.60001485900412        3.20019661980022       -1.42087175505215
C           27.86879175878649        2.61167710670948       -1.08943685958605
N           27.66265631059544        1.39434490575704       -0.50650720567269
C           29.11460995956165        3.19382102209250       -1.34064402749345
C           29.13175098254912        4.55117528291837       -1.93658761149803
C           29.74168743812032        4.77647821747439       -3.17319072086625
C           29.75503156375563        6.03909461550369       -3.73864447752399
C           29.16874774364775        7.11448603567326       -3.06631525554170
N           29.14512971081549        8.37112238581589       -3.64668719932868
C           28.55451179509940        6.89733774902466       -1.83028398572983
C           28.53660915490443        5.62922794848036       -1.27693811420937
C           30.34518740569906        2.58928548948314       -1.07316179080899
C           31.62293817024759        3.21775269044327       -1.25154165102841
C           32.56687605180188        2.31593055588985       -0.87905733175362
N           30.53081658338379        1.32278941981068       -0.58394720232407
C           31.87334742185480        1.13459989052086       -0.46386068669501
C           32.50647662912443       -0.03781975003050       -0.01348262387787
C           31.84365352982701       -1.19020851162981        0.44563525711052
C           32.50559329815454       -2.39629104131589        0.84070113951591
C           31.53977422718711       -3.26810515449830        1.22836009272594
C           30.28051047670079       -2.59548980747505        1.08188647438944
N           30.49848090358104       -1.33367340590113        0.59369272419417
C           29.03607031174862       -3.15661877142210        1.37852118326926
C           29.01772118138724       -4.51801825747302        1.96486375741136
C           29.65589595161435       -4.77830868707465        3.18016504474455
C           29.63514505596721       -6.04513633992096        3.73594623140017
C           28.98428218681093       -7.09010714959668        3.07516013774629
N           28.92673972326562       -8.34934773358065        3.64731014498480
C           28.34109651286353       -6.83778735252327        1.86070158330182
C           28.35841350902681       -5.56557088354803        1.31695567627138
C           27.80626611093137       -2.52609071304231        1.16738238495002
C           26.52696404863800       -3.06648573024302        1.53819439538935
C           25.58788439002107       -2.15987311912416        1.16918023327296
C           26.28503455731231       -1.05202429127045        0.58272216335894
N           27.62873382999124       -1.29871479211222        0.59635925214457
H           24.58958352267739        0.10809626100982        0.09771907591953
H           24.56826610403565        2.43272394117878       -1.10011023779961
H           26.46776177036854        4.14975794870987       -1.91408941993197
H           30.19142600635514        3.94510954855485       -3.70504521657349
H           30.22115337217732        6.19876840034551       -4.70483261380454
H           29.86289645892135        8.53544984837728       -4.33438775791053
H           29.01718725070899        9.13483012451618       -3.00208233672087
H           28.09543799877941        7.72774850200472       -1.30493002605307
H           28.07366939986860        5.47261520073894       -0.30868193406746
H           31.77466137703234        4.22689687677740       -1.59903733811217
H           33.63862116208883        2.43475810615791       -0.87437451357386
H           33.57240225900046       -2.55099026213760        0.81198988514656
H           31.66502911890486       -4.28373800691513        1.56745175056641
H           30.15513182831409       -3.97042312615060        3.70398118765932
H           30.12427259795910       -6.23166746571710        4.68580213639102
H           29.65615631309081       -8.54767724134625        4.31345494602752
H           28.74981358213640       -9.10233133826980        3.00171486737750
H           27.83157523501786       -7.64421556891519        1.34456403604339
H           27.87213922291487       -5.38222443179584        0.36496395941638
H           26.37381422181761       -4.01268795833518        2.03179493834909
H           24.51742920627374       -2.21810741932223        1.28947706031286
Cu          61.15783584115200       -0.01693870748540        0.04360629231617
C           64.56255834309987       -0.01038065305816        0.12019913319216
C           63.92634509990609       -1.06442207078498        0.75875767257159
C           64.59990654003198       -2.16313463786249        1.38859585614039
C           63.63967088582941       -2.98103670546783        1.88756387333102
C           62.37030989170312       -2.38097071531389        1.57961423006293
N           62.57555455920477       -1.22183132113496        0.88806407547204
C           61.12485752371489       -2.91544354680983        1.92209866810500
C           61.10899887874958       -4.16448087638840        2.72080193669920
C           60.50575193317223       -5.32074484778251        2.21981586169440
C           60.49308415067092       -6.49138668945426        2.95712839496507
C           61.07341725293931       -6.52590282896944        4.22764425887801
N           61.09781092578986       -7.70553096557253        4.95189809644604
C           61.68111655321589       -5.37463619582376        4.73503455307508
C           61.69834497213323       -4.21099813440054        3.98648342023945
C           59.89358104466113       -2.36014593976061        1.56579971842273
C           58.61608950685337       -2.86176829382497        1.98532672102614
C           57.67151372331885       -2.04971593712780        1.44561997423436
N           59.70683020589005       -1.24699220658347        0.78870087242421
C           58.36428119966897       -1.04329468481746        0.69960792249630
C           57.72949701138013       -0.01203098874226       -0.01602439863698
C           58.39055771159276        1.01273260606350       -0.71658985896583
C           57.72746559390493        2.01330761387504       -1.49638593126098
C           58.69300325376485        2.81649660739176       -2.01193241833570
C           59.95342220696458        2.31760082547583       -1.54041075325206
N           59.73621188696846        1.21204282314725       -0.76050097323256
C           61.19793259066937        2.87187931726228       -1.84991149027499
C           61.21636853716875        4.11247433941019       -2.66124782041471
C           60.58415840558092        5.27191936943547       -2.20531852638905
C           60.60579070905607        6.43426659239417       -2.95553378954629
C           61.25161966192461        6.45740910473277       -4.19431351744471
N           61.30987458171204        7.62894272903400       -4.92949397125733
C           61.88927782338546        5.30317754352669       -4.65624750551772
C           61.87102656920008        4.14793239504415       -3.89499615658508
C           62.42861684978364        2.34453195793068       -1.44734981859101
C           63.70805449264653        2.95034610428769       -1.69726292804561
C           64.64789500191625        2.13990521898213       -1.14971186033014
C           63.95122108974752        1.03945254577342       -0.54878068824689
N           62.60709850429720        1.18941910179803       -0.74187825872680
H           65.64752985772726       -0.00740924781680        0.14564725905466
H           65.67081555014998       -2.28789756828809        1.42510120872320
H           63.77271673370281       -3.91644334403892        2.40692580150237
H           60.06063873213281       -5.30409313601907        1.23092338983182
H           60.03203737554538       -7.38567087611463        2.55217619526573
H           60.38379067482504       -8.37167435556651        4.70378689872421
H           61.22027159739015       -7.59199675313014        5.94550556752768
H           62.13560402571046       -5.39612851493393        5.71957192449447
H           62.15629171802775       -3.31674546048358        4.39509158340961
H           58.46478455380287       -3.71512947139817        2.62646516998358
H           56.59977998034110       -2.11388998152997        1.54591535359394
H           56.66010120663124        2.07840898114588       -1.63555028696541
H           58.56689228110128        3.66221911208918       -2.66845244266828
H           60.08898705659989        5.26508822623018       -1.24039644438759
H           60.12131701325391        7.33111417941456       -2.58506060867586
H           60.58328499023132        8.29627139345432       -4.72489964520085
H           61.48280531708804        7.50511130091054       -5.91430387147414
H           62.39527964808777        5.31586071492251       -5.61549227352512
H           62.35308221688368        3.25124699135955       -4.26908675276353
H           63.86091494517446        3.88495192273411       -2.21258468214285
H           65.71861942005044        2.27067292183038       -1.13564507652328
C           37.70858844748098       -0.07209077651999       -0.03062542021307
C           36.48008306974136       -0.07250559047181       -0.02815173604315
C           35.13566914402467       -0.06558390561152       -0.02590157373805
C           33.91168786291952       -0.05781815285649       -0.02171079260550
C           39.05290990799941       -0.07062723906389       -0.02841129495239
C           40.27706618929848       -0.06616813808500       -0.02634246792674
C           53.75519331732242        0.00110409835766       -0.03643708518486
C           52.52670369149727       -0.00159968996999       -0.03373670744352
C           51.18214945547633       -0.00379919760264       -0.02268769194057
C           49.95810347869998       -0.00656471478963       -0.00766015105255
C           55.09991382342520       -0.00089996987260       -0.03648166779264
C           56.32386672122879       -0.00710552858525       -0.02996823647997
Cu          45.11684585235947       -0.03071989302531        0.00437866594392
C           41.68197323205560       -0.05958631715824       -0.02658972839574
C           42.32328615039822        1.14274805755260       -0.37693740999900
C           41.63653609427023        2.35796405981473       -0.69434858693623
C           42.58692711607466        3.29430274396610       -0.94606483768586
C           43.86134284396437        2.65224771152655       -0.79580555930385
N           43.66714737272711        1.34356978220721       -0.44019359637116
C           45.09799259391773        3.28084127695034       -0.96067722354009
C           45.09099390432191        4.70801317508120       -1.36537051201784
C           44.52225989109836        5.10316096951330       -2.57834563484664
C           44.51953015925296        6.43304928137946       -2.96070589632994
C           45.08676546905689        7.40260733051446       -2.12993646837465
N           45.04361783608051        8.73966939682262       -2.48687934260332
C           45.64525740315127        7.01720255787783       -0.90858207050697
C           45.65218971567921        5.68401349389166       -0.53840587941288
C           46.34175255984461        2.67201694358088       -0.77485881788714
C           47.60822204996377        3.30616664089182       -1.00479615479474
C           48.56981120156372        2.38706051273458       -0.73244263857921
N           46.55160753278879        1.37727505951826       -0.38005712422222
C           47.89781021255383        1.18478628890130       -0.34260890740660
C           48.55302078434826       -0.00958659590701        0.00876398466063
C           47.91153443172043       -1.20929904582712        0.36742563501071
C           48.59716858456871       -2.42453653862917        0.68711594625613
C           47.64613016486303       -3.35352209933887        0.96302237688676
C           46.37256167267319       -2.70780972165226        0.82142822358026
N           46.56759901034227       -1.40421248070583        0.44894642325350
C           45.13584482630546       -3.33070068203755        1.00785890352393
C           45.14464793816006       -4.74722771741422        1.44808581315329
C           44.57485799346971       -5.74489304346597        0.65365381845822
C           44.58439787329717       -7.06748156549530        1.06020806473634
C           45.16498974027492       -7.42159377877748        2.28069436657599
N           45.13229130181549       -8.73617612471073        2.71397070950888
C           45.72593267634663       -6.42788827220924        3.08684872092985
C           45.72079768419536       -5.10911195742469        2.66802109302440
C           43.89211409641037       -2.72516214111371        0.81249618248621
C           42.62511187193324       -3.35564342460822        1.05002148370700
C           41.66402219778497       -2.44424119559775        0.75171795391779
C           42.33674046956855       -1.24876157584944        0.34258945238963
N           43.68291064629160       -1.43849074045391        0.39123640198849
H           40.56458163664023        2.47382628185770       -0.71004675560631
H           42.43982298179531        4.33232103175940       -1.19666358652692
H           44.09622223193184        4.35419144668049       -3.23701953221292
H           44.08097261080422        6.72669094333099       -3.90821220438250
H           44.93537467909069        8.91219525620103       -3.47356967522082
H           45.73955180228868        9.32006215121388       -2.04691577020255
H           46.07395871596207        7.76722351982431       -0.25284343582275
H           46.07999816660204        5.39349398220682        0.41497766457058
H           47.74215208774885        4.31976493680146       -1.34658301095434
H           49.64019467514750        2.50233390213929       -0.79424102400090
H           49.66877085608683       -2.54496696729998        0.68948707063683
H           47.79151075324688       -4.38946236071155        1.22348061486149
H           44.13769603149653       -5.48026985506852       -0.30297559444783
H           44.14456848567408       -7.83406387014211        0.43154708598996
H           45.83080471024260       -8.97546874132698        3.39952584160358
H           45.02847330982402       -9.42210030940147        1.98329799351509
H           46.16593660477967       -6.69479624694879        4.04155470681494
H           46.15065439971502       -4.34226575507538        3.30323250838111
H           42.49026716910679       -4.36139293454828        1.41375489119767
H           40.59344288798210       -2.55941539203915        0.80996110947355

          :  Hamiltonian                  GFN1-xTB          :
         :: total energy            -332.550211505404 Eh    ::
         :: gradient norm              0.000661632220 Eh/a0 ::
         :: HOMO-LUMO gap              0.001437618034 eV    ::
         :: SCC energy              -337.922659912351 Eh    ::
         :: repulsion energy           5.541015228598 Eh    ::

    * Orbital Energies and Occupations

         #    Occupation            Energy/Eh            Energy/eV
      -------------------------------------------------------------
         1        2.0000           -0.7781315             -21.1740
       ...           ...                  ...                  ...
       297        2.0000           -0.3973778             -10.8132
       298        2.0000           -0.3962700             -10.7831
       299        2.0000           -0.3958645             -10.7720
       300        2.0000           -0.3956681             -10.7667
       301        2.0000           -0.3948928             -10.7456
       302        2.0000           -0.3884454             -10.5701
       303        2.0000           -0.3883981             -10.5688
       304        2.0000           -0.3878523             -10.5540
       305        2.0000           -0.3811217             -10.3708
       306        2.0000           -0.3764322             -10.2432
       307        2.0000           -0.3692018             -10.0465
       308        1.0265           -0.3489084              -9.4943
       309        0.9991           -0.3488499              -9.4927 (HOMO)
       310        0.9744           -0.3487971              -9.4913 (LUMO)
       311        0.0000           -0.3340552              -9.0901
       312                         -0.3257608              -8.8644
       313                         -0.3197879              -8.7019
       314                         -0.3197307              -8.7003
       315                         -0.3189429              -8.6789
       316                         -0.3187980              -8.6749
       317                         -0.2960592              -8.0562
       318                         -0.2877799              -7.8309
       319                         -0.2844716              -7.7409
       320                         -0.2764739              -7.5232
       ...                                ...                  ...
       655                          1.5871299              43.1880
      -------------------------------------------------------------
                  HL-Gap            0.0000528 Eh            0.0014 eV

Wiberg/Mayer (AO) data.
largest (>0.10) Wiberg bond orders for each atom

     #   Z sym  total        # sym  WBO       # sym  WBO       # sym  WBO
 ---------------------------------------------------------------------------
     1  29 Cu   2.194 --    39 N    0.506     7 N    0.506    19 N    0.504
                            26 N    0.504
     2   6 C    3.926 --    38 C    1.361     3 C    1.360    40 H    0.971
     3   6 C    3.918 --     2 C    1.360     7 N    1.228     4 C    1.173
     4   6 C    3.954 --     5 C    1.652     3 C    1.173    41 H    0.976
     5   6 C    3.958 --     4 C    1.652     6 C    1.175    42 H    0.973
     6   6 C    3.911 --     8 C    1.316     7 N    1.240     5 C    1.175
     7   7 N    3.243 --     6 C    1.240     3 C    1.228     1 Cu   0.506
     8   6 C    3.934 --    16 C    1.324     6 C    1.316     9 C    1.033
     9   6 C    3.988 --    15 C    1.381    10 C    1.381     8 C    1.033
    10   6 C    3.988 --    11 C    1.469     9 C    1.381    43 H    0.973
    11   6 C    3.990 --    10 C    1.469    12 C    1.354    44 H    0.972
    12   6 C    3.952 --    14 C    1.354    11 C    1.354    13 N    1.115
    13   7 N    3.133 --    12 C    1.115    46 H    0.934    45 H    0.933
    14   6 C    3.989 --    15 C    1.468    12 C    1.354    47 H    0.972
    15   6 C    3.988 --    14 C    1.468     9 C    1.381    48 H    0.973
    16   6 C    3.907 --     8 C    1.324    19 N    1.221    17 C    1.182
    17   6 C    3.954 --    18 C    1.639    16 C    1.182    49 H    0.973
    18   6 C    3.956 --    17 C    1.639    20 C    1.189    50 H    0.974
    19   7 N    3.247 --    20 C    1.257    16 C    1.221     1 Cu   0.504
    20   6 C    3.898 --    21 C    1.257    19 N    1.257    18 C    1.189
    21   6 C    3.936 --    22 C    1.257    20 C    1.257   124 C    1.190
    22   6 C    3.898 --    26 N    1.257    21 C    1.257    23 C    1.189
    23   6 C    3.956 --    24 C    1.639    22 C    1.189    51 H    0.974
    24   6 C    3.954 --    23 C    1.639    25 C    1.182    52 H    0.973
    25   6 C    3.907 --    27 C    1.324    26 N    1.221    24 C    1.182
    26   7 N    3.247 --    22 C    1.257    25 C    1.221     1 Cu   0.504
    27   6 C    3.934 --    25 C    1.324    35 C    1.315    28 C    1.034
    28   6 C    3.988 --    34 C    1.381    29 C    1.380    27 C    1.034
    29   6 C    3.988 --    30 C    1.469    28 C    1.380    53 H    0.973
    30   6 C    3.990 --    29 C    1.469    31 C    1.354    54 H    0.972
    31   6 C    3.952 --    33 C    1.354    30 C    1.354    32 N    1.115
    32   7 N    3.134 --    31 C    1.115    56 H    0.934    55 H    0.933
    33   6 C    3.989 --    34 C    1.468    31 C    1.354    57 H    0.972
    34   6 C    3.988 --    33 C    1.468    28 C    1.381    58 H    0.973
    35   6 C    3.911 --    27 C    1.315    39 N    1.240    36 C    1.175
    36   6 C    3.958 --    37 C    1.652    35 C    1.175    59 H    0.973
    37   6 C    3.954 --    36 C    1.652    38 C    1.173    60 H    0.976
    38   6 C    3.918 --     2 C    1.361    39 N    1.228    37 C    1.173
    39   7 N    3.243 --    35 C    1.240    38 C    1.228     1 Cu   0.506
    40   1 H    1.002 --     2 C    0.971
    41   1 H    0.998 --     4 C    0.976
    42   1 H    1.005 --     5 C    0.973
    43   1 H    1.005 --    10 C    0.973
    44   1 H    0.999 --    11 C    0.972
    45   1 H    0.961 --    13 N    0.933
    46   1 H    0.961 --    13 N    0.934
    47   1 H    0.999 --    14 C    0.972
    48   1 H    1.005 --    15 C    0.973
    49   1 H    1.005 --    17 C    0.973
    50   1 H    1.002 --    18 C    0.974
    51   1 H    1.002 --    23 C    0.974
    52   1 H    1.006 --    24 C    0.973
    53   1 H    1.005 --    29 C    0.973
    54   1 H    0.999 --    30 C    0.972
    55   1 H    0.961 --    32 N    0.933
    56   1 H    0.961 --    32 N    0.934
    57   1 H    0.999 --    33 C    0.972
    58   1 H    1.005 --    34 C    0.973
    59   1 H    1.005 --    36 C    0.973
    60   1 H    0.998 --    37 C    0.976
    61  29 Cu   2.191 --    99 N    0.506    67 N    0.506    79 N    0.503
                            86 N    0.503
    62   6 C    3.926 --    98 C    1.361    63 C    1.360   100 H    0.971
    63   6 C    3.918 --    62 C    1.360    67 N    1.229    64 C    1.173
    64   6 C    3.954 --    65 C    1.652    63 C    1.173   101 H    0.976
    65   6 C    3.958 --    64 C    1.652    66 C    1.175   102 H    0.973
    66   6 C    3.911 --    68 C    1.316    67 N    1.240    65 C    1.175
    67   7 N    3.243 --    66 C    1.240    63 C    1.229    61 Cu   0.506
    68   6 C    3.934 --    76 C    1.325    66 C    1.316    69 C    1.033
    69   6 C    3.988 --    75 C    1.381    70 C    1.381    68 C    1.033
    70   6 C    3.988 --    71 C    1.469    69 C    1.381   103 H    0.973
    71   6 C    3.990 --    70 C    1.469    72 C    1.354   104 H    0.972
    72   6 C    3.952 --    74 C    1.354    71 C    1.354    73 N    1.115
    73   7 N    3.133 --    72 C    1.115   106 H    0.934   105 H    0.934
    74   6 C    3.989 --    75 C    1.468    72 C    1.354   107 H    0.972
    75   6 C    3.988 --    74 C    1.468    69 C    1.381   108 H    0.973
    76   6 C    3.907 --    68 C    1.325    79 N    1.221    77 C    1.182
    77   6 C    3.955 --    78 C    1.639    76 C    1.182   109 H    0.973
    78   6 C    3.956 --    77 C    1.639    80 C    1.189   110 H    0.974
    79   7 N    3.247 --    80 C    1.257    76 C    1.221    61 Cu   0.503
    80   6 C    3.898 --    81 C    1.257    79 N    1.257    78 C    1.189
    81   6 C    3.936 --    82 C    1.257    80 C    1.257   132 C    1.190
    82   6 C    3.898 --    81 C    1.257    86 N    1.257    83 C    1.189
    83   6 C    3.956 --    84 C    1.639    82 C    1.189   111 H    0.974
    84   6 C    3.955 --    83 C    1.639    85 C    1.182   112 H    0.973
    85   6 C    3.907 --    87 C    1.324    86 N    1.222    84 C    1.182
    86   7 N    3.246 --    82 C    1.257    85 C    1.222    61 Cu   0.503
    87   6 C    3.934 --    85 C    1.324    95 C    1.315    88 C    1.034
    88   6 C    3.988 --    94 C    1.381    89 C    1.381    87 C    1.034
    89   6 C    3.988 --    90 C    1.468    88 C    1.381   113 H    0.973
    90   6 C    3.990 --    89 C    1.468    91 C    1.354   114 H    0.972
    91   6 C    3.952 --    90 C    1.354    93 C    1.354    92 N    1.115
    92   7 N    3.133 --    91 C    1.115   116 H    0.934   115 H    0.934
    93   6 C    3.989 --    94 C    1.468    91 C    1.354   117 H    0.972
    94   6 C    3.988 --    93 C    1.468    88 C    1.381   118 H    0.973
    95   6 C    3.911 --    87 C    1.315    99 N    1.240    96 C    1.175
    96   6 C    3.958 --    97 C    1.652    95 C    1.175   119 H    0.973
    97   6 C    3.954 --    96 C    1.652    98 C    1.173   120 H    0.976
    98   6 C    3.918 --    62 C    1.361    99 N    1.228    97 C    1.173
    99   7 N    3.243 --    95 C    1.240    98 C    1.228    61 Cu   0.506
   100   1 H    1.002 --    62 C    0.971
   101   1 H    0.998 --    64 C    0.976
   102   1 H    1.005 --    65 C    0.973
   103   1 H    1.005 --    70 C    0.973
   104   1 H    0.999 --    71 C    0.972
   105   1 H    0.961 --    73 N    0.934
   106   1 H    0.961 --    73 N    0.934
   107   1 H    0.999 --    74 C    0.972
   108   1 H    1.005 --    75 C    0.973
   109   1 H    1.006 --    77 C    0.973
   110   1 H    1.002 --    78 C    0.974
   111   1 H    1.002 --    83 C    0.974
   112   1 H    1.006 --    84 C    0.973
   113   1 H    1.005 --    89 C    0.973
   114   1 H    0.999 --    90 C    0.972
   115   1 H    0.961 --    92 N    0.934
   116   1 H    0.961 --    92 N    0.934
   117   1 H    0.999 --    93 C    0.972
   118   1 H    1.005 --    94 C    0.973
   119   1 H    1.005 --    96 C    0.973
   120   1 H    0.998 --    97 C    0.976
   121   6 C    3.926 --   122 C    2.368   125 C    1.336   124 C    0.190
   122   6 C    3.925 --   121 C    2.368   123 C    1.335   126 C    0.190
   123   6 C    3.934 --   124 C    2.449   122 C    1.335
   124   6 C    3.890 --   123 C    2.449    21 C    1.190   121 C    0.190
   125   6 C    3.932 --   126 C    2.447   121 C    1.336
   126   6 C    3.890 --   125 C    2.447   134 C    1.192   122 C    0.190
   127   6 C    3.925 --   128 C    2.369   131 C    1.334   130 C    0.190
   128   6 C    3.926 --   127 C    2.369   129 C    1.335   132 C    0.190
   129   6 C    3.932 --   130 C    2.448   128 C    1.335
   130   6 C    3.890 --   129 C    2.448   153 C    1.192   127 C    0.190
   131   6 C    3.934 --   132 C    2.450   127 C    1.334
   132   6 C    3.890 --   131 C    2.450    81 C    1.190   128 C    0.190
   133  29 Cu   2.161 --   171 N    0.499   139 N    0.499   158 N    0.498
                           151 N    0.498
   134   6 C    3.926 --   170 C    1.255   135 C    1.255   126 C    1.192
   135   6 C    3.898 --   139 N    1.260   134 C    1.255   136 C    1.189
   136   6 C    3.954 --   137 C    1.638   135 C    1.189   172 H    0.974
   137   6 C    3.955 --   136 C    1.638   138 C    1.183   173 H    0.973
   138   6 C    3.904 --   140 C    1.322   139 N    1.222   137 C    1.183
   139   7 N    3.240 --   135 C    1.260   138 C    1.222   133 Cu   0.499
   140   6 C    3.930 --   138 C    1.322   148 C    1.321   141 C    1.031
   141   6 C    3.988 --   142 C    1.382   147 C    1.382   140 C    1.031
   142   6 C    3.988 --   143 C    1.467   141 C    1.382   174 H    0.973
                           146 C    0.100
   143   6 C    3.990 --   142 C    1.467   144 C    1.355   175 H    0.972
                           147 C    0.100
   144   6 C    3.952 --   143 C    1.355   146 C    1.355   145 N    1.114
   145   7 N    3.133 --   144 C    1.114   176 H    0.934   177 H    0.934
   146   6 C    3.990 --   147 C    1.468   144 C    1.355   178 H    0.972
                           142 C    0.100
   147   6 C    3.988 --   146 C    1.468   141 C    1.382   179 H    0.973
                           143 C    0.100
   148   6 C    3.904 --   140 C    1.321   151 N    1.222   149 C    1.183
   149   6 C    3.955 --   150 C    1.638   148 C    1.183   180 H    0.973
   150   6 C    3.954 --   149 C    1.638   152 C    1.190   181 H    0.974
   151   7 N    3.240 --   152 C    1.259   148 C    1.222   133 Cu   0.498
   152   6 C    3.899 --   151 N    1.259   153 C    1.255   150 C    1.190
   153   6 C    3.926 --   152 C    1.255   154 C    1.255   130 C    1.192
   154   6 C    3.899 --   158 N    1.259   153 C    1.255   155 C    1.190
   155   6 C    3.954 --   156 C    1.638   154 C    1.190   182 H    0.974
   156   6 C    3.955 --   155 C    1.638   157 C    1.183   183 H    0.973
   157   6 C    3.904 --   159 C    1.321   158 N    1.223   156 C    1.183
   158   7 N    3.240 --   154 C    1.259   157 C    1.223   133 Cu   0.498
   159   6 C    3.930 --   167 C    1.322   157 C    1.321   160 C    1.031
   160   6 C    3.988 --   161 C    1.382   166 C    1.382   159 C    1.031
   161   6 C    3.988 --   162 C    1.468   160 C    1.382   184 H    0.973
                           165 C    0.100
   162   6 C    3.990 --   161 C    1.468   163 C    1.355   185 H    0.972
                           166 C    0.100
   163   6 C    3.952 --   165 C    1.355   162 C    1.355   164 N    1.114
   164   7 N    3.133 --   163 C    1.114   187 H    0.934   186 H    0.934
   165   6 C    3.990 --   166 C    1.468   163 C    1.355   188 H    0.972
                           161 C    0.100
   166   6 C    3.988 --   165 C    1.468   160 C    1.382   189 H    0.973
                           162 C    0.100
   167   6 C    3.904 --   159 C    1.322   171 N    1.222   168 C    1.183
   168   6 C    3.955 --   169 C    1.638   167 C    1.183   190 H    0.973
   169   6 C    3.954 --   168 C    1.638   170 C    1.189   191 H    0.974
   170   6 C    3.898 --   171 N    1.259   134 C    1.255   169 C    1.189
   171   7 N    3.240 --   170 C    1.259   167 C    1.222   133 Cu   0.499
   172   1 H    1.002 --   136 C    0.974
   173   1 H    1.005 --   137 C    0.973
   174   1 H    1.005 --   142 C    0.973
   175   1 H    0.999 --   143 C    0.972
   176   1 H    0.961 --   145 N    0.934
   177   1 H    0.961 --   145 N    0.934
   178   1 H    0.999 --   146 C    0.972
   179   1 H    1.005 --   147 C    0.973
   180   1 H    1.006 --   149 C    0.973
   181   1 H    1.002 --   150 C    0.974
   182   1 H    1.002 --   155 C    0.974
   183   1 H    1.006 --   156 C    0.973
   184   1 H    1.005 --   161 C    0.973
   185   1 H    0.999 --   162 C    0.972
   186   1 H    0.961 --   164 N    0.934
   187   1 H    0.961 --   164 N    0.934
   188   1 H    0.999 --   165 C    0.972
   189   1 H    1.005 --   166 C    0.973
   190   1 H    1.005 --   168 C    0.973
   191   1 H    1.002 --   169 C    0.974
 ---------------------------------------------------------------------------

           -------------------------------------------------
          | TOTAL ENERGY             -332.550211505404 Eh   |
          | GRADIENT NORM               0.000661632220 Eh/α |
          | HOMO-LUMO GAP               0.001437618034 eV   |
           -------------------------------------------------

 * finished run on 2022/07/30 at 07:38:03.487
