   * xtb version 6.5.1 (b24c23e) compiled by 'conda@728c89f4b128' on 2022-07-12
          program call               : xtb Co_PhNH2_C4_2.xyz --gfn 1 --opt -T 48

   ID    Z sym.   atoms
    1   27 Co     1, 61
    2    6 C      2-6, 8-12, 14-18, 20-25, 27-31, 33-38, 62-66, 68-72, 74-78,
                  80-85, 87-91, 93-98, 121-124
    3    7 N      7, 13, 19, 26, 32, 39, 67, 73, 79, 86, 92, 99
    4    1 H      40-60, 100-120
########################################################################
[WARNING] Please study the warnings concerning your input carefully
-1- prog_main_parseArguments: Unknown option '-T' provided
########################################################################

          :  Hamiltonian                  GFN1-xTB          :
 * total energy  :  -210.6101745 Eh     change        0.1228102E-08 Eh
 * total energy  :  -211.4835137 Eh     change       -0.8733392E+00 Eh
 * total energy  :  -211.5928326 Eh     change       -0.1093189E+00 Eh
 * total energy  :  -211.6536337 Eh     change       -0.6080103E-01 Eh
 * total energy  :  -211.6738146 Eh     change       -0.2018095E-01 Eh
 * total energy  :  -211.6849171 Eh     change       -0.1110251E-01 Eh
 * total energy  :  -211.6912854 Eh     change       -0.6368327E-02 Eh
 * total energy  :  -211.6949983 Eh     change       -0.3712807E-02 Eh
 * total energy  :  -211.6974292 Eh     change       -0.2430953E-02 Eh
 * total energy  :  -211.6992848 Eh     change       -0.1855625E-02 Eh
 * total energy  :  -211.7103412 Eh     change       -0.1213491E-04 Eh
 * total energy  :  -211.7103553 Eh     change       -0.1409991E-04 Eh
 * total energy  :  -211.7103707 Eh     change       -0.1536281E-04 Eh
 * total energy  :  -211.7103843 Eh     change       -0.1359539E-04 Eh
 * total energy  :  -211.7103947 Eh     change       -0.1035348E-04 Eh
 * total energy  :  -211.7104033 Eh     change       -0.8633340E-05 Eh
 * total energy  :  -211.7104101 Eh     change       -0.6795826E-05 Eh
 * total energy  :  -211.7104155 Eh     change       -0.5392610E-05 Eh
 * total energy  :  -211.7104184 Eh     change       -0.2945457E-05 Eh
   *** GEOMETRY OPTIMIZATION CONVERGED AFTER 57 ITERATIONS ***

 final structure:
================
124
 xtb: 6.5.1 (b24c23e)
Co          15.41462141383348        0.08074006817042        0.01076923287872
C           12.04490407909616        0.13033889415112        0.04674226779561
C           12.70533473658380        1.07493226334981       -0.70991739433481
C           12.04971022379857        2.06688653660300       -1.50574545475080
C           13.00999727947657        2.92542943500361       -1.92458283105734
C           14.24939929536098        2.46423746684903       -1.37132824238213
N           14.06165992879490        1.28754387220498       -0.69225728226670
C           15.44142842209978        3.17816143984477       -1.41613860461925
C           15.45386527423521        4.52942741395259       -2.01507746720598
C           16.31864100622083        4.83328444011969       -3.07027153422688
C           16.33275700920772        6.09544111846399       -3.63564927149968
C           15.47986472577682        7.09080771250405       -3.15080321942526
N           15.52620608763925        8.36776188538395       -3.68035159449396
C           14.62216743825777        6.79962962553285       -2.08649671002554
C           14.60641121041890        5.53148631778158       -1.53442294751052
C           16.62109831435405        2.65349499620765       -0.90541689288917
C           17.86474834189345        3.36106707942291       -0.85665120580854
C           18.81064206202343        2.46525280093684       -0.48178600262982
N           16.79513562645605        1.35268701627958       -0.49250272935602
C           18.14036347713093        1.21898136195600       -0.29090530150502
C           18.80215097552705        0.00895689609591       -0.06848225869659
C           18.10573090979015       -1.17876119446211        0.16737305103892
C           18.73875886669046       -2.44754998327694        0.33700420594516
C           17.77308343211336       -3.31324785705344        0.73099754042078
C           16.55594148685485       -2.56393405404401        0.81709380263060
N           16.76093046885852       -1.27011581390153        0.39460802767346
C           15.37787398438524       -3.04729357696924        1.36983484046105
C           15.36394399381564       -4.39924908644906        1.96725337871051
C           16.25485699647471       -4.73573820917163        2.99026048963052
C           16.24679082093635       -5.99985781676412        3.55140149757639
C           15.35270664082692       -6.96796756687332        3.08615920632263
N           15.31721039835998       -8.22211463906419        3.66854263089381
C           14.45498193195895       -6.63843019052339        2.06693782185495
C           14.46191695970899       -5.36829428276632        1.51937192667448
C           14.21286984640741       -2.28840497976413        1.37521606606439
C           12.98147672593307       -2.70057785641270        1.98194413483179
C           12.03815233663427       -1.80537315977035        1.60248370981283
C           12.69742117900760       -0.84000153634884        0.77763968210280
N           14.04062482352309       -1.11030413201776        0.69549296325964
H           10.96161342159612        0.15181493363232        0.06825463406562
H           10.98927661412124        2.09106555138797       -1.70098391390336
H           12.90135715304810        3.79634815986197       -2.55061331477182
H           16.97012916332877        4.06132761321384       -3.46481678040641
H           17.00270049640846        6.31640694129206       -4.45940442452612
H           15.90175553253917        8.43099434281429       -4.61288893176052
H           14.69841365122808        8.92276012287077       -3.53401495530251
H           13.96950277834712        7.57247919668862       -1.69539383399336
H           13.94635209099213        5.31766929524514       -0.70087856513740
H           17.98770511184486        4.40870314953584       -1.07822354252181
H           19.86949511457748        2.61779634157118       -0.34744121761925
H           19.78827923169006       -2.63465797020204        0.17586168667145
H           17.86692382798601       -4.36509882120681        0.94689559273576
H           16.94532379710808       -3.98742088464690        3.36367850352015
H           16.93502443919338       -6.24478138291947        4.35299729399927
H           16.16440509557263       -8.50074567279363        4.13698830656608
H           14.90678930114542       -8.94603532363050        3.10080092856780
H           13.75678997004035       -7.38479754596810        1.70395035567245
H           13.77580770878178       -5.12714171032858        0.71482108132356
H           12.86655626606510       -3.56567142997395        2.61485002202691
H           10.98739552884193       -1.78674820938632        1.84491243457402
Co          28.79083561784577       -0.03561849830979        0.07237881244415
C           32.16125552348702       -0.03479428090140        0.13214332471657
C           31.50046677717562       -1.18573726812780        0.50562212709728
C           32.15638576033772       -2.39565577521848        0.89680480506004
C           31.19589898582081       -3.21866604092222        1.38121945436494
C           29.95614042908275       -2.50376020646324        1.29863024152918
N           30.14397302558764       -1.28848829500007        0.69130393953542
C           28.76343356516765       -2.93674796441108        1.86638593488527
C           28.75127147921361       -4.18228401470115        2.66244631285546
C           27.89251363511776       -5.23326138594984        2.32869223638256
C           27.87899485672176       -6.40136322911651        3.06919360444078
C           28.72624688586306       -6.54285500770804        4.17162690271408
N           28.68011518964410       -7.68925089304807        4.94416921621918
C           29.57782088009677       -5.49120869849568        4.52090248787238
C           29.59319911903764       -4.33097885010572        3.76799638730007
C           27.58318897372962       -2.22286838958348        1.70890588076627
C           26.33895283148627       -2.57582561830740        2.32291541884358
C           25.39317807178645       -1.76804895623752        1.78385655262606
N           27.40952580442620       -1.15855213993119        0.85447074091100
C           26.06415533111759       -0.91757376329417        0.85356589378260
C           25.40258787752845       -0.06065337456249       -0.02932366644501
C           26.09883422030884        0.79505620751005       -0.88614948960564
C           25.46454555053738        1.64120247745407       -1.84588545345324
C           26.43014806932740        2.44759821740916       -2.35020630465325
C           27.64860367006415        2.10130902478195       -1.68253076162435
N           27.44408551256654        1.03295729115983       -0.83907457825264
C           28.82811471862184        2.82602906237938       -1.78445207357463
C           28.84159541084971        4.07156216544994       -2.58044542533731
C           27.95574568486810        5.11271788946160       -2.28933321828674
C           27.96317842645939        6.27967723947905       -3.03169222105437
C           28.85147649380360        6.42509389470292       -4.10072003681069
N           28.88655698119993        7.60415866328967       -4.82316491242306
C           29.74412345917786        5.39090363976869       -4.39557756849805
C           29.73790053939433        4.23188829732981       -3.64070799599125
C           29.99462446377449        2.40840334645903       -1.15369526188355
C           31.22755051580823        3.13917325859442       -1.16754425295464
C           32.17050403879141        2.32793437521724       -0.63102195660478
C           31.50953606653554        1.10947805049475       -0.27687092464807
N           30.16591631297403        1.19190351174878       -0.54505849142498
H           33.24455655282097       -0.02920246181640        0.16182548718723
H           33.21709865077909       -2.57112751188737        0.81123269004543
H           31.30446546666925       -4.22069591245174        1.76379045917032
H           27.24501121737263       -5.13858749074673        1.46385893054901
H           27.21377921538689       -7.21295292038152        2.79523296872399
H           28.31149177287812       -8.50371907241563        4.48001435802885
H           29.50499290344001       -7.86939104436127        5.49345087158941
H           30.22615344067227       -5.58897269602296        5.38483493793941
H           30.24882704073303       -3.51536116961606        4.05289714624578
H           26.21567913511873       -3.34138114642280        3.07157258602420
H           24.33402661412776       -1.74162069458619        1.98379384933262
H           24.41427587090470        1.61270039900313       -2.08793121604562
H           26.33551643443916        3.21090020249230       -3.10532826070811
H           27.26977660239868        5.01175789739725       -1.45541438265717
H           27.27891644426604        7.08504351958879       -2.78800819150562
H           28.04134527257471        8.15131653054454       -4.79091161203272
H           29.29121727444801        7.53060342214359       -5.74277275210985
H           30.43784540068693        5.49943600627912       -5.22217630877009
H           30.42002545516676        3.42615997449531       -3.88913472021685
H           31.34372691571470        4.14325774820324       -1.54234016050305
H           33.22204976271632        2.51787577101485       -0.48477821454667
C           21.42765366879575       -0.03082819458444       -0.07511454252152
C           20.20570069554161       -0.01302554231118       -0.07658789552736
C           22.77706022556139       -0.04535174843518       -0.06591603135751
C           23.99901918655841       -0.05569422997154       -0.05292556877040

          :  Hamiltonian                  GFN1-xTB          :
         :: total energy            -211.710418417684 Eh    ::
         :: gradient norm              0.000335809574 Eh/a0 ::
         :: HOMO-LUMO gap              0.010681726867 eV    ::
         :: SCC energy              -215.077147626754 Eh    ::
         :: repulsion energy           3.475598714861 Eh    ::

    * Orbital Energies and Occupations

         #    Occupation            Energy/Eh            Energy/eV
      -------------------------------------------------------------
         1        2.0000           -0.7799166             -21.2226
       ...           ...                  ...                  ...
       184        2.0000           -0.3969041             -10.8003
       185        2.0000           -0.3968699             -10.7994
       186        2.0000           -0.3878218             -10.5532
       187        2.0000           -0.3878168             -10.5530
       188        2.0000           -0.3853643             -10.4863
       189        2.0000           -0.3853424             -10.4857
       190        1.9999           -0.3830876             -10.4243
       191        1.9999           -0.3820860             -10.3971
       192        1.9998           -0.3820777             -10.3969
       193        1.9998           -0.3819982             -10.3947
       194        1.9998           -0.3819843             -10.3943
       195        1.8970           -0.3758239             -10.2267
       196        1.1545           -0.3733517             -10.1594 (HOMO)
       197        0.9492           -0.3729591             -10.1487 (LUMO)
       198                         -0.3290255              -8.9532
       199                         -0.3181660              -8.6577
       200                         -0.3181473              -8.6572
       201                         -0.3174066              -8.6371
       202                         -0.2897309              -7.8840
       203                         -0.2835962              -7.7170
       204                         -0.2831989              -7.7062
       205                         -0.2830196              -7.7014
       206                         -0.2574382              -7.0052
       207                         -0.2573979              -7.0042
       ...                                ...                  ...
       422                          1.5239338              41.4683
      -------------------------------------------------------------
                  HL-Gap            0.0003925 Eh            0.0107 eV

Wiberg/Mayer (AO) data.
largest (>0.10) Wiberg bond orders for each atom

     #   Z sym  total        # sym  WBO       # sym  WBO       # sym  WBO
 ---------------------------------------------------------------------------
     1  27 Co   3.062 --     7 N    0.641    39 N    0.636    26 N    0.636
                            19 N    0.632
     2   6 C    3.928 --     3 C    1.365    38 C    1.363    40 H    0.970
     3   6 C    3.926 --     2 C    1.365     7 N    1.199     4 C    1.177
     4   6 C    3.958 --     5 C    1.645     3 C    1.177    41 H    0.975
     5   6 C    3.963 --     4 C    1.645     6 C    1.179    42 H    0.973
     6   6 C    3.919 --     8 C    1.314     7 N    1.214     5 C    1.179
     7   7 N    3.343 --     6 C    1.214     3 C    1.199     1 Co   0.641
     8   6 C    3.932 --    16 C    1.325     6 C    1.314     9 C    1.039
     9   6 C    3.986 --    15 C    1.377    10 C    1.377     8 C    1.039
    10   6 C    3.985 --    11 C    1.471     9 C    1.377    43 H    0.972
    11   6 C    3.989 --    10 C    1.471    12 C    1.352    44 H    0.972
    12   6 C    3.950 --    14 C    1.352    11 C    1.352    13 N    1.118
    13   7 N    3.135 --    12 C    1.118    45 H    0.933    46 H    0.933
    14   6 C    3.988 --    15 C    1.471    12 C    1.352    47 H    0.972
    15   6 C    3.985 --    14 C    1.471     9 C    1.377    48 H    0.972
    16   6 C    3.916 --     8 C    1.325    19 N    1.196    17 C    1.184
    17   6 C    3.959 --    18 C    1.633    16 C    1.184    49 H    0.973
    18   6 C    3.960 --    17 C    1.633    20 C    1.193    50 H    0.974
    19   7 N    3.346 --    20 C    1.228    16 C    1.196     1 Co   0.632
    20   6 C    3.907 --    21 C    1.260    19 N    1.228    18 C    1.193
    21   6 C    3.931 --    22 C    1.260    20 C    1.260   122 C    1.187
    22   6 C    3.907 --    21 C    1.260    26 N    1.229    23 C    1.192
    23   6 C    3.960 --    24 C    1.634    22 C    1.192    51 H    0.974
    24   6 C    3.960 --    23 C    1.634    25 C    1.184    52 H    0.973
    25   6 C    3.916 --    27 C    1.327    26 N    1.195    24 C    1.184
    26   7 N    3.345 --    22 C    1.229    25 C    1.195     1 Co   0.636
    27   6 C    3.932 --    25 C    1.327    35 C    1.312    28 C    1.039
    28   6 C    3.986 --    34 C    1.377    29 C    1.377    27 C    1.039
    29   6 C    3.985 --    30 C    1.471    28 C    1.377    53 H    0.972
    30   6 C    3.989 --    29 C    1.471    31 C    1.352    54 H    0.972
    31   6 C    3.950 --    30 C    1.352    33 C    1.352    32 N    1.118
    32   7 N    3.135 --    31 C    1.118    56 H    0.933    55 H    0.933
    33   6 C    3.988 --    34 C    1.471    31 C    1.352    57 H    0.972
    34   6 C    3.985 --    33 C    1.471    28 C    1.377    58 H    0.972
    35   6 C    3.919 --    27 C    1.312    39 N    1.215    36 C    1.180
    36   6 C    3.963 --    37 C    1.644    35 C    1.180    59 H    0.973
    37   6 C    3.958 --    36 C    1.644    38 C    1.178    60 H    0.975
    38   6 C    3.926 --     2 C    1.363    39 N    1.200    37 C    1.178
    39   7 N    3.344 --    35 C    1.215    38 C    1.200     1 Co   0.636
    40   1 H    1.000 --     2 C    0.970
    41   1 H    0.998 --     4 C    0.975
    42   1 H    1.005 --     5 C    0.973
    43   1 H    1.006 --    10 C    0.972
    44   1 H    0.999 --    11 C    0.972
    45   1 H    0.960 --    13 N    0.933
    46   1 H    0.960 --    13 N    0.933
    47   1 H    0.998 --    14 C    0.972
    48   1 H    1.005 --    15 C    0.972
    49   1 H    1.005 --    17 C    0.973
    50   1 H    1.002 --    18 C    0.974
    51   1 H    1.002 --    23 C    0.974
    52   1 H    1.005 --    24 C    0.973
    53   1 H    1.006 --    29 C    0.972
    54   1 H    0.998 --    30 C    0.972
    55   1 H    0.960 --    32 N    0.933
    56   1 H    0.960 --    32 N    0.933
    57   1 H    0.998 --    33 C    0.972
    58   1 H    1.006 --    34 C    0.972
    59   1 H    1.005 --    36 C    0.973
    60   1 H    0.998 --    37 C    0.975
    61  27 Co   3.059 --    67 N    0.640    99 N    0.636    86 N    0.636
                            79 N    0.632
    62   6 C    3.928 --    63 C    1.365    98 C    1.363   100 H    0.970
    63   6 C    3.926 --    62 C    1.365    67 N    1.199    64 C    1.177
    64   6 C    3.958 --    65 C    1.645    63 C    1.177   101 H    0.975
    65   6 C    3.963 --    64 C    1.645    66 C    1.179   102 H    0.973
    66   6 C    3.919 --    68 C    1.314    67 N    1.214    65 C    1.179
    67   7 N    3.343 --    66 C    1.214    63 C    1.199    61 Co   0.640
    68   6 C    3.932 --    76 C    1.326    66 C    1.314    69 C    1.039
    69   6 C    3.986 --    75 C    1.377    70 C    1.377    68 C    1.039
    70   6 C    3.985 --    71 C    1.471    69 C    1.377   103 H    0.972
    71   6 C    3.989 --    70 C    1.471    72 C    1.352   104 H    0.972
    72   6 C    3.950 --    74 C    1.352    71 C    1.352    73 N    1.118
    73   7 N    3.135 --    72 C    1.118   105 H    0.933   106 H    0.933
    74   6 C    3.988 --    75 C    1.471    72 C    1.352   107 H    0.972
    75   6 C    3.985 --    74 C    1.471    69 C    1.377   108 H    0.972
    76   6 C    3.916 --    68 C    1.326    79 N    1.196    77 C    1.184
    77   6 C    3.959 --    78 C    1.633    76 C    1.184   109 H    0.973
    78   6 C    3.960 --    77 C    1.633    80 C    1.193   110 H    0.974
    79   7 N    3.346 --    80 C    1.229    76 C    1.196    61 Co   0.632
    80   6 C    3.907 --    81 C    1.260    79 N    1.229    78 C    1.193
    81   6 C    3.931 --    82 C    1.261    80 C    1.260   124 C    1.187
    82   6 C    3.907 --    81 C    1.261    86 N    1.229    83 C    1.192
    83   6 C    3.960 --    84 C    1.634    82 C    1.192   111 H    0.974
    84   6 C    3.960 --    83 C    1.634    85 C    1.184   112 H    0.973
    85   6 C    3.916 --    87 C    1.327    86 N    1.195    84 C    1.184
    86   7 N    3.345 --    82 C    1.229    85 C    1.195    61 Co   0.636
    87   6 C    3.932 --    85 C    1.327    95 C    1.312    88 C    1.039
    88   6 C    3.986 --    94 C    1.378    89 C    1.377    87 C    1.039
    89   6 C    3.985 --    90 C    1.471    88 C    1.377   113 H    0.972
    90   6 C    3.989 --    89 C    1.471    91 C    1.352   114 H    0.972
    91   6 C    3.950 --    90 C    1.352    93 C    1.352    92 N    1.118
    92   7 N    3.135 --    91 C    1.118   116 H    0.933   115 H    0.933
    93   6 C    3.988 --    94 C    1.471    91 C    1.352   117 H    0.972
    94   6 C    3.985 --    93 C    1.471    88 C    1.378   118 H    0.972
    95   6 C    3.919 --    87 C    1.312    99 N    1.215    96 C    1.180
    96   6 C    3.963 --    97 C    1.644    95 C    1.180   119 H    0.973
    97   6 C    3.958 --    96 C    1.644    98 C    1.178   120 H    0.975
    98   6 C    3.926 --    62 C    1.363    99 N    1.200    97 C    1.178
    99   7 N    3.344 --    95 C    1.215    98 C    1.200    61 Co   0.636
   100   1 H    1.000 --    62 C    0.970
   101   1 H    0.998 --    64 C    0.975
   102   1 H    1.005 --    65 C    0.973
   103   1 H    1.006 --    70 C    0.972
   104   1 H    0.999 --    71 C    0.972
   105   1 H    0.960 --    73 N    0.933
   106   1 H    0.960 --    73 N    0.933
   107   1 H    0.998 --    74 C    0.972
   108   1 H    1.005 --    75 C    0.972
   109   1 H    1.005 --    77 C    0.973
   110   1 H    1.002 --    78 C    0.974
   111   1 H    1.002 --    83 C    0.974
   112   1 H    1.005 --    84 C    0.973
   113   1 H    1.006 --    89 C    0.972
   114   1 H    0.998 --    90 C    0.972
   115   1 H    0.960 --    92 N    0.933
   116   1 H    0.960 --    92 N    0.933
   117   1 H    0.998 --    93 C    0.972
   118   1 H    1.005 --    94 C    0.972
   119   1 H    1.005 --    96 C    0.973
   120   1 H    0.998 --    97 C    0.975
   121   6 C    3.929 --   122 C    2.473   123 C    1.308
   122   6 C    3.919 --   121 C    2.473    21 C    1.187   124 C    0.197
   123   6 C    3.929 --   124 C    2.473   121 C    1.308
   124   6 C    3.919 --   123 C    2.473    81 C    1.187   122 C    0.197
 ---------------------------------------------------------------------------

           -------------------------------------------------
          | TOTAL ENERGY             -211.710418417684 Eh   |
          | GRADIENT NORM               0.000335809574 Eh/α |
          | HOMO-LUMO GAP               0.010681726867 eV   |
           -------------------------------------------------

 * finished run on 2022/07/30 at 00:03:51.893
