   * xtb version 6.5.1 (b24c23e) compiled by 'conda@728c89f4b128' on 2022-07-12
          program call               : xtb Fe_Ph2Me_C2_3.xyz --gfn 1 --opt -T 48

   ID    Z sym.   atoms
    1   26 Fe     1, 69, 141
    2    6 C      2-6, 8-11, 13-31, 34-41, 70-74, 76-79, 81-99, 102-109,
                  137-140, 142-146, 148-151, 153-171, 174-181
    3    7 N      7, 12, 32, 33, 75, 80, 100, 101, 147, 152, 172, 173
    4    1 H      42-68, 110-136, 182-207
########################################################################
[WARNING] Please study the warnings concerning your input carefully
-1- prog_main_parseArguments: Unknown option '-T' provided
########################################################################

          :  Hamiltonian                  GFN1-xTB          :
 * total energy  :  -326.4159240 Eh     change       -0.2189665E-08 Eh
 * total energy  :  -326.9903546 Eh     change       -0.5744305E+00 Eh
 * total energy  :  -327.1263966 Eh     change       -0.1360421E+00 Eh
 * total energy  :  -327.1930239 Eh     change       -0.6662726E-01 Eh
 * total energy  :  -327.2166864 Eh     change       -0.2366253E-01 Eh
 * total energy  :  -327.2278902 Eh     change       -0.1120377E-01 Eh
 * total energy  :  -327.2335090 Eh     change       -0.5618857E-02 Eh
 * total energy  :  -327.2365785 Eh     change       -0.3069482E-02 Eh
 * total energy  :  -327.2379396 Eh     change       -0.1361026E-02 Eh
 * total energy  :  -327.2385833 Eh     change       -0.6437606E-03 Eh
 * total energy  :  -327.2471395 Eh     change       -0.1466325E-04 Eh
 * total energy  :  -327.2471573 Eh     change       -0.1782673E-04 Eh
 * total energy  :  -327.2471815 Eh     change       -0.2423602E-04 Eh
 * total energy  :  -327.2472129 Eh     change       -0.3137318E-04 Eh
 * total energy  :  -327.2472222 Eh     change       -0.9322798E-05 Eh
 * total energy  :  -327.2472340 Eh     change       -0.1173753E-04 Eh
 * total energy  :  -327.2472305 Eh     change        0.3435268E-05 Eh
 * total energy  :  -327.2472391 Eh     change       -0.8588715E-05 Eh
 * total energy  :  -327.2472439 Eh     change       -0.4794445E-05 Eh
   *** GEOMETRY OPTIMIZATION CONVERGED AFTER 189 ITERATIONS ***

 final structure:
================
207
 xtb: 6.5.1 (b24c23e)
Fe          33.69453924998196        0.11545025306229       -0.19791589247247
C           30.60816695206134        0.43413810017653       -1.45631039420671
C           31.15463001499871        1.53260046785771       -0.81998248553265
C           30.45253483254389        2.76218869683391       -0.60531407876003
C           31.22911165551700        3.51632208867134        0.20993968528245
C           32.43443849816013        2.77360154275084        0.43952476669936
N           32.36295955608863        1.55471850948139       -0.17579176064276
C           33.54949475853234        3.25916264538239        1.11940573092574
C           34.76637598951406        2.58970601711714        1.12235585827068
C           36.00438985427911        3.18190326890278        1.53363062221195
C           36.98794971341952        2.32133634365878        1.17215663494443
N           34.99785174168651        1.35337880157731        0.57070292953687
C           36.34773416110458        1.18300225208958        0.59251178349945
C           37.02757722576291        0.01253447992224        0.21558866146736
C           36.34988089890018       -1.19595780532679       -0.01951993665283
C           36.99251567149965       -2.47216064661301       -0.05155807178269
C           36.00975471393431       -3.40217115751158       -0.14348950587803
C           34.77055815769744       -2.68739936686910       -0.22199251955878
C           33.55325654433540       -3.27534080376028       -0.54101844613426
C           33.48876311634417       -4.75482777518259       -0.60142346840443
C           33.26277313859977       -5.41359795602089       -1.80756665130243
C           33.21719395789658       -6.80424586461840       -1.85453662196336
C           32.96266590756488       -7.50362066066103       -3.16249723551737
C           33.39551570448457       -7.53183169388953       -0.68349254850065
C           33.62817177779147       -6.88699248667112        0.52948674481468
C           33.81550514293253       -7.69342152677959        1.78603713941859
C           33.67790470351517       -5.49907967002618        0.56356282762823
C           32.43715722088971       -2.52497716320867       -0.90576638959242
C           31.23130034134453       -3.06906697532632       -1.45997924694446
C           30.45409032480337       -2.01799872902673       -1.81721358844095
C           31.15587683193473       -0.83431053522053       -1.42075545579695
N           32.36479129364559       -1.16014444914046       -0.86580548350863
N           35.00029467113946       -1.33727056870283       -0.11842649799615
C           33.48553747157408        4.59013367599485        1.76857479863112
C           33.26730213837048        5.74337375702100        1.01649881874189
C           33.22133940558997        6.98888928686729        1.63344841127983
C           33.01383460072496        8.23529635699723        0.81610635701266
C           33.39355667448786        7.07446907712039        3.01190661653789
C           33.61754778935889        5.93250564409013        3.77512806712108
C           33.78575029812094        6.03561514313676        5.26687906756082
C           33.66675921710006        4.69274195034311        3.14697271189372
H           29.63333654830043        0.55054089010217       -1.91708699470692
H           29.47675411516535        2.98864339817985       -1.00508961868853
H           31.01712648379701        4.49233134955619        0.61538043059245
H           36.10090610348893        4.14721253687314        2.00338284329990
H           38.05156734262126        2.42421233136379        1.31099234224572
H           38.05634079114349       -2.62750360352647        0.02459273545305
H           36.10758581853901       -4.47464134718521       -0.18965868205674
H           33.14694904412295       -4.83772308726651       -2.71912742680024
H           33.25904059516380       -8.55112525927582       -3.10947005971025
H           31.89892910400091       -7.46005355039693       -3.40672876856848
H           33.51365905112373       -7.02137779383509       -3.97071599398022
H           33.36021259414159       -8.61602907096794       -0.71373547051302
H           34.16608491952297       -7.06551553368751        2.60489896603485
H           32.86898882862753       -8.15046184055621        2.08215397883242
H           34.53851844386676       -8.49386249701318        1.62237714690755
H           33.85297079773098       -4.98263044556843        1.50095187748539
H           31.01912261626568       -4.12036285252772       -1.56782577717038
H           29.47798224072846       -2.02702493457532       -2.27588566895190
H           33.15576941369331        5.66693038966998       -0.05945120360574
H           32.43259473873458        8.97101082250622        1.37263404115510
H           32.49681637120042        8.00812314355968       -0.11623512490156
H           33.97965624486549        8.68262634570707        0.57016304217924
H           33.35715878151792        8.04458958306151        3.49688034270849
H           32.80890818015469        5.99326028209387        5.75406931705980
H           34.25952930622548        6.97892078741573        5.53958074509431
H           34.39097248954804        5.21276429199451        5.64758515336757
H           33.83449491332251        3.79372743973995        3.72984230906560
Fe          55.24594149037691       -0.06081500149068        0.15625918577418
C           58.62983845599194        0.07949372836114        0.11635386201478
C           58.00767848245560       -0.74179000871766       -0.80141250898607
C           58.71430419824229       -1.54006780515534       -1.75738836131431
C           57.78878959139639       -2.30297152259183       -2.38532691161622
C           56.51518914598974       -1.96053404915137       -1.82052139701198
N           56.66162881919862       -0.99046784234636       -0.86627618133396
C           55.32489594338534       -2.60663083924235       -2.13827317277156
C           54.10581421501955       -2.26178221864595       -1.57269169576324
C           52.86152405337734       -2.88563130767119       -1.91402293387409
C           51.88763384414221       -2.18834736082851       -1.28162029680565
N           53.88931179651744       -1.20726025167953       -0.71716385889778
C           52.53689453088509       -1.13981698442036       -0.55833709821763
C           51.84282250794085       -0.12473701233885        0.11033052109939
C           52.48234941871971        0.88905517402784        0.83193555555577
C           51.77916186276624        1.91122264025355        1.54294874861684
C           52.70735618872876        2.60398820971010        2.24596413612388
C           53.97618517143117        2.00322453909888        1.95942317518823
C           55.17177114098335        2.40259979941156        2.53951047276034
C           55.13546050661343        3.45544098103327        3.58314925885896
C           55.76751799130776        4.67862206772547        3.37403771533853
C           55.73115823060859        5.66913728241848        4.35203178847394
C           56.41481639300302        6.98720235967698        4.10653295468013
C           55.06488073957702        5.42250422305303        5.54655117463523
C           54.42976698299510        4.20266860480021        5.77121648766967
C           53.72825245733070        3.94947042255125        7.07824580307206
C           54.46416282123809        3.22532416689568        4.78459854535523
C           56.40209062252129        1.86922608822957        2.17132007938191
C           57.65367654428096        2.26215644937113        2.75183111312543
C           58.62498625274992        1.62533443565288        2.05575164301067
C           57.96518045324058        0.82917001412711        1.06527184256313
N           56.60532442771792        0.95963099982993        1.16874891371771
N           53.82376438758141        0.97423339671350        1.06177451852102
C           55.35736008812580       -3.70044619972742       -3.14030426186269
C           55.69539515511573       -3.42555917636315       -4.46418089455895
C           55.72249907907444       -4.44343273354538       -5.41188740012704
C           56.06493911420376       -4.13623388091085       -6.84476944006463
C           55.40850366755940       -5.74269532164529       -5.02559690106278
C           55.06939333912435       -6.03248413370800       -3.70696906025899
C           54.75220043787768       -7.44609443551181       -3.29976773336727
C           55.04522617837347       -5.00702624994834       -2.76808988707902
H           59.71305013922688        0.12591986932834        0.10173381970339
H           59.78275704526757       -1.51759774570056       -1.90285266737232
H           57.94407942899473       -3.04437246218782       -3.15224970039907
H           52.75482461237288       -3.73417411398603       -2.56990638038337
H           50.82196798631988       -2.34931430944592       -1.30668188001071
H           50.71195227898306        2.06081911278401        1.50838146657728
H           52.55861700609380        3.45020083367987        2.89688950002297
H           56.27520259820319        4.86434602830017        2.43385205260507
H           56.22903959224055        7.68297330081730        4.92450939567511
H           57.49266210105624        6.84051708600124        4.01341957628933
H           56.05559478894431        7.43440893767315        3.17822345980977
H           55.03574291913826        6.18882670090792        6.31440740803726
H           53.10666768942345        3.05605227554760        7.02160132961150
H           54.46223836663864        3.80848432099190        7.87456316172101
H           53.09955343194296        4.79940442830695        7.34720051405309
H           53.98121859531221        2.26833741564730        4.94892013136804
H           57.76143180285799        2.93929830313579        3.58365719623298
H           59.69419768329873        1.67398073760348        2.18868132881961
H           55.92307742553365       -2.40619819555695       -4.75608779526769
H           56.53320843500452       -4.99566089368119       -7.32507464149577
H           56.74153427641200       -3.28374875975995       -6.90800663183032
H           55.15628430425316       -3.89045522285182       -7.39917855472859
H           55.42773322293241       -6.54031964823861       -5.76122328136206
H           55.67725032131083       -7.99282422345083       -3.10322517951393
H           54.21499686375312       -7.96572732495824       -4.09379713335326
H           54.14675338612735       -7.46380545442281       -2.39352853781320
H           54.79602717520292       -5.22198220027984       -1.73476560715436
C           38.42528206336500        0.02419253438388        0.15742513327362
C           39.63954297098405        0.04456950583350        0.03186149033235
C           49.22370996263330       -0.10215982850990       -0.02509163137964
C           50.43964255718633       -0.11930192256452        0.04798333265225
Fe          44.42946843799761        0.03478609586729       -0.34968967500289
C           41.03082368371959        0.05693054926943       -0.11901640704258
C           41.73463307847467        1.24000707556833        0.15013493873105
C           41.10226267155907        2.46573215180281        0.52142515058149
C           42.05795902374535        3.42648602185719        0.47807258848782
C           43.27681783169473        2.77730422323335        0.10180562987877
N           43.06751197563592        1.43122341271583       -0.06302822098944
C           44.49028486685467        3.43628543566350       -0.06377137778455
C           45.69555478215705        2.76475813915972       -0.23167462081301
C           46.97276747643696        3.40685879828243       -0.31483693194523
C           47.90654850926028        2.42487779985884       -0.26298232776595
N           45.85079291321023        1.39975592768177       -0.20769124321486
C           47.19599819141752        1.18754948265428       -0.19054097981646
C           47.82499191712262       -0.06401900552890       -0.13637389682120
C           47.12615423095624       -1.26892533126590       -0.27382220758723
C           47.75833365314807       -2.54963274495022       -0.30131686562671
C           46.79785137070355       -3.44953042155583       -0.62840529251990
C           45.57993066510220       -2.71368652186666       -0.78430493502259
C           44.36521863126333       -3.28309579297015       -1.15713388651942
C           44.35363579377226       -4.71622041780796       -1.53114943850226
C           43.60132334824566       -5.63203739426500       -0.79782530016166
C           43.60176844108272       -6.98098045442528       -1.13911630258302
C           42.80822953035531       -7.96609836165723       -0.32401213771080
C           44.35924599679600       -7.40892025935961       -2.22407704192262
C           45.11539402370639       -6.50572983333988       -2.96762874056464
C           45.93888125406675       -6.99110766340413       -4.12978775776508
C           45.11231294686579       -5.16200192294991       -2.61405852575726
C           43.16673907883133       -2.58250166508972       -1.13690863698284
C           41.89303202026795       -3.15211712733968       -1.45867494766705
C           40.95735379079159       -2.23384668328241       -1.11171434062389
C           41.66308406891969       -1.09602140911499       -0.61452588940560
N           43.00731372262121       -1.29609057004623       -0.67595963296218
N           45.79045031367352       -1.38367004309618       -0.52747249936968
C           44.49254626691953        4.91624677268201       -0.00430595016662
C           45.22133069689088        5.59161720641931        0.97389581632786
C           45.21276745222733        6.98126877226958        1.02626818958672
C           46.01260278731137        7.70711669420216        2.07402638739296
C           44.47219950388433        7.69508195942654        0.08862954196309
C           43.73628153727707        7.03539812143753       -0.89127224408743
C           42.95044795521340        7.81717157666720       -1.90888676549901
C           43.74806656018603        5.64559678397919       -0.93106569623014
H           40.05754747230073        2.57047467130933        0.76293076572926
H           41.95835808678318        4.47737907751443        0.69555688572270
H           47.12829905997665        4.47006535021082       -0.39735704756992
H           48.98030019591867        2.51707023509765       -0.29036216941965
H           48.80318367534084       -2.72425620258853       -0.10155534872158
H           46.89446459152109       -4.51707360161493       -0.74086039896994
H           43.02852883245848       -5.28987485816041        0.05710012549272
H           42.55022387493806       -8.84374767505388       -0.91678292696600
H           43.39712882037009       -8.29597350863719        0.53491938934034
H           41.89137398381946       -7.50979945958086        0.05006841905510
H           44.36207842807568       -8.45948976497435       -2.49601565193404
H           46.29465768399881       -6.15589778483465       -4.73271303150117
H           45.35298734739653       -7.65846366974277       -4.76321075854612
H           46.80561422130959       -7.54713772201583       -3.76596072563344
H           45.68781605269157       -4.44620154846129       -3.19064071392853
H           41.74164485236221       -4.12807866873608       -1.89010659522054
H           39.88558309508930       -2.30246117199769       -1.20095058229779
H           45.77767237906772        5.02462731215542        1.71213213645467
H           45.51622020779434        8.63174257519331        2.36958453379260
H           46.99739188475153        7.96322501991778        1.67653038509809
H           46.15425911320671        7.08374020940854        2.95694638492009
H           44.46362211352169        8.77959444650928        0.12598010169642
H           42.59035617593779        8.75460138155404       -1.48440387245731
H           42.09762742002627        7.24063782640211       -2.26760369446989
H           43.58529123270156        8.05415896766713       -2.76570712234021
H           43.18655042377344        5.11913666934722       -1.69504050142366

          :  Hamiltonian                  GFN1-xTB          :
         :: total energy            -327.247243927499 Eh    ::
         :: gradient norm              0.000281737878 Eh/a0 ::
         :: HOMO-LUMO gap              0.046010238985 eV    ::
         :: SCC energy              -332.457698018150 Eh    ::
         :: repulsion energy           5.395045243115 Eh    ::

    * Orbital Energies and Occupations

         #    Occupation            Energy/Eh            Energy/eV
      -------------------------------------------------------------
         1        2.0000           -0.7676494             -20.8888
       ...           ...                  ...                  ...
       294        2.0000           -0.3947174             -10.7408
       295        2.0000           -0.3912755             -10.6471
       296        2.0000           -0.3884553             -10.5704
       297        1.9965           -0.3830952             -10.4246
       298        1.9919           -0.3822920             -10.4027
       299        1.9875           -0.3818811             -10.3915
       300        1.9810           -0.3814811             -10.3806
       301        1.9798           -0.3814185             -10.3789
       302        1.9773           -0.3813094             -10.3760
       303        1.9688           -0.3810037             -10.3676
       304        1.9568           -0.3806887             -10.3591
       305        1.9544           -0.3806346             -10.3576
       306        1.2141           -0.3774781             -10.2717 (HOMO)
       307        0.4134           -0.3757872             -10.2257 (LUMO)
       308        0.3406           -0.3755604             -10.2195
       309        0.2378           -0.3751621             -10.2087
       310                         -0.3404409              -9.2639
       311                         -0.3275305              -8.9126
       312                         -0.3257901              -8.8652
       313                         -0.3254878              -8.8570
       314                         -0.3217462              -8.7552
       315                         -0.3169193              -8.6238
       316                         -0.2981356              -8.1127
       317                         -0.2940827              -8.0024
       ...                                ...                  ...
       683                          1.3390047              36.4362
      -------------------------------------------------------------
                  HL-Gap            0.0016908 Eh            0.0460 eV

Wiberg/Mayer (AO) data.
largest (>0.10) Wiberg bond orders for each atom

     #   Z sym  total        # sym  WBO       # sym  WBO       # sym  WBO
 ---------------------------------------------------------------------------
     1  26 Fe   3.198 --    32 N    0.662     7 N    0.662    12 N    0.657
                            33 N    0.657
     2   6 C    3.920 --     3 C    1.359    31 C    1.359    42 H    0.971
     3   6 C    3.926 --     2 C    1.359     7 N    1.211     4 C    1.174
     4   6 C    3.960 --     5 C    1.647     3 C    1.174    43 H    0.975
     5   6 C    3.963 --     4 C    1.647     6 C    1.177    44 H    0.972
     6   6 C    3.923 --     8 C    1.306     7 N    1.230     5 C    1.177
     7   7 N    3.376 --     6 C    1.230     3 C    1.211     1 Fe   0.662
     8   6 C    3.922 --     9 C    1.335     6 C    1.306    34 C    1.026
     9   6 C    3.918 --     8 C    1.335    12 N    1.198    10 C    1.180
    10   6 C    3.959 --    11 C    1.635     9 C    1.180    45 H    0.973
    11   6 C    3.962 --    10 C    1.635    13 C    1.190    46 H    0.968
    12   7 N    3.375 --    13 C    1.255     9 C    1.198     1 Fe   0.657
    13   6 C    3.911 --    12 N    1.255    14 C    1.238    11 C    1.190
    14   6 C    3.918 --    13 C    1.238    15 C    1.237   137 C    1.218
    15   6 C    3.911 --    33 N    1.255    14 C    1.237    16 C    1.190
    16   6 C    3.962 --    17 C    1.635    15 C    1.190    47 H    0.970
    17   6 C    3.959 --    16 C    1.635    18 C    1.180    48 H    0.973
    18   6 C    3.919 --    19 C    1.334    33 N    1.198    17 C    1.180
    19   6 C    3.922 --    18 C    1.334    28 C    1.306    20 C    1.026
    20   6 C    3.988 --    21 C    1.403    27 C    1.389    19 C    1.026
                            24 C    0.103
    21   6 C    3.986 --    22 C    1.410    20 C    1.403    49 H    0.972
                            25 C    0.104
    22   6 C    3.988 --    24 C    1.423    21 C    1.410    23 C    1.020
                            27 C    0.103
    23   6 C    3.995 --    22 C    1.020    50 H    0.985    52 H    0.980
                            51 H    0.972
    24   6 C    3.988 --    22 C    1.423    25 C    1.407    53 H    0.972
                            20 C    0.103
    25   6 C    3.988 --    27 C    1.425    24 C    1.407    26 C    1.020
                            21 C    0.104
    26   6 C    3.995 --    25 C    1.020    54 H    0.985    56 H    0.978
                            55 H    0.973
    27   6 C    3.985 --    25 C    1.425    20 C    1.389    57 H    0.972
                            22 C    0.103
    28   6 C    3.923 --    19 C    1.306    32 N    1.230    29 C    1.177
    29   6 C    3.963 --    30 C    1.647    28 C    1.177    58 H    0.972
    30   6 C    3.960 --    29 C    1.647    31 C    1.174    59 H    0.975
    31   6 C    3.926 --     2 C    1.359    32 N    1.211    30 C    1.174
    32   7 N    3.376 --    28 C    1.230    31 C    1.211     1 Fe   0.662
    33   7 N    3.375 --    15 C    1.255    18 C    1.198     1 Fe   0.657
    34   6 C    3.988 --    41 C    1.397    35 C    1.396     8 C    1.026
                            38 C    0.103
    35   6 C    3.986 --    36 C    1.417    34 C    1.396    60 H    0.971
                            39 C    0.103
    36   6 C    3.988 --    35 C    1.417    38 C    1.415    37 C    1.020
                            41 C    0.104
    37   6 C    3.995 --    36 C    1.020    62 H    0.984    61 H    0.982
                            63 H    0.971
    38   6 C    3.988 --    39 C    1.415    36 C    1.415    64 H    0.972
                            34 C    0.103
    39   6 C    3.988 --    41 C    1.417    38 C    1.415    40 C    1.020
                            35 C    0.103
    40   6 C    3.995 --    39 C    1.020    67 H    0.983    66 H    0.982
                            65 H    0.971
    41   6 C    3.985 --    39 C    1.417    34 C    1.397    68 H    0.972
                            36 C    0.104
    42   1 H    1.001 --     2 C    0.971
    43   1 H    0.998 --     4 C    0.975
    44   1 H    1.005 --     5 C    0.972
    45   1 H    1.004 --    10 C    0.973
    46   1 H    1.005 --    11 C    0.968
    47   1 H    1.005 --    16 C    0.970
    48   1 H    1.004 --    17 C    0.973
    49   1 H    1.003 --    21 C    0.972
    50   1 H    1.004 --    23 C    0.985
    51   1 H    1.006 --    23 C    0.972
    52   1 H    1.004 --    23 C    0.980
    53   1 H    1.000 --    24 C    0.972
    54   1 H    1.003 --    26 C    0.985
    55   1 H    1.005 --    26 C    0.973
    56   1 H    1.005 --    26 C    0.978
    57   1 H    1.002 --    27 C    0.972
    58   1 H    1.005 --    29 C    0.972
    59   1 H    0.998 --    30 C    0.975
    60   1 H    1.003 --    35 C    0.971
    61   1 H    1.004 --    37 C    0.982
    62   1 H    1.004 --    37 C    0.984
    63   1 H    1.006 --    37 C    0.971
    64   1 H    1.000 --    38 C    0.972
    65   1 H    1.006 --    40 C    0.971
    66   1 H    1.004 --    40 C    0.982
    67   1 H    1.004 --    40 C    0.983
    68   1 H    1.002 --    41 C    0.972
    69  26 Fe   3.104 --   100 N    0.664    75 N    0.663    80 N    0.658
                           101 N    0.657
    70   6 C    3.918 --    71 C    1.364    99 C    1.362   110 H    0.970
    71   6 C    3.926 --    70 C    1.364    75 N    1.209    72 C    1.173
    72   6 C    3.959 --    73 C    1.650    71 C    1.173   111 H    0.975
    73   6 C    3.962 --    72 C    1.650    74 C    1.175   112 H    0.973
    74   6 C    3.920 --    76 C    1.313    75 N    1.226    73 C    1.175
    75   7 N    3.378 --    74 C    1.226    71 C    1.209    69 Fe   0.663
    76   6 C    3.921 --    77 C    1.337    74 C    1.313   102 C    1.022
    77   6 C    3.919 --    76 C    1.337    80 N    1.199    78 C    1.179
    78   6 C    3.958 --    79 C    1.640    77 C    1.179   113 H    0.973
    79   6 C    3.961 --    78 C    1.640    81 C    1.187   114 H    0.971
    80   7 N    3.377 --    81 C    1.246    77 C    1.199    69 Fe   0.658
    81   6 C    3.911 --    82 C    1.255    80 N    1.246    79 C    1.187
    82   6 C    3.920 --    83 C    1.257    81 C    1.255   140 C    1.188
    83   6 C    3.911 --    82 C    1.257   101 N    1.243    84 C    1.187
    84   6 C    3.961 --    85 C    1.639    83 C    1.187   115 H    0.972
    85   6 C    3.958 --    84 C    1.639    86 C    1.180   116 H    0.973
    86   6 C    3.919 --    87 C    1.333   101 N    1.202    85 C    1.180
    87   6 C    3.921 --    86 C    1.333    96 C    1.314    88 C    1.025
    88   6 C    3.988 --    89 C    1.404    95 C    1.389    87 C    1.025
                            92 C    0.102
    89   6 C    3.986 --    90 C    1.409    88 C    1.404   117 H    0.973
                            93 C    0.104
    90   6 C    3.988 --    92 C    1.425    89 C    1.409    91 C    1.020
                            95 C    0.103
    91   6 C    3.995 --    90 C    1.020   118 H    0.986   120 H    0.977
                           119 H    0.974
    92   6 C    3.988 --    90 C    1.425    93 C    1.406   121 H    0.972
                            88 C    0.102
    93   6 C    3.988 --    95 C    1.425    92 C    1.406    94 C    1.020
                            89 C    0.104
    94   6 C    3.995 --    93 C    1.020   122 H    0.985   124 H    0.979
                           123 H    0.972
    95   6 C    3.986 --    93 C    1.425    88 C    1.389   125 H    0.971
                            90 C    0.103
    96   6 C    3.921 --    87 C    1.314   100 N    1.224    97 C    1.175
    97   6 C    3.962 --    98 C    1.649    96 C    1.175   126 H    0.973
    98   6 C    3.959 --    97 C    1.649    99 C    1.174   127 H    0.975
    99   6 C    3.926 --    70 C    1.362   100 N    1.210    98 C    1.174
   100   7 N    3.377 --    96 C    1.224    99 C    1.210    69 Fe   0.664
   101   7 N    3.376 --    83 C    1.243    86 C    1.202    69 Fe   0.657
   102   6 C    3.988 --   103 C    1.399   109 C    1.396    76 C    1.022
                           106 C    0.103
   103   6 C    3.986 --   104 C    1.415   102 C    1.399   128 H    0.972
                           107 C    0.104
   104   6 C    3.988 --   106 C    1.417   103 C    1.415   105 C    1.020
                           109 C    0.103
   105   6 C    3.995 --   104 C    1.020   130 H    0.983   129 H    0.983
                           131 H    0.971
   106   6 C    3.989 --   104 C    1.417   107 C    1.414   132 H    0.972
                           102 C    0.103
   107   6 C    3.988 --   109 C    1.418   106 C    1.414   108 C    1.020
                           103 C    0.104
   108   6 C    3.996 --   107 C    1.020   135 H    0.984   134 H    0.981
                           133 H    0.971
   109   6 C    3.987 --   107 C    1.418   102 C    1.396   136 H    0.972
                           104 C    0.103
   110   1 H    1.001 --    70 C    0.970
   111   1 H    0.998 --    72 C    0.975
   112   1 H    1.005 --    73 C    0.973
   113   1 H    1.005 --    78 C    0.973
   114   1 H    1.004 --    79 C    0.971
   115   1 H    1.003 --    84 C    0.972
   116   1 H    1.005 --    85 C    0.973
   117   1 H    1.002 --    89 C    0.973
   118   1 H    1.004 --    91 C    0.986
   119   1 H    1.005 --    91 C    0.974
   120   1 H    1.005 --    91 C    0.977
   121   1 H    1.000 --    92 C    0.972
   122   1 H    1.004 --    94 C    0.985
   123   1 H    1.006 --    94 C    0.972
   124   1 H    1.005 --    94 C    0.979
   125   1 H    1.003 --    95 C    0.971
   126   1 H    1.005 --    97 C    0.973
   127   1 H    0.998 --    98 C    0.975
   128   1 H    1.002 --   103 C    0.972
   129   1 H    1.004 --   105 C    0.983
   130   1 H    1.004 --   105 C    0.983
   131   1 H    1.006 --   105 C    0.971
   132   1 H    1.000 --   106 C    0.972
   133   1 H    1.006 --   108 C    0.971
   134   1 H    1.005 --   108 C    0.981
   135   1 H    1.004 --   108 C    0.984
   136   1 H    1.002 --   109 C    0.972
   137   6 C    3.925 --   138 C    2.523    14 C    1.218
   138   6 C    3.919 --   137 C    2.523   142 C    1.217
   139   6 C    3.924 --   140 C    2.549   154 C    1.193
   140   6 C    3.915 --   139 C    2.549    82 C    1.188
   141  26 Fe   3.071 --   152 N    0.646   172 N    0.645   147 N    0.645
                           173 N    0.645
   142   6 C    3.902 --   143 C    1.246   171 C    1.233   138 C    1.217
   143   6 C    3.910 --   147 N    1.247   142 C    1.246   144 C    1.193
   144   6 C    3.960 --   145 C    1.630   143 C    1.193   182 H    0.967
   145   6 C    3.959 --   144 C    1.630   146 C    1.186   183 H    0.973
   146   6 C    3.916 --   148 C    1.317   147 N    1.208   145 C    1.186
   147   7 N    3.362 --   143 C    1.247   146 C    1.208   141 Fe   0.645
   148   6 C    3.910 --   149 C    1.322   146 C    1.317   174 C    1.031
   149   6 C    3.916 --   148 C    1.322   152 N    1.204   150 C    1.184
   150   6 C    3.959 --   151 C    1.631   149 C    1.184   184 H    0.972
   151   6 C    3.960 --   150 C    1.631   153 C    1.193   185 H    0.972
   152   7 N    3.364 --   153 C    1.251   149 C    1.204   141 Fe   0.646
   153   6 C    3.912 --   152 N    1.251   154 C    1.246   151 C    1.193
   154   6 C    3.902 --   155 C    1.256   153 C    1.246   139 C    1.193
   155   6 C    3.913 --   154 C    1.256   173 N    1.240   156 C    1.192
   156   6 C    3.960 --   157 C    1.630   155 C    1.192   186 H    0.971
   157   6 C    3.960 --   156 C    1.630   158 C    1.187   187 H    0.973
   158   6 C    3.915 --   159 C    1.308   173 N    1.215   157 C    1.187
   159   6 C    3.910 --   168 C    1.331   158 C    1.308   160 C    1.031
   160   6 C    3.988 --   161 C    1.398   167 C    1.389   159 C    1.031
                           164 C    0.102
   161   6 C    3.985 --   162 C    1.413   160 C    1.398   188 H    0.972
                           165 C    0.103
   162   6 C    3.988 --   164 C    1.420   161 C    1.413   163 C    1.020
                           167 C    0.102
   163   6 C    3.995 --   162 C    1.020   189 H    0.983   191 H    0.982
                           190 H    0.971
   164   6 C    3.987 --   162 C    1.420   165 C    1.409   192 H    0.972
                           160 C    0.102
   165   6 C    3.987 --   167 C    1.423   164 C    1.409   166 C    1.020
                           161 C    0.103
   166   6 C    3.995 --   165 C    1.020   193 H    0.985   194 H    0.979
                           195 H    0.972
   167   6 C    3.984 --   165 C    1.423   160 C    1.389   196 H    0.971
                           162 C    0.102
   168   6 C    3.918 --   159 C    1.331   172 N    1.196   169 C    1.183
   169   6 C    3.958 --   170 C    1.630   168 C    1.183   197 H    0.973
   170   6 C    3.959 --   169 C    1.630   171 C    1.194   198 H    0.970
   171   6 C    3.909 --   172 N    1.260   142 C    1.233   170 C    1.194
   172   7 N    3.362 --   171 C    1.260   168 C    1.196   141 Fe   0.645
   173   7 N    3.364 --   155 C    1.240   158 C    1.215   141 Fe   0.645
   174   6 C    3.987 --   175 C    1.394   181 C    1.393   148 C    1.031
                           178 C    0.102
   175   6 C    3.985 --   176 C    1.417   174 C    1.394   199 H    0.971
                           179 C    0.103
   176   6 C    3.988 --   175 C    1.417   178 C    1.415   177 C    1.020
                           181 C    0.103
   177   6 C    3.995 --   176 C    1.020   202 H    0.983   200 H    0.982
                           201 H    0.971
   178   6 C    3.987 --   176 C    1.415   179 C    1.414   203 H    0.972
                           174 C    0.102
   179   6 C    3.987 --   181 C    1.418   178 C    1.414   180 C    1.020
                           175 C    0.103
   180   6 C    3.995 --   179 C    1.020   205 H    0.983   204 H    0.982
                           206 H    0.971
   181   6 C    3.984 --   179 C    1.418   174 C    1.393   207 H    0.972
                           176 C    0.103
   182   1 H    1.006 --   144 C    0.967
   183   1 H    1.004 --   145 C    0.973
   184   1 H    1.005 --   150 C    0.972
   185   1 H    1.003 --   151 C    0.972
   186   1 H    1.004 --   156 C    0.971
   187   1 H    1.005 --   157 C    0.973
   188   1 H    1.003 --   161 C    0.972
   189   1 H    1.004 --   163 C    0.983
   190   1 H    1.006 --   163 C    0.971
   191   1 H    1.004 --   163 C    0.982
   192   1 H    1.000 --   164 C    0.972
   193   1 H    1.003 --   166 C    0.985
   194   1 H    1.005 --   166 C    0.979
   195   1 H    1.006 --   166 C    0.972
   196   1 H    1.003 --   167 C    0.971
   197   1 H    1.005 --   169 C    0.973
   198   1 H    1.005 --   170 C    0.970
   199   1 H    1.003 --   175 C    0.971
   200   1 H    1.004 --   177 C    0.982
   201   1 H    1.006 --   177 C    0.971
   202   1 H    1.004 --   177 C    0.983
   203   1 H    1.000 --   178 C    0.972
   204   1 H    1.004 --   180 C    0.982
   205   1 H    1.004 --   180 C    0.983
   206   1 H    1.006 --   180 C    0.971
   207   1 H    1.003 --   181 C    0.972
 ---------------------------------------------------------------------------

           -------------------------------------------------
          | TOTAL ENERGY             -327.247243927499 Eh   |
          | GRADIENT NORM               0.000281737878 Eh/α |
          | HOMO-LUMO GAP               0.046010238985 eV   |
           -------------------------------------------------

 * finished run on 2022/07/29 at 17:28:23.854
