   * xtb version 6.5.1 (b24c23e) compiled by 'conda@728c89f4b128' on 2022-07-12
          program call               : xtb Ni_PhNH2_C6_2.xyz --gfn 1 --opt -T 48

   ID    Z sym.   atoms
    1   28 Ni     1, 61
    2    6 C      2-6, 8-12, 14-18, 20-25, 27-31, 33-38, 62-66, 68-72, 74-78,
                  80-85, 87-91, 93-98, 121-126
    3    7 N      7, 13, 19, 26, 32, 39, 67, 73, 79, 86, 92, 99
    4    1 H      40-60, 100-120
########################################################################
[WARNING] Please study the warnings concerning your input carefully
-1- prog_main_parseArguments: Unknown option '-T' provided
########################################################################

          :  Hamiltonian                  GFN1-xTB          :
 * total energy  :  -216.9404834 Eh     change       -0.2600018E-09 Eh
 * total energy  :  -217.0641192 Eh     change       -0.1236358E+00 Eh
 * total energy  :  -217.1171308 Eh     change       -0.5301156E-01 Eh
 * total energy  :  -217.1312312 Eh     change       -0.1410040E-01 Eh
 * total energy  :  -217.1381786 Eh     change       -0.6947409E-02 Eh
 * total energy  :  -217.1418429 Eh     change       -0.3664335E-02 Eh
 * total energy  :  -217.1434583 Eh     change       -0.1615411E-02 Eh
 * total energy  :  -217.1443569 Eh     change       -0.8986051E-03 Eh
 * total energy  :  -217.1449342 Eh     change       -0.5773106E-03 Eh
 * total energy  :  -217.1459932 Eh     change       -0.1058969E-02 Eh
 * total energy  :  -217.1515217 Eh     change       -0.1855681E-04 Eh
 * total energy  :  -217.1515367 Eh     change       -0.1491837E-04 Eh
 * total energy  :  -217.1515459 Eh     change       -0.9185601E-05 Eh
 * total energy  :  -217.1515584 Eh     change       -0.1257017E-04 Eh
 * total energy  :  -217.1515721 Eh     change       -0.1367408E-04 Eh
 * total energy  :  -217.1515823 Eh     change       -0.1022576E-04 Eh
 * total energy  :  -217.1515901 Eh     change       -0.7816657E-05 Eh
 * total energy  :  -217.1515967 Eh     change       -0.6596352E-05 Eh
 * total energy  :  -217.1516016 Eh     change       -0.4847772E-05 Eh
   *** GEOMETRY OPTIMIZATION CONVERGED AFTER 39 ITERATIONS ***

 final structure:
================
126
 xtb: 6.5.1 (b24c23e)
Ni          14.10920138508901        0.03312398928526       -0.00649290693614
C           10.72106588501030        0.12380463774192        0.10461009067559
C           11.37586306551370        1.14228170415336       -0.55665183507576
C           10.70550424472428        2.21020888346165       -1.23227266196043
C           11.66674178910313        3.06176201869025       -1.66188631370375
C           12.92318146732483        2.52030319296322       -1.23460691135303
N           12.73661173344878        1.32011210479691       -0.59549482290866
C           14.14269870045439        3.16745540530152       -1.39591490512112
C           14.15862404691789        4.52486134977433       -1.98764738308215
C           14.86776100708306        4.78255341450538       -3.16335586379362
C           14.88594334686441        6.05029791159049       -3.71705730510562
C           14.20450190516282        7.09819519761628       -3.09240378021192
N           14.19042707881090        8.35908975075152       -3.66196456360656
C           13.48882278687992        6.84737991087981       -1.91871760177362
C           13.46680490640539        5.57425923594854       -1.37780008747499
C           15.34745554578322        2.59125067011134       -1.01313935604096
C           16.61198909539327        3.25548212601919       -1.10257218887961
C           17.55558980961083        2.35334938526444       -0.73900102119349
N           15.51306178026962        1.30464334883097       -0.55111403891720
C           16.86517466625497        1.14562037499460       -0.41805525073632
C           17.51796762841969       -0.04713551867778       -0.09323060650604
C           16.82799327293996       -1.21047706361807        0.25958983189329
C           17.47630608106028       -2.45090428801688        0.54073482541170
C           16.51030974818293       -3.31135628905236        0.94475876045735
C           15.27533116792999       -2.58838452317580        0.92155095753402
N           15.47798081668297       -1.30773887890333        0.45761526918673
C           14.06638760235981       -3.10784067757328        1.36720056731411
C           14.04701886151206       -4.46765372529704        1.95369294402425
C           14.80197797535912       -4.76421143832224        3.09101571544021
C           14.78526477534168       -6.03313474758239        3.64211717588513
C           14.02117430828559       -7.04358810321407        3.05259274804853
N           13.97405537902786       -8.30444816210800        3.62119580235272
C           13.25895126302373       -6.75341574947400        1.91798294813909
C           13.27253489597437       -5.47887171460503        1.37994903982602
C           12.87411509884535       -2.39830995616524        1.28276028634744
C           11.62073324651939       -2.87661414556804        1.78746265888446
C           10.68131182159077       -1.96906639503716        1.43045648254766
C           11.36262579353694       -0.93212138075728        0.71839441998782
N           12.71125353820437       -1.18363555738989        0.66503121031616
H            9.63826934155984        0.15356266219219        0.14183748089950
H            9.63622773862517        2.28081188606109       -1.35398257825443
H           11.54852770795333        3.97482964553707       -2.22244994152786
H           15.39345974706383        3.97282185805210       -3.65760860323471
H           15.43079624857709        6.23583695305688       -4.63633682998474
H           14.95764668417896        8.55510806485908       -4.28467165509826
H           13.97685055202966        9.11191596352915       -3.02763165919148
H           12.95468848552835        7.65596567995160       -1.43162760210168
H           12.92395923303425        5.39115208249424       -0.45686748244278
H           16.75025878057168        4.28230822214865       -1.39938499709124
H           18.62496678710196        2.47998506688486       -0.68745048325962
H           18.53501203417903       -2.62598737063641        0.43644985945212
H           16.61472608008276       -4.34559106328492        1.22956417038269
H           15.39183851374835       -3.98321056868185        3.55823729539065
H           15.36623950604676       -6.24852929923391        4.53223328320425
H           14.76301484299131       -8.53945883745838        4.20205467139484
H           13.69399509371494       -9.04340470020036        2.99621733813014
H           12.66042491365990       -7.53263218735410        1.45877615560298
H           12.69190910573487       -5.26556398031014        0.48907623014100
H           11.48997046925627       -3.78869689907448        2.34686208692487
H            9.62022197123806       -1.98313233177851        1.62289688643990
Ni          30.10007396451658       -0.02391880789230        0.02479360291049
C           33.48819651683392        0.01818947224881        0.16146550720977
C           32.83333086600941       -1.09582810946545        0.64462096641637
C           33.50358294415576       -2.24927744097946        1.16097957053834
C           32.54228079554638       -3.07789725517462        1.63318134451810
C           31.28591455811943       -2.42231749423826        1.41837159948248
N           31.47257162081324       -1.22631789430117        0.77147056000575
C           30.06643893041935       -2.91404483432388        1.86906276235938
C           30.05049779231490       -4.15729425883253        2.67344090121515
C           29.34095672030459       -5.27943692959585        2.23880738431431
C           29.32270978426731       -6.44141380981051        2.98952672890200
C           30.00444349886110       -6.49989348504234        4.20790162433471
N           30.01837510041996       -7.67126128165631        4.94429988715427
C           30.72058976867547       -5.38326925825363        4.64710190442150
C           30.74270429336122       -4.22899135765791        3.88482452306056
C           28.86177151607895       -2.27620810769113        1.60092750093783
C           27.59731856804196       -2.71723845874210        2.10579467521275
C           26.65375532743203       -1.91539919424830        1.55517826026894
N           28.69617549642148       -1.18026901420817        0.78379438424425
C           27.34409373821346       -0.98126513499060        0.72505654770592
C           26.69134186261397       -0.05188163767522       -0.09009513178449
C           27.38138377536965        0.88459563286885       -0.86519243320000
C           26.73309116636032        1.80418433666134       -1.74389198713483
C           27.69918035078246        2.61590226055722       -2.23839680844214
C           28.93412665415503        2.19732567568147       -1.64839348620039
N           28.73139767658833        1.10341266530344       -0.83682813858680
C           30.14306311839112        2.85582301496406       -1.83513199965301
C           30.16231390319026        4.09607482580339       -2.64431949706526
C           29.40658840181333        5.20741019133544       -2.26319399313604
C           29.42309534186841        6.36808752359811       -3.01598512874331
C           30.18780596719773        6.43575922588801       -4.18347401107265
N           30.23471394279085        7.60657087053991       -4.91988017064437
C           30.95082608648885        5.33024432540538       -4.56840281316252
C           30.93740270885071        4.17732735291952       -3.80372001107780
C           31.33529717413698        2.39358571263528       -1.29014453404262
C           32.58865205910187        3.07861837866247       -1.40969831205077
C           33.52800762466423        2.27973004481862       -0.85022532737336
C           32.84668541367524        1.11326323229268       -0.37945733307173
N           31.49810264278093        1.20767658046706       -0.61884202655791
H           34.57098689940030        0.03277576902191        0.20698297964264
H           34.57283940410601       -2.38987372376273        1.15242057410366
H           32.66040380653296       -4.04978565812746        2.08414604395177
H           28.81492061913348       -5.24381338393539        1.29099622829929
H           28.77750142564325       -7.31000034711433        2.63640801496970
H           29.25063583546773       -8.29811985462931        4.76403311751793
H           30.23196832864052       -7.55816005923737        5.92223832392035
H           31.25505760485592       -5.42421801412565        5.58999527722453
H           31.28594496985511       -3.36039261353760        4.24084920738683
H           27.45909477799853       -3.53187772206053        2.79778354903197
H           25.58443374718246       -1.94196706467377        1.68974341712286
H           25.67437248979811        1.81404302205674       -1.94737166408993
H           27.59482668367946        3.42428849766899       -2.94357741462092
H           28.81627594582090        5.16474439692560       -1.35439966813609
H           28.84149209102686        7.22860646496522       -2.70376882356135
H           29.44530941729571        8.22007581027371       -4.79509189664238
H           30.51536946835072        7.49433351744263       -5.88098620705226
H           31.54984849625478        5.37863051581591       -5.47124145978213
H           31.51863160091000        3.31732540190872       -4.11812714521897
H           32.71946879817607        4.04879716016010       -1.86087998887430
H           34.58905804268593        2.44800668367040       -0.75537573051668
C           22.71858487865022       -0.07916138995695       -0.15678234197481
C           21.49072201424953       -0.08734746923237       -0.15307992805615
C           20.14560747010739       -0.08419531599538       -0.14144310744573
C           18.92235330708742       -0.07375980024076       -0.12130752974419
C           24.06369099164533       -0.07122795219127       -0.14653304503367
C           25.28691785606421       -0.05927857389360       -0.12655583030828

          :  Hamiltonian                  GFN1-xTB          :
         :: total energy            -217.151601588963 Eh    ::
         :: gradient norm              0.000486958558 Eh/a0 ::
         :: HOMO-LUMO gap              1.177340664836 eV    ::
         :: SCC energy              -220.636685969600 Eh    ::
         :: repulsion energy           3.595557681346 Eh    ::

    * Orbital Energies and Occupations

         #    Occupation            Energy/Eh            Energy/eV
      -------------------------------------------------------------
         1        2.0000           -0.7790584             -21.1993
       ...           ...                  ...                  ...
       189        2.0000           -0.3968033             -10.7976
       190        2.0000           -0.3905635             -10.6278
       191        2.0000           -0.3905595             -10.6277
       192        2.0000           -0.3903310             -10.6214
       193        2.0000           -0.3903301             -10.6214
       194        2.0000           -0.3893357             -10.5944
       195        2.0000           -0.3893347             -10.5943
       196        2.0000           -0.3882517             -10.5649
       197        2.0000           -0.3882500             -10.5648
       198        2.0000           -0.3882054             -10.5636
       199        2.0000           -0.3882042             -10.5636
       200        2.0000           -0.3828367             -10.4175
       201        2.0000           -0.3752906             -10.2122 (HOMO)
       202                         -0.3320242              -9.0348 (LUMO)
       203                         -0.3214417              -8.7469
       204                         -0.3208544              -8.7309
       205                         -0.3208535              -8.7309
       206                         -0.3199781              -8.7070
       207                         -0.3199269              -8.7057
       208                         -0.2926735              -7.9641
       209                         -0.2862327              -7.7888
       210                         -0.2763476              -7.5198
       211                         -0.2574146              -7.0046
       212                         -0.2572644              -7.0005
       ...                                ...                  ...
       430                          1.5862730              43.1647
      -------------------------------------------------------------
                  HL-Gap            0.0432665 Eh            1.1773 eV

Wiberg/Mayer (AO) data.
largest (>0.10) Wiberg bond orders for each atom

     #   Z sym  total        # sym  WBO       # sym  WBO       # sym  WBO
 ---------------------------------------------------------------------------
     1  28 Ni   3.018 --    39 N    0.665     7 N    0.665    19 N    0.662
                            26 N    0.662
     2   6 C    3.932 --    38 C    1.363     3 C    1.363    40 H    0.970
     3   6 C    3.925 --     2 C    1.363     7 N    1.212     4 C    1.178
     4   6 C    3.959 --     5 C    1.645     3 C    1.178    41 H    0.975
     5   6 C    3.963 --     4 C    1.645     6 C    1.179    42 H    0.973
     6   6 C    3.918 --     8 C    1.319     7 N    1.222     5 C    1.179
     7   7 N    3.401 --     6 C    1.222     3 C    1.212     1 Ni   0.665
     8   6 C    3.939 --    16 C    1.326     6 C    1.319     9 C    1.032
     9   6 C    3.988 --    10 C    1.381    15 C    1.381     8 C    1.032
    10   6 C    3.988 --    11 C    1.469     9 C    1.381    43 H    0.973
    11   6 C    3.990 --    10 C    1.469    12 C    1.354    44 H    0.972
    12   6 C    3.952 --    11 C    1.354    14 C    1.354    13 N    1.117
    13   7 N    3.135 --    12 C    1.117    46 H    0.933    45 H    0.933
    14   6 C    3.989 --    15 C    1.469    12 C    1.354    47 H    0.972
    15   6 C    3.988 --    14 C    1.469     9 C    1.381    48 H    0.973
    16   6 C    3.914 --     8 C    1.326    19 N    1.205    17 C    1.186
    17   6 C    3.959 --    18 C    1.633    16 C    1.186    49 H    0.973
    18   6 C    3.961 --    17 C    1.633    20 C    1.194    50 H    0.973
    19   7 N    3.405 --    20 C    1.238    16 C    1.205     1 Ni   0.662
    20   6 C    3.905 --    21 C    1.262    19 N    1.238    18 C    1.194
    21   6 C    3.942 --    22 C    1.262    20 C    1.262   124 C    1.185
    22   6 C    3.905 --    21 C    1.262    26 N    1.238    23 C    1.194
    23   6 C    3.961 --    24 C    1.632    22 C    1.194    51 H    0.973
    24   6 C    3.959 --    23 C    1.632    25 C    1.186    52 H    0.973
    25   6 C    3.914 --    27 C    1.326    26 N    1.205    24 C    1.186
    26   7 N    3.405 --    22 C    1.238    25 C    1.205     1 Ni   0.662
    27   6 C    3.939 --    25 C    1.326    35 C    1.319    28 C    1.032
    28   6 C    3.988 --    34 C    1.381    29 C    1.381    27 C    1.032
    29   6 C    3.988 --    30 C    1.469    28 C    1.381    53 H    0.973
    30   6 C    3.990 --    29 C    1.469    31 C    1.354    54 H    0.972
    31   6 C    3.952 --    30 C    1.354    33 C    1.354    32 N    1.116
    32   7 N    3.135 --    31 C    1.116    55 H    0.933    56 H    0.933
    33   6 C    3.990 --    34 C    1.469    31 C    1.354    57 H    0.972
    34   6 C    3.988 --    33 C    1.469    28 C    1.381    58 H    0.973
    35   6 C    3.918 --    27 C    1.319    39 N    1.222    36 C    1.179
    36   6 C    3.963 --    37 C    1.645    35 C    1.179    59 H    0.973
    37   6 C    3.959 --    36 C    1.645    38 C    1.177    60 H    0.975
    38   6 C    3.925 --     2 C    1.363    39 N    1.212    37 C    1.177
    39   7 N    3.401 --    35 C    1.222    38 C    1.212     1 Ni   0.665
    40   1 H    1.001 --     2 C    0.970
    41   1 H    0.998 --     4 C    0.975
    42   1 H    1.005 --     5 C    0.973
    43   1 H    1.005 --    10 C    0.973
    44   1 H    0.999 --    11 C    0.972
    45   1 H    0.960 --    13 N    0.933
    46   1 H    0.960 --    13 N    0.933
    47   1 H    0.999 --    14 C    0.972
    48   1 H    1.005 --    15 C    0.973
    49   1 H    1.005 --    17 C    0.973
    50   1 H    1.002 --    18 C    0.973
    51   1 H    1.002 --    23 C    0.973
    52   1 H    1.005 --    24 C    0.973
    53   1 H    1.005 --    29 C    0.973
    54   1 H    0.999 --    30 C    0.972
    55   1 H    0.961 --    32 N    0.933
    56   1 H    0.961 --    32 N    0.933
    57   1 H    0.999 --    33 C    0.972
    58   1 H    1.005 --    34 C    0.973
    59   1 H    1.005 --    36 C    0.973
    60   1 H    0.998 --    37 C    0.975
    61  28 Ni   3.018 --    99 N    0.665    67 N    0.665    79 N    0.662
                            86 N    0.662
    62   6 C    3.932 --    98 C    1.363    63 C    1.363   100 H    0.970
    63   6 C    3.925 --    62 C    1.363    67 N    1.212    64 C    1.178
    64   6 C    3.959 --    65 C    1.645    63 C    1.178   101 H    0.975
    65   6 C    3.963 --    64 C    1.645    66 C    1.179   102 H    0.973
    66   6 C    3.918 --    68 C    1.319    67 N    1.222    65 C    1.179
    67   7 N    3.401 --    66 C    1.222    63 C    1.212    61 Ni   0.665
    68   6 C    3.939 --    76 C    1.326    66 C    1.319    69 C    1.032
    69   6 C    3.988 --    70 C    1.381    75 C    1.381    68 C    1.032
    70   6 C    3.988 --    71 C    1.469    69 C    1.381   103 H    0.973
    71   6 C    3.990 --    70 C    1.469    72 C    1.354   104 H    0.972
    72   6 C    3.952 --    71 C    1.354    74 C    1.354    73 N    1.116
    73   7 N    3.135 --    72 C    1.116   106 H    0.933   105 H    0.933
    74   6 C    3.989 --    75 C    1.469    72 C    1.354   107 H    0.972
    75   6 C    3.988 --    74 C    1.469    69 C    1.381   108 H    0.973
    76   6 C    3.914 --    68 C    1.326    79 N    1.205    77 C    1.186
    77   6 C    3.959 --    78 C    1.633    76 C    1.186   109 H    0.973
    78   6 C    3.961 --    77 C    1.633    80 C    1.194   110 H    0.973
    79   7 N    3.405 --    80 C    1.238    76 C    1.205    61 Ni   0.662
    80   6 C    3.905 --    81 C    1.262    79 N    1.238    78 C    1.194
    81   6 C    3.942 --    82 C    1.262    80 C    1.262   126 C    1.185
    82   6 C    3.905 --    81 C    1.262    86 N    1.238    83 C    1.194
    83   6 C    3.961 --    84 C    1.632    82 C    1.194   111 H    0.973
    84   6 C    3.959 --    83 C    1.632    85 C    1.186   112 H    0.973
    85   6 C    3.914 --    87 C    1.326    86 N    1.205    84 C    1.186
    86   7 N    3.405 --    82 C    1.238    85 C    1.205    61 Ni   0.662
    87   6 C    3.939 --    85 C    1.326    95 C    1.319    88 C    1.032
    88   6 C    3.988 --    94 C    1.381    89 C    1.381    87 C    1.032
    89   6 C    3.988 --    90 C    1.469    88 C    1.381   113 H    0.973
    90   6 C    3.990 --    89 C    1.469    91 C    1.354   114 H    0.972
    91   6 C    3.952 --    90 C    1.354    93 C    1.354    92 N    1.116
    92   7 N    3.135 --    91 C    1.116   115 H    0.933   116 H    0.933
    93   6 C    3.990 --    94 C    1.469    91 C    1.354   117 H    0.972
    94   6 C    3.988 --    93 C    1.469    88 C    1.381   118 H    0.973
    95   6 C    3.918 --    87 C    1.319    99 N    1.222    96 C    1.179
    96   6 C    3.963 --    97 C    1.645    95 C    1.179   119 H    0.973
    97   6 C    3.959 --    96 C    1.645    98 C    1.177   120 H    0.975
    98   6 C    3.925 --    62 C    1.363    99 N    1.212    97 C    1.177
    99   7 N    3.401 --    95 C    1.222    98 C    1.212    61 Ni   0.665
   100   1 H    1.001 --    62 C    0.970
   101   1 H    0.998 --    64 C    0.975
   102   1 H    1.005 --    65 C    0.973
   103   1 H    1.005 --    70 C    0.973
   104   1 H    0.999 --    71 C    0.972
   105   1 H    0.960 --    73 N    0.933
   106   1 H    0.960 --    73 N    0.933
   107   1 H    0.999 --    74 C    0.972
   108   1 H    1.005 --    75 C    0.973
   109   1 H    1.005 --    77 C    0.973
   110   1 H    1.002 --    78 C    0.973
   111   1 H    1.002 --    83 C    0.973
   112   1 H    1.005 --    84 C    0.973
   113   1 H    1.005 --    89 C    0.973
   114   1 H    0.999 --    90 C    0.972
   115   1 H    0.961 --    92 N    0.933
   116   1 H    0.961 --    92 N    0.933
   117   1 H    0.999 --    93 C    0.972
   118   1 H    1.005 --    94 C    0.973
   119   1 H    1.005 --    96 C    0.973
   120   1 H    0.998 --    97 C    0.975
   121   6 C    3.927 --   122 C    2.375   125 C    1.330   124 C    0.191
   122   6 C    3.927 --   121 C    2.375   123 C    1.330   126 C    0.191
   123   6 C    3.937 --   124 C    2.456   122 C    1.330
   124   6 C    3.891 --   123 C    2.456    21 C    1.185   121 C    0.191
   125   6 C    3.937 --   126 C    2.456   121 C    1.330
   126   6 C    3.891 --   125 C    2.456    81 C    1.185   122 C    0.191
 ---------------------------------------------------------------------------

           -------------------------------------------------
          | TOTAL ENERGY             -217.151601588963 Eh   |
          | GRADIENT NORM               0.000486958558 Eh/α |
          | HOMO-LUMO GAP               1.177340664836 eV   |
           -------------------------------------------------

 * finished run on 2022/07/30 at 04:20:08.772
