   * xtb version 6.5.1 (b24c23e) compiled by 'conda@728c89f4b128' on 2022-07-12
          program call               : xtb Cu_Ph2OMe_C8_2.xyz --gfn 1 --opt -T 48

   ID    Z sym.   atoms
    1   29 Cu     1, 73
    2    6 C      2-6, 8-11, 13-21, 23-27, 29-33, 36, 37, 39-43, 45, 74-78,
                  80-83, 85-93, 95-99, 101-105, 108, 109, 111-115, 117,
                  145-152
    3    7 N      7, 12, 34, 35, 79, 84, 106, 107
    4    8 O      22, 28, 38, 44, 94, 100, 110, 116
    5    1 H      46-72, 118-144
########################################################################
[WARNING] Please study the warnings concerning your input carefully
-1- prog_main_parseArguments: Unknown option '-T' provided
########################################################################

          :  Hamiltonian                  GFN1-xTB          :
 * total energy  :  -269.5378917 Eh     change        0.3155378E-09 Eh
 * total energy  :  -270.0283598 Eh     change       -0.4904681E+00 Eh
 * total energy  :  -270.1351153 Eh     change       -0.1067555E+00 Eh
 * total energy  :  -270.1795943 Eh     change       -0.4447907E-01 Eh
 * total energy  :  -270.1965011 Eh     change       -0.1690681E-01 Eh
 * total energy  :  -270.2065718 Eh     change       -0.1007064E-01 Eh
 * total energy  :  -270.2122498 Eh     change       -0.5678049E-02 Eh
 * total energy  :  -270.2166401 Eh     change       -0.4390240E-02 Eh
 * total energy  :  -270.2193676 Eh     change       -0.2727549E-02 Eh
 * total energy  :  -270.2218946 Eh     change       -0.2526977E-02 Eh
 * total energy  :  -270.2299789 Eh     change       -0.1898627E-04 Eh
 * total energy  :  -270.2300015 Eh     change       -0.2262912E-04 Eh
 * total energy  :  -270.2300216 Eh     change       -0.2008902E-04 Eh
 * total energy  :  -270.2300380 Eh     change       -0.1639910E-04 Eh
 * total energy  :  -270.2300497 Eh     change       -0.1170450E-04 Eh
 * total energy  :  -270.2300571 Eh     change       -0.7386292E-05 Eh
 * total energy  :  -270.2300631 Eh     change       -0.5990654E-05 Eh
 * total energy  :  -270.2300603 Eh     change        0.2792790E-05 Eh
 * total energy  :  -270.2300648 Eh     change       -0.4501696E-05 Eh
   *** GEOMETRY OPTIMIZATION CONVERGED AFTER 69 ITERATIONS ***

 final structure:
================
152
 xtb: 6.5.1 (b24c23e)
Cu          11.89238214360403        0.04994685122133        0.01378848114059
C            8.49518259517044        0.26826643138332       -0.16642457809254
C            9.12785154493100        1.10627187761794        0.74012708810016
C            8.45449238226785        2.03003781780536        1.60869333851956
C            9.41092063968245        2.64852675882455        2.34481732519236
C           10.67779454163284        2.11343391658697        1.92735335301341
N           10.47454009827848        1.17912095055571        0.95335764598632
C           11.91651919639381        2.48186621012544        2.45384779193296
C           13.14519481127517        1.95129199268397        2.06427044093537
C           14.41881118272771        2.36847263349836        2.57810871680415
C           15.36609136069078        1.64117810751154        1.93390025292871
N           13.33727011970553        0.97923898189558        1.11802356350370
C           14.67833734555394        0.77563682742778        1.02223614767621
C           15.31494338585313       -0.13925602195289        0.16443273690879
C           14.65768157896294       -0.99492875244768       -0.73794195830338
C           15.32213210402424       -1.94715649251177       -1.57784112930610
C           14.35956477027643       -2.58025034193192       -2.29474950495097
C           13.10041458389707       -2.01440174265775       -1.90148911465507
C           11.86031706714274       -2.40158020858456       -2.40644107117279
C           11.84893741475870       -3.46105608734490       -3.45587748817294
C           12.31775170350050       -3.18304868806911       -4.74649322324869
O           12.75379049947748       -1.91298352449352       -4.95832503117322
C           13.26483127177008       -1.53268419132382       -6.21977929752822
C           12.31048121226836       -4.17367914824001       -5.72797116904445
C           11.83905157668209       -5.43915701237272       -5.41284620464443
C           11.37179743042538       -5.73785118396369       -4.14186158189942
C           11.37442565166538       -4.74569673628127       -3.16175489749862
O           10.94380357878470       -4.94201463062808       -1.88706831836962
C           10.46497028445989       -6.20814593363573       -1.48137871730023
C           10.63060098773659       -1.87222244501948       -2.01295009330953
C            9.35675570389303       -2.24648081313238       -2.56324326141682
C            8.41601314143200       -1.49622274489989       -1.93769432951554
C            9.10706817474445       -0.65424876523399       -1.00240033609720
N           10.44784910415650       -0.90382304399106       -1.06869610472302
N           13.31563769944846       -1.05376038323366       -0.94845510383551
C           11.92839335996849        3.52847953878902        3.51603857393681
C           12.23163816786231        3.18809837886110        4.84073756246713
O           12.49189515255233        1.87377278020477        5.07086606615214
C           12.83172402998790        1.42803347012733        6.36808946995403
C           12.24345654295949        4.16591783911363        5.83498030445104
C           11.95759291039958        5.48055911275048        5.49890798700130
C           11.65767994192028        5.84143233389542        4.19402874355773
C           11.64064227119584        4.86265994969715        3.20078009628488
O           11.36570083393871        5.11757412966188        1.89381334374193
C           11.07623306769687        6.43344995568004        1.46733034002308
H            7.41376772039771        0.33954088550611       -0.22554854933560
H            7.38552501009972        2.17220419423693        1.64362148892583
H            9.28027893785595        3.40108817521205        3.10596065650239
H           14.56275957487138        3.12576088987075        3.33182363617417
H           16.43690549475783        1.68062108380251        2.05573120573571
H           16.38849533199457       -2.10626110156671       -1.60365900194910
H           14.48364997389227       -3.36386051712291       -3.02486616426430
H           12.50507792747416       -1.62410569755670       -7.00557782028040
H           13.55834631603133       -0.48552456957829       -6.12542350972825
H           14.14328833335047       -2.12941178590639       -6.49386306916738
H           12.66685690840651       -3.96845708133128       -6.72854212820905
H           11.83574417088185       -6.21037102703388       -6.17533401407872
H           11.01158381849804       -6.73442068457843       -3.92415368597353
H           10.19049749596478       -6.10660414217400       -0.42971020823705
H            9.58023772557891       -6.50696305908489       -2.05679242663407
H           11.23814400260708       -6.98006059965110       -1.57870692254510
H            9.21160104169007       -2.98836336816614       -3.33223089832922
H            7.34764500650042       -1.49861172882549       -2.08859260682023
H           13.00940014566164        0.35422373728289        6.28350515941910
H           12.01567138714588        1.60279872141047        7.07990013095158
H           13.74306674367956        1.91597658076279        6.73461220624633
H           12.47187153149206        3.91295105394503        6.86163233918121
H           11.96907540550932        6.24141362273815        6.27164501509433
H           11.44103375117588        6.87525030090001        3.96053256158312
H           11.91875650024192        7.11076714225155        1.65348157110963
H           10.89693085393882        6.37190067934698        0.39233114334564
H           10.17873248403796        6.82757843486045        1.95967810863072
Cu          30.47465146543225       -0.00840095128077       -0.05319983829717
C           33.87235491633178        0.19840978857669       -0.23903281678488
C           33.24031963691219       -0.57751082134705       -1.19968468737058
C           33.91425831778599       -1.30377572255842       -2.23871392294651
C           32.95823887752666       -1.94299938578674       -2.95746098585918
C           31.69116144234174       -1.60776061786272       -2.36786583875027
N           31.89371827689963       -0.77802190140394       -1.30323735458246
C           30.45294137098757       -2.07756751007470       -2.80742212259505
C           29.22401879652259       -1.76910565489872       -2.22662172327990
C           27.95110508839204       -2.22116402473032       -2.71191244980832
C           27.00309552788097       -1.68745362642905       -1.90093605712467
N           29.03086624249123       -0.96985691433745       -1.13074512265572
C           27.68974253893628       -0.90601485345153       -0.91547535600927
C           27.05197172287646       -0.18608517660343        0.11074985377408
C           27.70799842156681        0.58810773666608        1.08475440231803
C           27.04245419672280        1.28686750884770        2.14421863212853
C           28.00436817622426        1.90725594348441        2.87305101113152
C           29.26424002759509        1.59638748285589        2.25958368349966
C           30.50415347577205        2.03955023021638        2.71668207536907
C           30.51560225970693        2.92787405495063        3.91453533479059
C           30.05275835055317        4.24690149744708        3.82176754851379
O           29.61954548150694        4.63858283253450        2.59417758675804
C           29.11579478394952        5.94395683352915        2.39589522895884
C           30.06277469406879        5.07803627273844        4.94153010979042
C           30.53082673594816        4.58465033193121        6.15002401504207
C           30.99158701339860        3.28189743086527        6.26619266074645
C           30.98620495183129        2.45234391828581        5.14515481429858
O           31.41070568021193        1.16068805326865        5.15919490593440
C           31.88544974702395        0.57719426722806        6.35544838192624
C           31.73458107182697        1.72301836969881        2.13944506716360
C           33.00834933505963        2.21203614548647        2.59111720400003
C           33.94998177437700        1.69817039520142        1.76139520169222
C           33.25958403982958        0.89402048650354        0.79292951296913
N           31.91832642812242        0.92624897813125        1.04666657194295
N           29.05000848568615        0.78811237535833        1.17410162948862
C           30.44099137372388       -2.98016238153800       -3.99448195204076
C           30.14472615162660       -4.34113979715673       -3.84425556502224
O           29.89345742014327       -4.75674268773549       -2.57452354433326
C           29.56308899528400       -6.10607664654269       -2.31541191780872
C           30.13019413146969       -5.18619346554494       -4.95350225199144
C           30.40646466903690       -4.66508889630293       -6.20853001463892
C           30.69993210532117       -3.32087592617195       -6.38167639858588
C           30.71975723302529       -2.47693612591024       -5.27159845875552
O           30.98898875713806       -1.14587935998770       -5.33920572605828
C           31.26605894534039       -0.53469466554718       -6.58294501551399
H           34.95392318711017        0.26608294283871       -0.29941868105530
H           34.98328192668157       -1.31762014495221       -2.38396708094423
H           33.08913708355175       -2.58743740693059       -3.81206762295872
H           27.80807090635853       -2.86090359939847       -3.56782304804081
H           25.93246938148987       -1.80433921363682       -1.95707750768804
H           25.97585230118198        1.29069099226318        2.30374281727496
H           27.87948077805166        2.52038886881477        3.75109886561724
H           29.87971565043807        6.70467691226662        2.59789712412826
H           28.82302608177445        6.00030425222126        1.34579492185739
H           28.23813151882566        6.13580714731788        3.02501252965717
H           29.71136499565375        6.09929660673073        4.87980074971255
H           30.53666187712992        5.23029158750393        7.02138415247539
H           31.34925835135884        2.92350874486152        7.22218778992816
H           32.15478811618242       -0.45087895902497        6.10612404632737
H           32.77254923497352        1.09986692855385        6.73357435399134
H           31.11154766961617        0.56814719249339        7.13266160510940
H           33.15289698872534        2.86706441639968        3.43541703814868
H           35.01856556541128        1.84517145008366        1.78772956726482
H           29.39308740198722       -6.17593890187497       -1.23929248851754
H           30.38117703671615       -6.78115421886475       -2.59507162730580
H           28.64980819006658       -6.40476911962616       -2.84431347868769
H           29.90671713131684       -6.23934980905532       -4.84796844297718
H           30.39230662148127       -5.32160098808403       -7.07162636459565
H           30.90914488770437       -2.94169526183995       -7.37295749756219
H           30.41862254719445       -0.62633611588957       -7.27341210780603
H           31.44198930395105        0.52137934020450       -6.37001744161046
H           32.16206920070945       -0.96147101965586       -7.05018433275443
C           16.71809052063090       -0.19902809319201        0.20685272509723
C           17.94179561011513       -0.23862469438843        0.23094520418537
C           19.28400790670550       -0.27354129901105        0.24130417180831
C           20.51460414000860       -0.28925685830033        0.24806772835623
C           21.85248366077607       -0.29873904657697        0.23717041971594
C           23.08293549073436       -0.28805975748185        0.22505161717681
C           24.42515371049981       -0.26731994072148        0.19875902284908
C           25.64886613058120       -0.23893884799649        0.16194488749374

          :  Hamiltonian                  GFN1-xTB          :
         :: total energy            -270.230064798573 Eh    ::
         :: gradient norm              0.000934074455 Eh/a0 ::
         :: HOMO-LUMO gap              0.000473108326 eV    ::
         :: SCC energy              -274.051159168352 Eh    ::
         :: repulsion energy           3.952012586616 Eh    ::

    * Orbital Energies and Occupations

         #    Occupation            Energy/Eh            Energy/eV
      -------------------------------------------------------------
         1        2.0000           -0.8050527             -21.9066
       ...           ...                  ...                  ...
       230        2.0000           -0.3968976             -10.8001
       231        2.0000           -0.3937302             -10.7139
       232        2.0000           -0.3937275             -10.7139
       233        2.0000           -0.3935267             -10.7084
       234        2.0000           -0.3934943             -10.7075
       235        2.0000           -0.3934938             -10.7075
       236        2.0000           -0.3933185             -10.7027
       237        2.0000           -0.3929658             -10.6931
       238        2.0000           -0.3804240             -10.3519
       239        2.0000           -0.3804163             -10.3517
       240        2.0000           -0.3750519             -10.2057
       241        2.0000           -0.3663069              -9.9677
       242        1.0046           -0.3407568              -9.2725 (HOMO)
       243        0.9954           -0.3407394              -9.2720 (LUMO)
       244                         -0.3237616              -8.8100
       245                         -0.3135290              -8.5316
       246                         -0.3119763              -8.4893
       247                         -0.3119617              -8.4889
       248                         -0.2864064              -7.7935
       249                         -0.2857423              -7.7754
       250                         -0.2772184              -7.5435
       251                         -0.2598317              -7.0704
       252                         -0.2531482              -6.8885
       253                         -0.2531416              -6.8883
       ...                                ...                  ...
       510                          1.6200917              44.0849
      -------------------------------------------------------------
                  HL-Gap            0.0000174 Eh            0.0005 eV

Wiberg/Mayer (AO) data.
largest (>0.10) Wiberg bond orders for each atom

     #   Z sym  total        # sym  WBO       # sym  WBO       # sym  WBO
 ---------------------------------------------------------------------------
     1  29 Cu   2.186 --     7 N    0.505    34 N    0.505    35 N    0.503
                            12 N    0.503
     2   6 C    3.929 --    33 C    1.361     3 C    1.361    46 H    0.972
     3   6 C    3.919 --     2 C    1.361     7 N    1.231     4 C    1.170
     4   6 C    3.955 --     5 C    1.657     3 C    1.170    47 H    0.976
     5   6 C    3.958 --     4 C    1.657     6 C    1.173    48 H    0.975
     6   6 C    3.912 --     8 C    1.323     7 N    1.238     5 C    1.173
     7   7 N    3.245 --     6 C    1.238     3 C    1.231     1 Cu   0.505
     8   6 C    3.935 --     9 C    1.336     6 C    1.323    36 C    1.012
     9   6 C    3.907 --     8 C    1.336    12 N    1.218    10 C    1.178
    10   6 C    3.955 --    11 C    1.646     9 C    1.178    49 H    0.975
    11   6 C    3.957 --    10 C    1.646    13 C    1.184    50 H    0.974
    12   7 N    3.249 --    13 C    1.261     9 C    1.218     1 Cu   0.503
    13   6 C    3.898 --    12 N    1.261    14 C    1.257    11 C    1.184
    14   6 C    3.939 --    13 C    1.257    15 C    1.257   145 C    1.191
    15   6 C    3.898 --    35 N    1.261    14 C    1.257    16 C    1.184
    16   6 C    3.957 --    17 C    1.646    15 C    1.184    51 H    0.974
    17   6 C    3.955 --    16 C    1.646    18 C    1.178    52 H    0.975
    18   6 C    3.907 --    19 C    1.336    35 N    1.218    17 C    1.178
    19   6 C    3.935 --    18 C    1.336    30 C    1.323    20 C    1.012
    20   6 C    3.978 --    27 C    1.345    21 C    1.344    19 C    1.012
                            25 C    0.101
    21   6 C    3.903 --    24 C    1.362    20 C    1.344    22 O    1.031
    22   8 O    2.144 --    21 C    1.031    23 C    0.936
    23   6 C    3.908 --    54 H    0.983    55 H    0.980    53 H    0.980
                            22 O    0.936
    24   6 C    3.983 --    25 C    1.442    21 C    1.362    56 H    0.969
    25   6 C    3.993 --    26 C    1.442    24 C    1.442    57 H    0.974
                            20 C    0.101
    26   6 C    3.983 --    25 C    1.442    27 C    1.362    58 H    0.969
    27   6 C    3.903 --    26 C    1.362    20 C    1.345    28 O    1.030
    28   8 O    2.144 --    27 C    1.030    29 C    0.936
    29   6 C    3.908 --    59 H    0.983    60 H    0.980    61 H    0.980
                            28 O    0.936
    30   6 C    3.912 --    19 C    1.323    34 N    1.238    31 C    1.173
    31   6 C    3.958 --    32 C    1.657    30 C    1.173    62 H    0.975
    32   6 C    3.955 --    31 C    1.657    33 C    1.170    63 H    0.976
    33   6 C    3.919 --     2 C    1.361    34 N    1.231    32 C    1.170
    34   7 N    3.245 --    30 C    1.238    33 C    1.231     1 Cu   0.505
    35   7 N    3.249 --    15 C    1.261    18 C    1.218     1 Cu   0.503
    36   6 C    3.978 --    43 C    1.344    37 C    1.344     8 C    1.012
                            41 C    0.101
    37   6 C    3.903 --    40 C    1.362    36 C    1.344    38 O    1.031
    38   8 O    2.144 --    37 C    1.031    39 C    0.936
    39   6 C    3.908 --    64 H    0.983    66 H    0.980    65 H    0.980
                            38 O    0.936
    40   6 C    3.983 --    41 C    1.442    37 C    1.362    67 H    0.969
    41   6 C    3.993 --    42 C    1.442    40 C    1.442    68 H    0.974
                            36 C    0.101
    42   6 C    3.983 --    41 C    1.442    43 C    1.362    69 H    0.969
    43   6 C    3.903 --    42 C    1.362    36 C    1.344    44 O    1.030
    44   8 O    2.144 --    43 C    1.030    45 C    0.936
    45   6 C    3.908 --    71 H    0.983    72 H    0.980    70 H    0.980
                            44 O    0.936
    46   1 H    1.002 --     2 C    0.972
    47   1 H    0.998 --     4 C    0.976
    48   1 H    1.002 --     5 C    0.975
    49   1 H    1.002 --    10 C    0.975
    50   1 H    1.002 --    11 C    0.974
    51   1 H    1.002 --    16 C    0.974
    52   1 H    1.002 --    17 C    0.975
    53   1 H    1.009 --    23 C    0.980
    54   1 H    1.016 --    23 C    0.983
    55   1 H    1.009 --    23 C    0.980
    56   1 H    1.000 --    24 C    0.969
    57   1 H    1.003 --    25 C    0.974
    58   1 H    1.000 --    26 C    0.969
    59   1 H    1.016 --    29 C    0.983
    60   1 H    1.009 --    29 C    0.980
    61   1 H    1.009 --    29 C    0.980
    62   1 H    1.002 --    31 C    0.975
    63   1 H    0.998 --    32 C    0.976
    64   1 H    1.016 --    39 C    0.983
    65   1 H    1.009 --    39 C    0.980
    66   1 H    1.009 --    39 C    0.980
    67   1 H    1.000 --    40 C    0.969
    68   1 H    1.003 --    41 C    0.974
    69   1 H    1.000 --    42 C    0.969
    70   1 H    1.009 --    45 C    0.980
    71   1 H    1.016 --    45 C    0.983
    72   1 H    1.009 --    45 C    0.980
    73  29 Cu   2.186 --   106 N    0.505    79 N    0.505    84 N    0.503
                           107 N    0.503
    74   6 C    3.929 --   105 C    1.361    75 C    1.361   118 H    0.972
    75   6 C    3.919 --    74 C    1.361    79 N    1.231    76 C    1.170
    76   6 C    3.955 --    77 C    1.657    75 C    1.170   119 H    0.976
    77   6 C    3.958 --    76 C    1.657    78 C    1.172   120 H    0.975
    78   6 C    3.912 --    80 C    1.323    79 N    1.238    77 C    1.172
    79   7 N    3.245 --    78 C    1.238    75 C    1.231    73 Cu   0.505
    80   6 C    3.935 --    81 C    1.336    78 C    1.323   108 C    1.012
    81   6 C    3.907 --    80 C    1.336    84 N    1.218    82 C    1.178
    82   6 C    3.955 --    83 C    1.646    81 C    1.178   121 H    0.975
    83   6 C    3.957 --    82 C    1.646    85 C    1.184   122 H    0.974
    84   7 N    3.249 --    85 C    1.261    81 C    1.218    73 Cu   0.503
    85   6 C    3.898 --    84 N    1.261    86 C    1.257    83 C    1.184
    86   6 C    3.939 --    85 C    1.257    87 C    1.257   152 C    1.191
    87   6 C    3.898 --   107 N    1.261    86 C    1.257    88 C    1.184
    88   6 C    3.957 --    89 C    1.646    87 C    1.184   123 H    0.974
    89   6 C    3.955 --    88 C    1.646    90 C    1.178   124 H    0.975
    90   6 C    3.907 --    91 C    1.336   107 N    1.218    89 C    1.178
    91   6 C    3.935 --    90 C    1.336   102 C    1.323    92 C    1.012
    92   6 C    3.978 --    99 C    1.345    93 C    1.344    91 C    1.012
                            97 C    0.101
    93   6 C    3.903 --    96 C    1.362    92 C    1.344    94 O    1.031
    94   8 O    2.144 --    93 C    1.031    95 C    0.936
    95   6 C    3.908 --   126 H    0.983   125 H    0.980   127 H    0.980
                            94 O    0.936
    96   6 C    3.983 --    97 C    1.442    93 C    1.362   128 H    0.969
    97   6 C    3.993 --    98 C    1.442    96 C    1.442   129 H    0.974
                            92 C    0.101
    98   6 C    3.983 --    97 C    1.442    99 C    1.362   130 H    0.969
    99   6 C    3.903 --    98 C    1.362    92 C    1.345   100 O    1.030
   100   8 O    2.144 --    99 C    1.030   101 C    0.936
   101   6 C    3.908 --   131 H    0.983   132 H    0.980   133 H    0.980
                           100 O    0.936
   102   6 C    3.912 --    91 C    1.323   106 N    1.238   103 C    1.172
   103   6 C    3.958 --   104 C    1.657   102 C    1.172   134 H    0.975
   104   6 C    3.955 --   103 C    1.657   105 C    1.170   135 H    0.976
   105   6 C    3.919 --    74 C    1.361   106 N    1.231   104 C    1.170
   106   7 N    3.245 --   102 C    1.238   105 C    1.231    73 Cu   0.505
   107   7 N    3.249 --    87 C    1.261    90 C    1.218    73 Cu   0.503
   108   6 C    3.978 --   115 C    1.345   109 C    1.344    80 C    1.012
                           113 C    0.101
   109   6 C    3.903 --   112 C    1.362   108 C    1.344   110 O    1.031
   110   8 O    2.144 --   109 C    1.031   111 C    0.936
   111   6 C    3.908 --   136 H    0.983   138 H    0.980   137 H    0.980
                           110 O    0.936
   112   6 C    3.983 --   113 C    1.442   109 C    1.362   139 H    0.969
   113   6 C    3.993 --   114 C    1.442   112 C    1.442   140 H    0.974
                           108 C    0.101
   114   6 C    3.983 --   113 C    1.442   115 C    1.362   141 H    0.969
   115   6 C    3.903 --   114 C    1.362   108 C    1.345   116 O    1.030
   116   8 O    2.144 --   115 C    1.030   117 C    0.936
   117   6 C    3.908 --   143 H    0.983   144 H    0.980   142 H    0.980
                           116 O    0.936
   118   1 H    1.002 --    74 C    0.972
   119   1 H    0.998 --    76 C    0.976
   120   1 H    1.002 --    77 C    0.975
   121   1 H    1.002 --    82 C    0.975
   122   1 H    1.002 --    83 C    0.974
   123   1 H    1.002 --    88 C    0.974
   124   1 H    1.002 --    89 C    0.975
   125   1 H    1.009 --    95 C    0.980
   126   1 H    1.016 --    95 C    0.983
   127   1 H    1.009 --    95 C    0.980
   128   1 H    1.000 --    96 C    0.969
   129   1 H    1.003 --    97 C    0.974
   130   1 H    1.000 --    98 C    0.969
   131   1 H    1.016 --   101 C    0.983
   132   1 H    1.009 --   101 C    0.980
   133   1 H    1.009 --   101 C    0.980
   134   1 H    1.002 --   103 C    0.975
   135   1 H    0.998 --   104 C    0.976
   136   1 H    1.016 --   111 C    0.983
   137   1 H    1.009 --   111 C    0.980
   138   1 H    1.009 --   111 C    0.980
   139   1 H    1.000 --   112 C    0.969
   140   1 H    1.003 --   113 C    0.974
   141   1 H    1.000 --   114 C    0.969
   142   1 H    1.009 --   117 C    0.980
   143   1 H    1.016 --   117 C    0.983
   144   1 H    1.009 --   117 C    0.980
   145   6 C    3.877 --   146 C    2.440    14 C    1.191   148 C    0.187
   146   6 C    3.936 --   145 C    2.440   147 C    1.344
   147   6 C    3.893 --   148 C    2.337   146 C    1.344   150 C    0.182
   148   6 C    3.926 --   147 C    2.337   149 C    1.369   145 C    0.187
   149   6 C    3.926 --   150 C    2.337   148 C    1.369   152 C    0.187
   150   6 C    3.893 --   149 C    2.337   151 C    1.344   147 C    0.182
   151   6 C    3.936 --   152 C    2.440   150 C    1.344
   152   6 C    3.877 --   151 C    2.440    86 C    1.191   149 C    0.187
 ---------------------------------------------------------------------------

           -------------------------------------------------
          | TOTAL ENERGY             -270.230064798573 Eh   |
          | GRADIENT NORM               0.000934074455 Eh/α |
          | HOMO-LUMO GAP               0.000473108326 eV   |
           -------------------------------------------------

 * finished run on 2022/07/30 at 12:47:27.642
