   * xtb version 6.5.1 (b24c23e) compiled by 'conda@728c89f4b128' on 2022-07-12
          program call               : xtb Zn_Ph2OMe_C8_2.xyz --gfn 1 --opt -T 48

   ID    Z sym.   atoms
    1   30 Zn     1, 73
    2    6 C      2-6, 8-11, 13-21, 23-27, 29-33, 36, 37, 39-43, 45, 74-78,
                  80-83, 85-93, 95-99, 101-105, 108, 109, 111-115, 117,
                  145-152
    3    7 N      7, 12, 34, 35, 79, 84, 106, 107
    4    8 O      22, 28, 38, 44, 94, 100, 110, 116
    5    1 H      46-72, 118-144
########################################################################
[WARNING] Please study the warnings concerning your input carefully
-1- prog_main_parseArguments: Unknown option '-T' provided
########################################################################

          :  Hamiltonian                  GFN1-xTB          :
 * total energy  :  -262.0926330 Eh     change        0.1487308E-08 Eh
 * total energy  :  -262.5868798 Eh     change       -0.4942468E+00 Eh
 * total energy  :  -262.6923471 Eh     change       -0.1054673E+00 Eh
 * total energy  :  -262.7365054 Eh     change       -0.4415837E-01 Eh
 * total energy  :  -262.7536380 Eh     change       -0.1713257E-01 Eh
 * total energy  :  -262.7638728 Eh     change       -0.1023483E-01 Eh
 * total energy  :  -262.7697184 Eh     change       -0.5845611E-02 Eh
 * total energy  :  -262.7742796 Eh     change       -0.4561130E-02 Eh
 * total energy  :  -262.7771797 Eh     change       -0.2900168E-02 Eh
 * total energy  :  -262.7797889 Eh     change       -0.2609126E-02 Eh
 * total energy  :  -262.7885549 Eh     change       -0.2600777E-04 Eh
 * total energy  :  -262.7885753 Eh     change       -0.2041260E-04 Eh
 * total energy  :  -262.7885930 Eh     change       -0.1777028E-04 Eh
 * total energy  :  -262.7886108 Eh     change       -0.1772433E-04 Eh
 * total energy  :  -262.7886278 Eh     change       -0.1704932E-04 Eh
 * total energy  :  -262.7886413 Eh     change       -0.1350678E-04 Eh
 * total energy  :  -262.7886512 Eh     change       -0.9833351E-05 Eh
 * total energy  :  -262.7886584 Eh     change       -0.7255540E-05 Eh
 * total energy  :  -262.7886634 Eh     change       -0.4948131E-05 Eh
   *** GEOMETRY OPTIMIZATION CONVERGED AFTER 66 ITERATIONS ***

 final structure:
================
152
 xtb: 6.5.1 (b24c23e)
Zn          11.88768556462997        0.05179715721635        0.01689681281523
C            8.48531917742616        0.26231800593143       -0.16115510551886
C            9.11193188202836        1.10649958203639        0.74828948083174
C            8.43926288155239        2.03651066467283        1.61270658976179
C            9.39533251474253        2.65867611093829        2.34693918169276
C           10.66437160666154        2.12066543797097        1.93570887809668
N           10.45698808695840        1.18157634363950        0.96830908306834
C           11.90872271248087        2.48675346739924        2.45892112265495
C           13.14381830631370        1.95997963240173        2.07499157967543
C           14.41823176314189        2.37231915126558        2.59424447371565
C           15.36680701844993        1.64423665091374        1.95212254416690
N           13.34285167658247        0.99175574315446        1.12655140970965
C           14.68206409102171        0.78116191772218        1.03369045017661
C           15.31588066966560       -0.13697737159263        0.17142845341590
C           14.66469803252923       -0.99454581534963       -0.73903198413015
C           15.32989900283548       -1.94032016818707       -1.58771554297394
C           14.36807118213979       -2.57238565372927       -2.30714322649744
C           13.10566351903988       -2.01388170595910       -1.90954063753811
C           11.86037709786767       -2.39819823796348       -2.41129309641550
C           11.84912793679772       -3.45889334447327       -3.46023328952130
C           12.31392203052195       -3.18304841995224       -4.75264015692838
O           12.74841162183491       -1.91274098166327       -4.96879617510432
C           13.26016167010621       -1.53748634891151       -6.23133342282364
C           12.30437940531339       -4.17509898221423       -5.73274588912553
C           11.83454135453102       -5.44040131847720       -5.41470741582308
C           11.37145805069332       -5.73743588422942       -4.14179090495741
C           11.37670092277900       -4.74371892822025       -3.16338075457732
O           10.95024630377779       -4.93909049791851       -1.88671337035551
C           10.47002407506394       -6.20402553403553       -1.47968639918459
C           10.62348196251074       -1.87559765070685       -2.02006955795593
C            9.34750171774458       -2.25663366352276       -2.56388145870551
C            8.40500329372332       -1.50998974346133       -1.93578266689600
C            9.09394717766611       -0.66115898302096       -1.00327499156764
N           10.43466025073655       -0.90570616895328       -1.07967802181619
N           13.32408622402560       -1.06040864185973       -0.95048012833631
C           11.91861179310347        3.53481759896321        3.52042036304359
C           12.21758468405906        3.19619758967700        4.84653283754043
O           12.47606871743752        1.88164520026272        5.07968975766161
C           12.81795141064388        1.43952875008859        6.37749670027299
C           12.22703729274273        4.17492397780629        5.83991849933400
C           11.94243761676203        5.48933199248974        5.50186722211100
C           11.64611122202817        5.84872939037791        4.19570925612196
C           11.63196556152232        4.86880777323703        3.20356416049625
O           11.36067480028177        5.12300812052921        1.89524668407885
C           11.06584009613867        6.43740681229816        1.46893418030925
H            7.40316050239175        0.33057303374942       -0.21890802624958
H            7.37069733116680        2.18290924398457        1.64669005138503
H            9.26089006215335        3.41630651738757        3.10259244530997
H           14.56368023696871        3.12623317776547        3.35134331078573
H           16.43698631791827        1.68278251372255        2.08101634987296
H           16.39651219792939       -2.09748385863797       -1.61902987209979
H           14.49694242975991       -3.35004980136195       -3.04288957573780
H           12.49948448054264       -1.62746120321642       -7.01650325638526
H           13.55830598507731       -0.49135387884858       -6.13987904671901
H           14.13586868098125       -2.13856953361516       -6.50480650369464
H           12.65722407376491       -3.97108524478568       -6.73484084195091
H           11.82923977525888       -6.21263968894615       -6.17615690149549
H           11.01256412363101       -6.73392761509897       -3.92151746398546
H           10.19691423790275       -6.10161678632877       -0.42772790647272
H            9.58414349825635       -6.50189857467003       -2.05378972564152
H           11.24176411256731       -6.97729738070247       -1.57742766303296
H            9.19988370585374       -3.00077642874247       -3.33043834145254
H            7.33618559254636       -1.52160265740682       -2.08387981732842
H           12.99843171911422        0.36612096846734        6.29524377295422
H           12.00217717518661        1.61356290280895        7.08978625936651
H           13.72825681933817        1.93055483467005        6.74237127683863
H           12.45204404776279        3.92289331276634        6.86762609424524
H           11.95175984865580        6.25093515308030        6.27391064736928
H           11.43026115522707        6.88238288376419        3.96054366224101
H           11.90564125003510        7.11813866013564        1.65448678290863
H           10.88603561955641        6.37531692891867        0.39399517329412
H           10.16723876292837        6.82811884405989        1.96187604003198
Zn          30.47942949337796       -0.01271675093371       -0.05448386840829
C           33.88164053571661        0.19771037483124       -0.23883256047853
C           33.25553478253300       -0.58243416050188       -1.20411361469488
C           33.92846272177059       -1.30378360557958       -2.24885899565959
C           32.97278843308710       -1.94288362093896       -2.96895187993616
C           31.70378586333067       -1.61503197811308       -2.37639959978110
N           31.91071677152534       -0.79152170432937       -1.30881157606788
C           30.45995843435695       -2.08323187298172       -2.81188983084114
C           29.22481860837284       -1.78104657355786       -2.23454088684763
C           27.95105333593744       -2.23992462057092       -2.71487843129819
C           27.00201513699231       -1.70964359301043       -1.90226508060013
N           29.02498757364583       -0.97991210230742       -1.14146216460607
C           27.68585287091556       -0.92089267819480       -0.91860379442279
C           27.05141383952694       -0.19797137426815        0.11244325422549
C           27.70196568535966        0.58330402170237        1.08959698029551
C           27.03621716199358        1.28935859113542        2.14579966318912
C           27.99749368445386        1.91370026615603        2.87269220351368
C           29.26009626036621        1.60011100817685        2.26346551990792
C           30.50500031843772        2.04336853650369        2.71482009039064
C           30.51601289866755        2.93136914790460        3.91357598214920
C           30.05635338792340        4.25148450941837        3.82251276757887
O           29.62544240701038        4.64677100700930        2.59481635622679
C           29.12142085266141        5.95251563045727        2.40062237107347
C           30.06708842336715        5.08127522743785        4.94333415425442
C           30.53285259342558        4.58553501647104        6.15172054001153
C           30.99044805122474        3.28153162821917        6.26654586901322
C           30.98406184468431        2.45367126937894        5.14431509274490
O           31.40547439851991        1.16056053210769        5.15760263669800
C           31.87933331177607        0.57604426649204        6.35348871671010
C           31.74216856465611        1.73114574853409        2.14216421311567
C           33.01772963259840        2.21594042120821        2.59705944790139
C           33.96071718916432        1.70124512888886        1.76870044529012
C           33.27248294182149        0.89873675932138        0.79553671164738
N           31.93171618296306        0.93843729207649        1.04839862152063
N           29.04233746209742        0.78498067332998        1.18421658731243
C           30.45032770564358       -2.98469723283768       -4.00049561225448
C           30.16021681175959       -4.34720283666052       -3.85274063205974
O           29.91068756865700       -4.76661819389352       -2.58346039512537
C           29.57958142585233       -6.11648375814393       -2.32871478876665
C           30.14970500420084       -5.19093406180637       -4.96306979155668
C           30.42446511831961       -4.66719021757598       -6.21732335701205
C           30.71220289224750       -3.32147126979960       -6.38835771412490
C           30.72737584330276       -2.47912840998423       -5.27702755918102
O           30.99090651688759       -1.14644004520957       -5.34320329481837
C           31.27322604451340       -0.53475165139662       -6.58517126763178
H           34.96371040368416        0.26576907028042       -0.29840249654691
H           34.99692307285056       -1.31473400024134       -2.39950617070617
H           33.10736021446091       -2.58200812398709       -3.82716218023457
H           27.80639267174829       -2.88306118882443       -3.56823043687075
H           25.93208797684263       -1.83445255725675       -1.95750508217954
H           25.96963236324670        1.29687994530394        2.30608510047954
H           27.86827822050353        2.53243201688394        3.74629808784332
H           29.88591143430932        6.71278566847292        2.60250282456921
H           28.82605651596453        6.01156855949451        1.35137529772409
H           28.24529262862341        6.14318832292649        3.03228156208135
H           29.71839368324812        6.10354588248045        4.88260091845186
H           30.53931908234981        5.23008696431546        7.02390077628513
H           31.34619846129820        2.92107098017282        7.22249057447799
H           32.14878100980746       -0.45191289989221        6.10369960844333
H           32.76626441672145        1.09819798911890        6.73270252967272
H           31.10501030333175        0.56642688080475        7.13028588299072
H           33.16474108126546        2.86879507107411        3.44283368617621
H           35.02942575461778        1.84693068900438        1.80150094161110
H           29.40577287277521       -6.18916337194179       -1.25351205905490
H           30.39848836856275       -6.79105334315979       -2.60709693676860
H           28.66824810938419       -6.41404782591497       -2.86147726028965
H           29.93113951015795       -6.24533931812057       -4.85903698175004
H           30.41409057242408       -5.32274018120557       -7.08122496758427
H           30.92064885472620       -2.94011057336535       -7.37906143510725
H           30.42932995741639       -0.62699397558059       -7.27974689632987
H           31.44718207804468        0.52152898305051       -6.37138815413254
H           32.17168953927163       -0.96063735234556       -7.04834906142635
C           16.71826542097997       -0.19641396973429        0.21627132609603
C           17.94222555906752       -0.23987484156825        0.24056068586168
C           19.28402763445472       -0.27305627180547        0.25554133592512
C           20.51478549166903       -0.29672563741553        0.25829765285367
C           21.85236067461672       -0.30544207253397        0.24921651623830
C           23.08316488292209       -0.30266528888964        0.23031880803566
C           24.42500027991067       -0.28300322194309        0.20079796264075
C           25.64911359344147       -0.25246910242346        0.16537506206366

          :  Hamiltonian                  GFN1-xTB          :
         :: total energy            -262.788663362123 Eh    ::
         :: gradient norm              0.000362856276 Eh/a0 ::
         :: HOMO-LUMO gap              1.097655544453 eV    ::
         :: SCC energy              -266.598275090274 Eh    ::
         :: repulsion energy           3.939887882635 Eh    ::

    * Orbital Energies and Occupations

         #    Occupation            Energy/Eh            Energy/eV
      -------------------------------------------------------------
         1        2.0000           -0.8039218             -21.8758
       ...           ...                  ...                  ...
       221        2.0000           -0.4063748             -11.0580
       222        2.0000           -0.4063595             -11.0576
       223        2.0000           -0.4050980             -11.0233
       224        2.0000           -0.4050502             -11.0220
       225        2.0000           -0.4050106             -11.0209
       226        2.0000           -0.4045915             -11.0095
       227        2.0000           -0.4045530             -11.0084
       228        2.0000           -0.3963911             -10.7864
       229        2.0000           -0.3899793             -10.6119
       230        2.0000           -0.3773784             -10.2690
       231        2.0000           -0.3773638             -10.2686
       232        2.0000           -0.3700263             -10.0689
       233        2.0000           -0.3613553              -9.8330 (HOMO)
       234                         -0.3210172              -8.7353 (LUMO)
       235                         -0.3108224              -8.4579
       236                         -0.3093924              -8.4190
       237                         -0.3093763              -8.4186
       238                         -0.2837837              -7.7221
       239                         -0.2829725              -7.7001
       240                         -0.2748371              -7.4787
       241                         -0.2571298              -6.9969
       242                         -0.2517790              -6.8513
       243                         -0.2517660              -6.8509
       244                         -0.2510804              -6.8322
       ...                                ...                  ...
       500                          1.6221057              44.1397
      -------------------------------------------------------------
                  HL-Gap            0.0403381 Eh            1.0977 eV

Wiberg/Mayer (AO) data.
largest (>0.10) Wiberg bond orders for each atom

     #   Z sym  total        # sym  WBO       # sym  WBO       # sym  WBO
 ---------------------------------------------------------------------------
     1  30 Zn   1.998 --     7 N    0.460    34 N    0.460    12 N    0.457
                            35 N    0.457
     2   6 C    3.927 --     3 C    1.357    33 C    1.357    46 H    0.972
     3   6 C    3.924 --     2 C    1.357     7 N    1.235     4 C    1.170
     4   6 C    3.960 --     5 C    1.660     3 C    1.170    47 H    0.976
     5   6 C    3.964 --     4 C    1.660     6 C    1.173    48 H    0.975
     6   6 C    3.917 --     8 C    1.318     7 N    1.243     5 C    1.173
     7   7 N    3.295 --     6 C    1.243     3 C    1.235     1 Zn   0.460
     8   6 C    3.933 --     9 C    1.333     6 C    1.318    36 C    1.012
     9   6 C    3.912 --     8 C    1.333    12 N    1.221    10 C    1.178
    10   6 C    3.960 --    11 C    1.649     9 C    1.178    49 H    0.975
    11   6 C    3.962 --    10 C    1.649    13 C    1.184    50 H    0.974
    12   7 N    3.298 --    13 C    1.267     9 C    1.221     1 Zn   0.457
    13   6 C    3.903 --    12 N    1.267    14 C    1.251    11 C    1.184
    14   6 C    3.939 --    13 C    1.251    15 C    1.251   145 C    1.195
    15   6 C    3.903 --    35 N    1.267    14 C    1.251    16 C    1.184
    16   6 C    3.962 --    17 C    1.649    15 C    1.184    51 H    0.974
    17   6 C    3.960 --    16 C    1.649    18 C    1.178    52 H    0.975
    18   6 C    3.912 --    19 C    1.333    35 N    1.220    17 C    1.178
    19   6 C    3.933 --    18 C    1.333    30 C    1.318    20 C    1.012
    20   6 C    3.978 --    27 C    1.345    21 C    1.344    19 C    1.012
                            25 C    0.101
    21   6 C    3.903 --    24 C    1.362    20 C    1.344    22 O    1.030
    22   8 O    2.143 --    21 C    1.030    23 C    0.936
    23   6 C    3.908 --    54 H    0.983    53 H    0.980    55 H    0.980
                            22 O    0.936
    24   6 C    3.983 --    25 C    1.442    21 C    1.362    56 H    0.969
    25   6 C    3.993 --    24 C    1.442    26 C    1.442    57 H    0.974
                            20 C    0.101
    26   6 C    3.983 --    25 C    1.442    27 C    1.362    58 H    0.969
    27   6 C    3.903 --    26 C    1.362    20 C    1.345    28 O    1.029
    28   8 O    2.143 --    27 C    1.029    29 C    0.936
    29   6 C    3.908 --    59 H    0.983    60 H    0.980    61 H    0.980
                            28 O    0.936
    30   6 C    3.917 --    19 C    1.318    34 N    1.243    31 C    1.173
    31   6 C    3.964 --    32 C    1.660    30 C    1.173    62 H    0.975
    32   6 C    3.960 --    31 C    1.660    33 C    1.170    63 H    0.976
    33   6 C    3.924 --     2 C    1.357    34 N    1.235    32 C    1.170
    34   7 N    3.295 --    30 C    1.243    33 C    1.235     1 Zn   0.460
    35   7 N    3.298 --    15 C    1.267    18 C    1.220     1 Zn   0.457
    36   6 C    3.978 --    43 C    1.345    37 C    1.344     8 C    1.012
                            41 C    0.101
    37   6 C    3.903 --    40 C    1.362    36 C    1.344    38 O    1.030
    38   8 O    2.143 --    37 C    1.030    39 C    0.936
    39   6 C    3.908 --    64 H    0.983    66 H    0.980    65 H    0.980
                            38 O    0.936
    40   6 C    3.983 --    41 C    1.442    37 C    1.362    67 H    0.969
    41   6 C    3.993 --    40 C    1.442    42 C    1.442    68 H    0.974
                            36 C    0.101
    42   6 C    3.983 --    41 C    1.442    43 C    1.362    69 H    0.969
    43   6 C    3.903 --    42 C    1.362    36 C    1.345    44 O    1.029
    44   8 O    2.143 --    43 C    1.029    45 C    0.936
    45   6 C    3.908 --    71 H    0.983    72 H    0.980    70 H    0.980
                            44 O    0.936
    46   1 H    1.002 --     2 C    0.972
    47   1 H    0.999 --     4 C    0.976
    48   1 H    1.003 --     5 C    0.975
    49   1 H    1.002 --    10 C    0.975
    50   1 H    1.003 --    11 C    0.974
    51   1 H    1.003 --    16 C    0.974
    52   1 H    1.002 --    17 C    0.975
    53   1 H    1.009 --    23 C    0.980
    54   1 H    1.016 --    23 C    0.983
    55   1 H    1.009 --    23 C    0.980
    56   1 H    1.000 --    24 C    0.969
    57   1 H    1.003 --    25 C    0.974
    58   1 H    1.000 --    26 C    0.969
    59   1 H    1.016 --    29 C    0.983
    60   1 H    1.009 --    29 C    0.980
    61   1 H    1.009 --    29 C    0.980
    62   1 H    1.002 --    31 C    0.975
    63   1 H    0.999 --    32 C    0.976
    64   1 H    1.016 --    39 C    0.983
    65   1 H    1.009 --    39 C    0.980
    66   1 H    1.009 --    39 C    0.980
    67   1 H    1.000 --    40 C    0.969
    68   1 H    1.003 --    41 C    0.974
    69   1 H    1.000 --    42 C    0.969
    70   1 H    1.009 --    45 C    0.980
    71   1 H    1.016 --    45 C    0.983
    72   1 H    1.009 --    45 C    0.980
    73  30 Zn   1.998 --    79 N    0.460   106 N    0.460    84 N    0.457
                           107 N    0.457
    74   6 C    3.927 --    75 C    1.357   105 C    1.357   118 H    0.972
    75   6 C    3.924 --    74 C    1.357    79 N    1.235    76 C    1.170
    76   6 C    3.960 --    77 C    1.660    75 C    1.170   119 H    0.976
    77   6 C    3.964 --    76 C    1.660    78 C    1.173   120 H    0.975
    78   6 C    3.917 --    80 C    1.318    79 N    1.243    77 C    1.173
    79   7 N    3.295 --    78 C    1.243    75 C    1.235    73 Zn   0.460
    80   6 C    3.933 --    81 C    1.333    78 C    1.318   108 C    1.012
    81   6 C    3.912 --    80 C    1.333    84 N    1.221    82 C    1.178
    82   6 C    3.960 --    83 C    1.649    81 C    1.178   121 H    0.975
    83   6 C    3.962 --    82 C    1.649    85 C    1.184   122 H    0.974
    84   7 N    3.298 --    85 C    1.267    81 C    1.221    73 Zn   0.457
    85   6 C    3.903 --    84 N    1.267    86 C    1.251    83 C    1.184
    86   6 C    3.939 --    85 C    1.251    87 C    1.251   152 C    1.195
    87   6 C    3.903 --   107 N    1.267    86 C    1.251    88 C    1.184
    88   6 C    3.962 --    89 C    1.649    87 C    1.184   123 H    0.974
    89   6 C    3.960 --    88 C    1.649    90 C    1.178   124 H    0.975
    90   6 C    3.912 --    91 C    1.334   107 N    1.220    89 C    1.178
    91   6 C    3.933 --    90 C    1.334   102 C    1.318    92 C    1.012
    92   6 C    3.978 --    99 C    1.345    93 C    1.344    91 C    1.012
                            97 C    0.101
    93   6 C    3.903 --    96 C    1.362    92 C    1.344    94 O    1.030
    94   8 O    2.143 --    93 C    1.030    95 C    0.936
    95   6 C    3.908 --   126 H    0.983   125 H    0.980   127 H    0.980
                            94 O    0.936
    96   6 C    3.983 --    97 C    1.442    93 C    1.362   128 H    0.969
    97   6 C    3.993 --    96 C    1.442    98 C    1.442   129 H    0.974
                            92 C    0.101
    98   6 C    3.983 --    97 C    1.442    99 C    1.362   130 H    0.969
    99   6 C    3.903 --    98 C    1.362    92 C    1.345   100 O    1.029
   100   8 O    2.143 --    99 C    1.029   101 C    0.936
   101   6 C    3.908 --   131 H    0.983   132 H    0.980   133 H    0.980
                           100 O    0.936
   102   6 C    3.917 --    91 C    1.318   106 N    1.243   103 C    1.173
   103   6 C    3.964 --   104 C    1.660   102 C    1.173   134 H    0.975
   104   6 C    3.960 --   103 C    1.660   105 C    1.170   135 H    0.976
   105   6 C    3.924 --    74 C    1.357   106 N    1.235   104 C    1.170
   106   7 N    3.295 --   102 C    1.243   105 C    1.235    73 Zn   0.460
   107   7 N    3.298 --    87 C    1.267    90 C    1.220    73 Zn   0.457
   108   6 C    3.978 --   115 C    1.345   109 C    1.344    80 C    1.012
                           113 C    0.101
   109   6 C    3.903 --   112 C    1.362   108 C    1.344   110 O    1.030
   110   8 O    2.143 --   109 C    1.030   111 C    0.936
   111   6 C    3.908 --   136 H    0.983   138 H    0.980   137 H    0.980
                           110 O    0.936
   112   6 C    3.983 --   113 C    1.442   109 C    1.362   139 H    0.969
   113   6 C    3.993 --   112 C    1.442   114 C    1.442   140 H    0.974
                           108 C    0.101
   114   6 C    3.983 --   113 C    1.442   115 C    1.362   141 H    0.969
   115   6 C    3.903 --   114 C    1.362   108 C    1.345   116 O    1.029
   116   8 O    2.143 --   115 C    1.029   117 C    0.936
   117   6 C    3.908 --   143 H    0.983   144 H    0.980   142 H    0.980
                           116 O    0.936
   118   1 H    1.002 --    74 C    0.972
   119   1 H    0.999 --    76 C    0.976
   120   1 H    1.002 --    77 C    0.975
   121   1 H    1.002 --    82 C    0.975
   122   1 H    1.003 --    83 C    0.974
   123   1 H    1.003 --    88 C    0.974
   124   1 H    1.002 --    89 C    0.975
   125   1 H    1.009 --    95 C    0.980
   126   1 H    1.016 --    95 C    0.983
   127   1 H    1.009 --    95 C    0.980
   128   1 H    1.000 --    96 C    0.969
   129   1 H    1.003 --    97 C    0.974
   130   1 H    1.000 --    98 C    0.969
   131   1 H    1.016 --   101 C    0.983
   132   1 H    1.009 --   101 C    0.980
   133   1 H    1.009 --   101 C    0.980
   134   1 H    1.002 --   103 C    0.975
   135   1 H    0.999 --   104 C    0.976
   136   1 H    1.016 --   111 C    0.983
   137   1 H    1.009 --   111 C    0.980
   138   1 H    1.009 --   111 C    0.980
   139   1 H    1.000 --   112 C    0.969
   140   1 H    1.003 --   113 C    0.974
   141   1 H    1.000 --   114 C    0.969
   142   1 H    1.009 --   117 C    0.980
   143   1 H    1.016 --   117 C    0.983
   144   1 H    1.009 --   117 C    0.980
   145   6 C    3.876 --   146 C    2.435    14 C    1.195   148 C    0.186
   146   6 C    3.934 --   145 C    2.435   147 C    1.346
   147   6 C    3.892 --   148 C    2.333   146 C    1.346   150 C    0.182
   148   6 C    3.925 --   147 C    2.333   149 C    1.371   145 C    0.186
   149   6 C    3.925 --   150 C    2.333   148 C    1.371   152 C    0.186
   150   6 C    3.892 --   149 C    2.333   151 C    1.346   147 C    0.182
   151   6 C    3.934 --   152 C    2.435   150 C    1.346
   152   6 C    3.876 --   151 C    2.435    86 C    1.195   149 C    0.186
 ---------------------------------------------------------------------------

           -------------------------------------------------
          | TOTAL ENERGY             -262.788663362123 Eh   |
          | GRADIENT NORM               0.000362856276 Eh/α |
          | HOMO-LUMO GAP               1.097655544453 eV   |
           -------------------------------------------------

 * finished run on 2022/07/30 at 15:23:50.847
