   * xtb version 6.5.1 (b24c23e) compiled by 'conda@728c89f4b128' on 2022-07-12
          program call               : xtb Co_PhNH2_C8_2.xyz --gfn 1 --opt -T 48

   ID    Z sym.   atoms
    1   27 Co     1, 61
    2    6 C      2-6, 8-12, 14-18, 20-25, 27-31, 33-38, 62-66, 68-72, 74-78,
                  80-85, 87-91, 93-98, 121-128
    3    7 N      7, 13, 19, 26, 32, 39, 67, 73, 79, 86, 92, 99
    4    1 H      40-60, 100-120
########################################################################
[WARNING] Please study the warnings concerning your input carefully
-1- prog_main_parseArguments: Unknown option '-T' provided
########################################################################

          :  Hamiltonian                  GFN1-xTB          :
 * total energy  :  -218.9699161 Eh     change       -0.5313154E-09 Eh
 * total energy  :  -219.7777914 Eh     change       -0.8078753E+00 Eh
 * total energy  :  -219.9167589 Eh     change       -0.1389675E+00 Eh
 * total energy  :  -219.9771282 Eh     change       -0.6036933E-01 Eh
 * total energy  :  -220.0031618 Eh     change       -0.2603355E-01 Eh
 * total energy  :  -220.0163057 Eh     change       -0.1314391E-01 Eh
 * total energy  :  -220.0251864 Eh     change       -0.8880758E-02 Eh
 * total energy  :  -220.0315866 Eh     change       -0.6400174E-02 Eh
 * total energy  :  -220.0365964 Eh     change       -0.5009801E-02 Eh
 * total energy  :  -220.0400603 Eh     change       -0.3463883E-02 Eh
 * total energy  :  -220.0578045 Eh     change       -0.1286223E-04 Eh
 * total energy  :  -220.0578120 Eh     change       -0.7543544E-05 Eh
 * total energy  :  -220.0578112 Eh     change        0.8183241E-06 Eh
 * total energy  :  -220.0578254 Eh     change       -0.1420420E-04 Eh
 * total energy  :  -220.0578263 Eh     change       -0.8271307E-06 Eh
 * total energy  :  -220.0578145 Eh     change        0.1171736E-04 Eh
 * total energy  :  -220.0578378 Eh     change       -0.2322371E-04 Eh
 * total energy  :  -220.0578440 Eh     change       -0.6226027E-05 Eh
 * total energy  :  -220.0578483 Eh     change       -0.4271154E-05 Eh
   *** GEOMETRY OPTIMIZATION CONVERGED AFTER 51 ITERATIONS ***

 final structure:
================
128
 xtb: 6.5.1 (b24c23e)
Co          12.85591132976374        0.03608647718230        0.02580211399368
C            9.48457821654831        0.11945572806351        0.07464117612412
C           10.15214078363657        1.07143941983390       -0.66592683100979
C            9.50299656205146        2.08551948202521       -1.43872631091362
C           10.47030365353417        2.94168423665044       -1.84584476904851
C           11.70758308637088        2.45565402106419       -1.30949793519741
N           11.51069332634132        1.26950725334055       -0.65032034396120
C           12.90846314730005        3.15460658230010       -1.35527116945073
C           12.92948745478832        4.51527535859099       -1.93286783575765
C           13.77643014398419        4.82429604046916       -3.00079750838762
C           13.79507145844301        6.09479872025590       -3.54715173351466
C           12.96525768533504        7.09320370542916       -3.02959785823667
N           13.01729595780319        8.37759651462461       -3.54002095770855
C           12.12550398439906        6.79627849081783       -1.95265947779828
C           12.10446665540882        5.51998955588148       -1.41999476160106
C           14.08692917276143        2.60643259012087       -0.86841712464045
C           15.34112930115359        3.29570549966991       -0.83138080544004
C           16.27974861408988        2.38227728336866       -0.48209904891315
N           14.24878299974241        1.29822997212648       -0.47230085593842
C           15.59452208072995        1.14387314150985       -0.29291508872348
C           16.24422322318621       -0.07761897098042       -0.09154178412162
C           15.53492038788031       -1.25682034503728        0.15202055440864
C           16.15578795910967       -2.53167530345859        0.32112722362659
C           15.18483789734295       -3.38504962316027        0.72871960122199
C           13.97590465167317       -2.62332424406651        0.81975199123242
N           14.19178857773056       -1.33192677315475        0.39425793300069
C           12.79321571688543       -3.09884707414964        1.36862039050469
C           12.76208999649842       -4.45518576216952        1.95640040447971
C           13.63385555545445       -4.80603972623878        2.99075952016631
C           13.60139277484215       -6.07197357893385        3.54716649136126
C           12.70248226212312       -7.02747049969624        3.06524827663317
N           12.64096452080082       -8.28211159136344        3.64429878647613
C           11.82556920923872       -6.68402344290858        2.03265892908243
C           11.85626679308781       -5.41202614075316        1.49031294087550
C           11.63356158388589       -2.33188585436205        1.37533991478558
C           10.39771816788437       -2.74249610682066        1.97423624523714
C            9.46141829447342       -1.83731973353277        1.60168982550407
C           10.12954224446242       -0.86730278243303        0.78969265187949
N           11.47113383862030       -1.14583056292155        0.70728003361540
H            8.40157273466942        0.15010415440330        0.09836047102290
H            8.44181209975824        2.12496757997103       -1.62720398802040
H           10.36787950867878        3.82595914210406       -2.45388489328184
H           14.40975362877987        4.05034280489277       -3.42039799961215
H           14.45052769548374        6.31979632963896       -4.38141678724396
H           13.37097976993436        8.45085160662402       -4.48036416163414
H           12.20155072234861        8.94185982977783       -3.36425501196346
H           11.49034728597379        7.57083808898898       -1.53703493371958
H           11.45770743510667        5.30083632726376       -0.57744401366126
H           15.47567010010747        4.34366505040571       -1.04439126960552
H           17.34264985090379        2.51849126711030       -0.36349191299456
H           17.20211872813247       -2.72990614602488        0.15256772439597
H           15.26951256126062       -4.43638849736041        0.95086275513487
H           14.32755666171033       -4.06746806119845        3.37733462616054
H           14.27346658489103       -6.32798338191489        4.35895680198106
H           13.47617855850512       -8.57200164423153        4.12727539602992
H           12.23197014252697       -8.99995915409303        3.06788609984597
H           11.12390260844358       -7.42031578218658        1.65612930282236
H           11.18505795402784       -5.15933507062892        0.67676523852095
H           10.27507668547153       -3.61353743782208        2.59737750113662
H            8.41007460299145       -1.81437350751842        1.84110725230364
Co          31.36564154124794        0.00226726575940        0.04818447329695
C           34.73623575544542        0.00027556283242        0.14567952874008
C           34.06981728455225       -1.14527571685865        0.52526129480857
C           34.71954900120825       -2.35103675949926        0.93870798847565
C           33.75287604579687       -3.16525978515375        1.42566530294451
C           32.51540265423201       -2.44936202735218        1.32106034800567
N           32.71138592018454       -1.24300685719467        0.69934112193065
C           31.31564716689311       -2.87354664745298        1.88106835059929
C           31.29558172598786       -4.10741693585581        2.69488838666775
C           30.44374463552205       -5.16551441074044        2.36591026148211
C           30.42565148603981       -6.32355990481283        3.12192227979717
C           31.26102613396201       -6.44745959015040        4.23554043558524
N           31.20971465160359       -7.58310792940639        5.02319760311085
C           32.10578207610219       -5.38859923689720        4.57964763645083
C           32.12611973950808       -4.23872595671858        3.81124449089222
C           30.13736964115094       -2.16328168310638        1.69706921275689
C           28.88436779957223       -2.51092024557615        2.29587896240309
C           27.94500404108699       -1.71506757257607        1.72861386425697
N           29.97421996044430       -1.11137329876246        0.82458774124431
C           28.62859042973835       -0.87555630776476        0.79760848349197
C           27.97821034747045       -0.03564505500886       -0.11146772651885
C           28.68706829007767        0.81632386344394       -0.96281772797690
C           28.06611806879036        1.65793218322600       -1.93518226001863
C           29.03643580532485        2.46924101696502       -2.42245812938871
C           30.24502331475659        2.12835807710885       -1.73455287482412
N           30.02981364928973        1.06162399291134       -0.89123929062650
C           31.42627077600626        2.85128812643904       -1.82585537675792
C           31.45678725029791        4.08974511079968       -2.63271347869488
C           30.57914750392361        5.14256870911000       -2.36005743883532
C           30.61155450849098        6.30523345849165       -3.10868090052799
C           31.51660943112472        6.43419250058667       -4.16574149114637
N           31.57833646651737        7.60983983343780       -4.89202304344289
C           32.39929512888803        5.38692045346631       -4.44376920339805
C           32.36838904499231        4.23259266474596       -3.68250193348015
C           32.58522692834059        2.43648698935084       -1.17913220868845
C           33.81925998861279        3.16563751611416       -1.18598036088510
C           34.75601333127124        2.35675631626626       -0.63537885104304
C           34.08998850527492        1.14180918237877       -0.27907234133022
N           32.74896296765431        1.22430533181510       -0.56026996012670
H           35.81919586239890        0.00455030589600        0.18549771202490
H           35.78066227054696       -2.52957837438559        0.86558700809336
H           33.85591508815657       -4.16205972096449        1.82304585263881
H           29.80609861894327       -5.08496707587351        1.49239028922710
H           29.76631947629118       -7.14099926154188        2.85117750557684
H           30.85054793224072       -8.40578502920731        4.56614336997963
H           32.02778234313597       -7.75151090107301        5.58636574043243
H           32.74528278026978       -5.47286084393124        5.45146651674877
H           32.77667724320503       -3.41755791161573        4.09175112028195
H           28.75102467975476       -3.26594762798283        3.05341458294219
H           26.88258860307092       -1.69018296951426        1.91040476881074
H           27.02017588267754        1.62450864735266       -2.19479397912572
H           28.95142664743176        3.23289489816362       -3.17838791057102
H           29.88082377340325        5.05490271427593       -1.53495252316481
H           29.93474010276627        7.12078878442991       -2.87843903261295
H           30.74044801473337        8.16881964551121       -4.87305071906502
H           31.99308086704556        7.52629391176216       -5.80631863001662
H           33.10563515232820        5.48198099062002       -5.26124806278668
H           33.04404954948273        3.41720990785373       -3.91674138329709
H           33.94062162567576        4.16703912887751       -1.56616725366785
H           35.80639761968482        2.54624579564177       -0.48062215154836
C           17.64524733278797       -0.11383674136333       -0.13044938814452
C           18.87004605445429       -0.12706094104494       -0.16119401241533
C           20.21150678774843       -0.13271930868009       -0.18632883468498
C           21.44282124360633       -0.12302290489807       -0.20553621291389
C           22.77965595849598       -0.10695309988332       -0.21371009854477
C           24.01097683379691       -0.08580270376059       -0.20993573939462
C           25.35242269481090       -0.06757158464922       -0.19054900210951
C           26.57719677465399       -0.04776641982824       -0.16262670352579

          :  Hamiltonian                  GFN1-xTB          :
         :: total energy            -220.057848262477 Eh    ::
         :: gradient norm              0.000437238238 Eh/a0 ::
         :: HOMO-LUMO gap              0.007793023434 eV    ::
         :: SCC energy              -223.688384280561 Eh    ::
         :: repulsion energy           3.741196664536 Eh    ::

    * Orbital Energies and Occupations

         #    Occupation            Energy/Eh            Energy/eV
      -------------------------------------------------------------
         1        2.0000           -0.7802953             -21.2329
       ...           ...                  ...                  ...
       192        2.0000           -0.3975143             -10.8169
       193        2.0000           -0.3974281             -10.8146
       194        2.0000           -0.3891121             -10.5883
       195        2.0000           -0.3890619             -10.5869
       196        2.0000           -0.3868628             -10.5271
       197        2.0000           -0.3868481             -10.5267
       198        1.9998           -0.3835544             -10.4370
       199        1.9998           -0.3835492             -10.4369
       200        1.9998           -0.3834587             -10.4344
       201        1.9998           -0.3834523             -10.4343
       202        1.9995           -0.3824040             -10.4057
       203        1.8825           -0.3772160             -10.2646
       204        1.1343           -0.3748379             -10.1999 (HOMO)
       205        0.9844           -0.3745515             -10.1921 (LUMO)
       206                         -0.3314734              -9.0199
       207                         -0.3227396              -8.7822
       208                         -0.3193458              -8.6898
       209                         -0.3192719              -8.6878
       210                         -0.2958632              -8.0508
       211                         -0.2957822              -8.0486
       212                         -0.2848326              -7.7507
       213                         -0.2847112              -7.7474
       214                         -0.2844988              -7.7416
       215                         -0.2707415              -7.3673
       ...                                ...                  ...
       438                          1.6082658              43.7631
      -------------------------------------------------------------
                  HL-Gap            0.0002864 Eh            0.0078 eV

Wiberg/Mayer (AO) data.
largest (>0.10) Wiberg bond orders for each atom

     #   Z sym  total        # sym  WBO       # sym  WBO       # sym  WBO
 ---------------------------------------------------------------------------
     1  27 Co   3.052 --     7 N    0.640    39 N    0.636    26 N    0.635
                            19 N    0.632
     2   6 C    3.927 --     3 C    1.365    38 C    1.363    40 H    0.970
     3   6 C    3.926 --     2 C    1.365     7 N    1.199     4 C    1.177
     4   6 C    3.958 --     5 C    1.645     3 C    1.177    41 H    0.975
     5   6 C    3.963 --     4 C    1.645     6 C    1.179    42 H    0.973
     6   6 C    3.918 --     8 C    1.313     7 N    1.215     5 C    1.179
     7   7 N    3.344 --     6 C    1.215     3 C    1.199     1 Co   0.640
     8   6 C    3.932 --    16 C    1.328     6 C    1.313     9 C    1.039
     9   6 C    3.986 --    15 C    1.377    10 C    1.377     8 C    1.039
    10   6 C    3.985 --    11 C    1.471     9 C    1.377    43 H    0.972
    11   6 C    3.989 --    10 C    1.471    12 C    1.352    44 H    0.972
    12   6 C    3.950 --    14 C    1.352    11 C    1.352    13 N    1.119
    13   7 N    3.135 --    12 C    1.119    46 H    0.933    45 H    0.933
    14   6 C    3.988 --    15 C    1.471    12 C    1.352    47 H    0.972
    15   6 C    3.985 --    14 C    1.471     9 C    1.377    48 H    0.972
    16   6 C    3.916 --     8 C    1.328    19 N    1.194    17 C    1.184
    17   6 C    3.959 --    18 C    1.633    16 C    1.184    49 H    0.973
    18   6 C    3.959 --    17 C    1.633    20 C    1.193    50 H    0.974
    19   7 N    3.346 --    20 C    1.231    16 C    1.194     1 Co   0.632
    20   6 C    3.904 --    21 C    1.255    19 N    1.231    18 C    1.193
    21   6 C    3.932 --    22 C    1.258    20 C    1.255   121 C    1.195
    22   6 C    3.904 --    21 C    1.258    26 N    1.230    23 C    1.192
    23   6 C    3.960 --    24 C    1.634    22 C    1.192    51 H    0.974
    24   6 C    3.959 --    23 C    1.634    25 C    1.184    52 H    0.973
    25   6 C    3.916 --    27 C    1.329    26 N    1.194    24 C    1.184
    26   7 N    3.345 --    22 C    1.230    25 C    1.194     1 Co   0.635
    27   6 C    3.932 --    25 C    1.329    35 C    1.312    28 C    1.038
    28   6 C    3.986 --    29 C    1.378    34 C    1.377    27 C    1.038
    29   6 C    3.986 --    30 C    1.471    28 C    1.378    53 H    0.972
    30   6 C    3.989 --    29 C    1.471    31 C    1.352    54 H    0.972
    31   6 C    3.950 --    30 C    1.352    33 C    1.352    32 N    1.118
    32   7 N    3.135 --    31 C    1.118    56 H    0.933    55 H    0.933
    33   6 C    3.988 --    34 C    1.471    31 C    1.352    57 H    0.972
    34   6 C    3.985 --    33 C    1.471    28 C    1.377    58 H    0.972
    35   6 C    3.919 --    27 C    1.312    39 N    1.215    36 C    1.179
    36   6 C    3.963 --    37 C    1.644    35 C    1.179    59 H    0.973
    37   6 C    3.958 --    36 C    1.644    38 C    1.177    60 H    0.975
    38   6 C    3.926 --     2 C    1.363    39 N    1.200    37 C    1.177
    39   7 N    3.345 --    35 C    1.215    38 C    1.200     1 Co   0.636
    40   1 H    1.000 --     2 C    0.970
    41   1 H    0.998 --     4 C    0.975
    42   1 H    1.005 --     5 C    0.973
    43   1 H    1.005 --    10 C    0.972
    44   1 H    0.998 --    11 C    0.972
    45   1 H    0.960 --    13 N    0.933
    46   1 H    0.960 --    13 N    0.933
    47   1 H    0.998 --    14 C    0.972
    48   1 H    1.005 --    15 C    0.972
    49   1 H    1.005 --    17 C    0.973
    50   1 H    1.001 --    18 C    0.974
    51   1 H    1.001 --    23 C    0.974
    52   1 H    1.005 --    24 C    0.973
    53   1 H    1.005 --    29 C    0.972
    54   1 H    0.998 --    30 C    0.972
    55   1 H    0.960 --    32 N    0.933
    56   1 H    0.960 --    32 N    0.933
    57   1 H    0.998 --    33 C    0.972
    58   1 H    1.005 --    34 C    0.972
    59   1 H    1.005 --    36 C    0.973
    60   1 H    0.998 --    37 C    0.975
    61  27 Co   3.056 --    67 N    0.640    99 N    0.636    86 N    0.635
                            79 N    0.632
    62   6 C    3.928 --    63 C    1.365    98 C    1.363   100 H    0.970
    63   6 C    3.926 --    62 C    1.365    67 N    1.199    64 C    1.177
    64   6 C    3.958 --    65 C    1.645    63 C    1.177   101 H    0.975
    65   6 C    3.963 --    64 C    1.645    66 C    1.179   102 H    0.973
    66   6 C    3.919 --    68 C    1.312    67 N    1.215    65 C    1.179
    67   7 N    3.344 --    66 C    1.215    63 C    1.199    61 Co   0.640
    68   6 C    3.932 --    76 C    1.327    66 C    1.312    69 C    1.039
    69   6 C    3.986 --    75 C    1.377    70 C    1.377    68 C    1.039
    70   6 C    3.985 --    71 C    1.471    69 C    1.377   103 H    0.972
    71   6 C    3.989 --    70 C    1.471    72 C    1.352   104 H    0.972
    72   6 C    3.950 --    74 C    1.352    71 C    1.352    73 N    1.119
    73   7 N    3.136 --    72 C    1.119   106 H    0.933   105 H    0.933
    74   6 C    3.988 --    75 C    1.471    72 C    1.352   107 H    0.972
    75   6 C    3.985 --    74 C    1.471    69 C    1.377   108 H    0.972
    76   6 C    3.916 --    68 C    1.327    79 N    1.194    77 C    1.184
    77   6 C    3.959 --    78 C    1.632    76 C    1.184   109 H    0.973
    78   6 C    3.959 --    77 C    1.632    80 C    1.193   110 H    0.974
    79   7 N    3.346 --    80 C    1.231    76 C    1.194    61 Co   0.632
    80   6 C    3.904 --    81 C    1.255    79 N    1.231    78 C    1.193
    81   6 C    3.932 --    82 C    1.258    80 C    1.255   128 C    1.195
    82   6 C    3.904 --    81 C    1.258    86 N    1.230    83 C    1.192
    83   6 C    3.960 --    84 C    1.634    82 C    1.192   111 H    0.974
    84   6 C    3.959 --    83 C    1.634    85 C    1.184   112 H    0.973
    85   6 C    3.916 --    87 C    1.329    86 N    1.194    84 C    1.184
    86   7 N    3.345 --    82 C    1.230    85 C    1.194    61 Co   0.635
    87   6 C    3.932 --    85 C    1.329    95 C    1.312    88 C    1.039
    88   6 C    3.986 --    89 C    1.378    94 C    1.377    87 C    1.039
    89   6 C    3.985 --    90 C    1.471    88 C    1.378   113 H    0.972
    90   6 C    3.989 --    89 C    1.471    91 C    1.352   114 H    0.972
    91   6 C    3.950 --    90 C    1.352    93 C    1.352    92 N    1.118
    92   7 N    3.135 --    91 C    1.118   116 H    0.933   115 H    0.933
    93   6 C    3.988 --    94 C    1.471    91 C    1.352   117 H    0.972
    94   6 C    3.985 --    93 C    1.471    88 C    1.377   118 H    0.972
    95   6 C    3.919 --    87 C    1.312    99 N    1.215    96 C    1.179
    96   6 C    3.963 --    97 C    1.644    95 C    1.179   119 H    0.973
    97   6 C    3.958 --    96 C    1.644    98 C    1.178   120 H    0.975
    98   6 C    3.926 --    62 C    1.363    99 N    1.200    97 C    1.178
    99   7 N    3.345 --    95 C    1.215    98 C    1.200    61 Co   0.636
   100   1 H    1.000 --    62 C    0.970
   101   1 H    0.998 --    64 C    0.975
   102   1 H    1.005 --    65 C    0.973
   103   1 H    1.006 --    70 C    0.972
   104   1 H    0.998 --    71 C    0.972
   105   1 H    0.960 --    73 N    0.933
   106   1 H    0.960 --    73 N    0.933
   107   1 H    0.998 --    74 C    0.972
   108   1 H    1.005 --    75 C    0.972
   109   1 H    1.005 --    77 C    0.973
   110   1 H    1.001 --    78 C    0.974
   111   1 H    1.001 --    83 C    0.974
   112   1 H    1.005 --    84 C    0.973
   113   1 H    1.005 --    89 C    0.972
   114   1 H    0.998 --    90 C    0.972
   115   1 H    0.960 --    92 N    0.933
   116   1 H    0.960 --    92 N    0.933
   117   1 H    0.998 --    93 C    0.972
   118   1 H    1.005 --    94 C    0.972
   119   1 H    1.005 --    96 C    0.973
   120   1 H    0.998 --    97 C    0.975
   121   6 C    3.871 --   122 C    2.430    21 C    1.195   124 C    0.185
   122   6 C    3.930 --   121 C    2.430   123 C    1.350
   123   6 C    3.887 --   124 C    2.326   122 C    1.350   126 C    0.180
   124   6 C    3.921 --   123 C    2.326   125 C    1.375   121 C    0.185
   125   6 C    3.921 --   126 C    2.326   124 C    1.375   128 C    0.185
   126   6 C    3.887 --   125 C    2.326   127 C    1.350   123 C    0.180
   127   6 C    3.930 --   128 C    2.430   126 C    1.350
   128   6 C    3.872 --   127 C    2.430    81 C    1.195   125 C    0.185
 ---------------------------------------------------------------------------

           -------------------------------------------------
          | TOTAL ENERGY             -220.057848262477 Eh   |
          | GRADIENT NORM               0.000437238238 Eh/α |
          | HOMO-LUMO GAP               0.007793023434 eV   |
           -------------------------------------------------

 * finished run on 2022/07/30 at 00:42:28.708
