   * xtb version 6.5.1 (b24c23e) compiled by 'conda@728c89f4b128' on 2022-07-12
          program call               : xtb PhNO2_C6_2.xyz --gfn 1 --opt -T 48

   ID    Z sym.   atoms
    1    6 C      1-5, 7-11, 15-19, 21-26, 28-32, 36-41, 62-66, 68-72, 76-80,
                  82-87, 89-93, 97-102, 123-128
    2    7 N      6, 12, 20, 27, 33, 42, 67, 73, 81, 88, 94, 103
    3    8 O      13, 14, 34, 35, 74, 75, 95, 96
    4    1 H      43-61, 104-122
########################################################################
[WARNING] Please study the warnings concerning your input carefully
-1- prog_main_parseArguments: Unknown option '-T' provided
########################################################################

          :  Hamiltonian                  GFN1-xTB          :
 * total energy  :  -243.4577375 Eh     change       -0.3774403E-10 Eh
 * total energy  :  -243.5672915 Eh     change       -0.1095540E+00 Eh
 * total energy  :  -243.6225477 Eh     change       -0.5525621E-01 Eh
 * total energy  :  -243.6376814 Eh     change       -0.1513372E-01 Eh
 * total energy  :  -243.6485999 Eh     change       -0.1091856E-01 Eh
 * total energy  :  -243.6551991 Eh     change       -0.6599163E-02 Eh
 * total energy  :  -243.6596733 Eh     change       -0.4474165E-02 Eh
 * total energy  :  -243.6630628 Eh     change       -0.3389563E-02 Eh
 * total energy  :  -243.6650787 Eh     change       -0.2015895E-02 Eh
 * total energy  :  -243.6666416 Eh     change       -0.1562908E-02 Eh
 * total energy  :  -243.6750030 Eh     change       -0.1702131E-04 Eh
 * total energy  :  -243.6750102 Eh     change       -0.7185773E-05 Eh
 * total energy  :  -243.6750171 Eh     change       -0.6946913E-05 Eh
 * total energy  :  -243.6750207 Eh     change       -0.3590933E-05 Eh
 * total energy  :  -243.6750341 Eh     change       -0.1336878E-04 Eh
 * total energy  :  -243.6750432 Eh     change       -0.9065176E-05 Eh
 * total energy  :  -243.6750529 Eh     change       -0.9760583E-05 Eh
 * total energy  :  -243.6750612 Eh     change       -0.8301552E-05 Eh
 * total energy  :  -243.6750654 Eh     change       -0.4133404E-05 Eh
   *** GEOMETRY OPTIMIZATION CONVERGED AFTER 51 ITERATIONS ***

 final structure:
================
128
 xtb: 6.5.1 (b24c23e)
C           11.26820209084864       -0.12653483198993       -0.07776168480285
C           11.87735224730968       -1.33638045400259        0.22839237733138
C           11.22579659827345       -2.57065189084036        0.50768375222344
C           12.18715477510398       -3.50111943742967        0.78366981181859
C           13.45724985197622       -2.86275573076074        0.68869441369024
N           13.22004158900088       -1.56400698625257        0.34127158457388
C           14.72106402323715       -3.43487922528152        0.87597303227409
C           14.75135086105540       -4.85718142332085        1.28857770405560
C           15.38367789371282       -5.81406115672991        0.48853980926561
C           15.41581034941957       -7.14198803573301        0.87301766055106
C           14.81350735170705       -7.51711876318949        2.07074647116140
N           14.84684688025627       -8.90945963171067        2.48102382811642
O           15.41378950815980       -9.69005004056701        1.76011765719831
O           14.30497190973207       -9.19855821856471        3.51714971125023
C           14.17919900610157       -6.58048680351151        2.88193171971470
C           14.14851834516886       -5.25597381554760        2.48573483786062
C           15.93880591662543       -2.76939502914526        0.70873159482601
C           17.23577489239959       -3.37285197305358        0.95888413272959
C           18.15634350159634       -2.42542351238711        0.68637086116575
N           16.09264178954233       -1.47522742254504        0.31735869275996
C           17.42048913876053       -1.24181758158933        0.28565202087281
C           18.05780750718159       -0.03695988869762       -0.07385549700014
C           17.42187946177068        1.17350785418433       -0.40892778330648
C           18.06637822955179        2.38605751407631       -0.77027190687850
C           17.10011654512095        3.32811542473810       -0.99003880949200
C           15.83452866407946        2.71916688237889       -0.76281023339732
N           16.08044085465226        1.41549868001556       -0.42473363182441
C           14.57116376680417        3.30833390248702       -0.89185855526848
C           14.54151129159329        4.75042637572890       -1.22577011317793
C           13.91108043143150        5.19715970289491       -2.39151364134557
C           13.88146268027731        6.54411377130691       -2.70314518273760
C           14.48346856025986        7.45493890253129       -1.83942792970527
N           14.45330892352816        8.87046931110872       -2.16025980851822
O           13.89648207192688        9.20052636601039       -3.17601293431002
O           14.98697145369966        9.62820698932440       -1.39094561569594
C           15.11497301064380        7.03164373933832       -0.67324905226709
C           15.14360234388840        5.68209956934644       -0.37372634234896
C           13.35250898344819        2.64076064431456       -0.72455320915838
C           12.04714561959092        3.27710533686321       -0.81983523286711
C           11.13440625555363        2.31018911614728       -0.60000899221566
C           11.88057907240209        1.08845912476424       -0.35351133327498
N           13.21322630640882        1.32738208510703       -0.42895351909449
H           10.18308961802034       -0.13915859786397       -0.09005590369215
H           10.15752576219871       -2.71563016448375        0.49188000075546
H           12.03617954964892       -4.54148429573581        1.02176481049753
H           13.94452833083834       -0.87051819081617        0.18832477103649
H           15.83759693226865       -5.51159661476549       -0.44787307302731
H           15.89891798732322       -7.89113547570184        0.25736356629940
H           13.72198118494675       -6.89709874208452        3.81166322809592
H           13.67084531190313       -4.51511852619038        3.11631410313005
H           17.39922326144298       -4.37894153961256        1.30927597442682
H           19.23025280682243       -2.49238627900456        0.75338442335742
H           19.13388797441316        2.51100903357272       -0.85280883375683
H           17.24825336783839        4.35118146889828       -1.29476880325640
H           15.35845132680418        0.73231367262477       -0.22056150625975
H           13.45839854292519        4.47755945553529       -3.06354978597234
H           13.40076491473923        6.89871540497733       -3.60696584020633
H           15.57215997900140        7.76056438286340       -0.01497492726274
H           15.61925146586897        5.34221687677836        0.53891369498648
H           11.87660295305782        4.32351290521713       -1.01489675333847
H           10.05870182774041        2.38727230904829       -0.58676525390112
C           34.02395729414751        0.06763625969290       -0.13282254147784
C           33.41473004593927        1.26274412624519       -0.49208586589833
C           34.06605409979289        2.46478197593045       -0.88807672200128
C           33.10461188547742        3.40505848796016       -1.12821009606057
C           31.83470786992710        2.80909243792207       -0.87952052136247
N           32.07207086915635        1.51636667614912       -0.51043688103060
C           30.57091640499120        3.39676404951542       -1.01039264482228
C           30.54069623281485        4.82921280474767       -1.38630627416009
C           29.90624985383267        5.24003618362866       -2.56286987463372
C           29.87436297201356        6.57697477907311       -2.91468115187946
C           30.47889884658999        7.51339206721922       -2.08057299712974
N           30.44580177118686        8.91890054146753       -2.44329351369043
O           29.87701575215189        9.21903583919409       -3.46158233305221
O           30.99028167519502        9.69850468269407       -1.70399100883772
C           31.11523365346917        7.12570779342135       -0.90483271763163
C           31.14576143537372        5.78564464438659       -0.56488380590884
C           29.35315648183425        2.74034506483176       -0.81062982399434
C           28.05637795088548        3.38738198292057       -0.90329842964551
C           27.13563538801785        2.43446210522242       -0.65127309357328
N           29.19907208664760        1.42843701419191       -0.48370529530084
C           27.87122638226162        1.21228018109593       -0.39019076867062
C           27.23375895866571       -0.00666938908174       -0.08210194360155
C           27.86973724934335       -1.21780139958498        0.25045052558416
C           27.22544998443055       -2.44438077302068        0.56134256494025
C           28.19181504440775       -3.36534575560504        0.85700350294288
C           29.45722587286956       -2.72548053807739        0.74102537617950
N           29.21115344720342       -1.43309562560207        0.36225363016816
C           30.72060110499335       -3.29685018109959        0.93402668427915
C           30.75019619712180       -4.70591092513051        1.38764606455277
C           31.38033050494553       -5.68757025396981        0.61615993577671
C           31.40977319743885       -7.00359819650503        1.03980489757847
C           30.80793742042884       -7.34206166539869        2.24863329469127
N           30.83807309910146       -8.72166007936981        2.69961265331388
O           31.39724181295606       -9.52572448459324        1.99851540154032
O           30.30125235908340       -8.97786539929791        3.74699664562567
C           30.17677951768357       -6.38025523369131        3.03255250401754
C           30.14828583009400       -5.06822227898132        2.59716278084485
C           31.93925127142252       -2.63793571746833        0.73566302196321
C           33.24448692170395       -3.23282165958970        0.98155869614497
C           34.15740416549724       -2.29060398665963        0.67309907910278
C           33.41144850492670       -1.11593676308535        0.25610207931245
N           32.07876633944801       -1.35940349068814        0.31417404060738
H           35.10905427827722        0.07186034522507       -0.15063780087242
H           35.13422074392094        2.58067615967069       -0.97783623398558
H           33.25536612778328        4.41976742970077       -1.45907932213279
H           31.34778758188027        0.84303095242626       -0.28411605144943
H           29.45067283928483        4.49998521599423       -3.21028496555103
H           29.38967385124905        6.90403431458611       -3.82668433348325
H           31.57409508444721        7.87449906518080       -0.27043228279660
H           31.62506327088603        5.47330756767509        0.35564764681111
H           27.89323234447924        4.43110531038696       -1.11714678135737
H           26.06179616944571        2.52679101340781       -0.62672039357277
H           26.15802963560951       -2.59455604044156        0.55333246968908
H           28.04401843769594       -4.39994522249749        1.12009834927288
H           29.93299386716327       -0.74161015086502        0.18763855808511
H           31.83294530134726       -5.41475738193346       -0.32993966840899
H           31.89014737394162       -7.77182406997450        0.44585271698125
H           29.71982140527021       -6.66804447830997        3.97172892940596
H           29.67286580699924       -4.30810154854446        3.20615698052142
H           33.41478636088923       -4.23063489150894        1.35233343541146
H           35.23308748435471       -2.35000846852605        0.72435537679187
C           23.25998712791588       -0.02788989214155       -0.09921864392166
C           22.03158273046539       -0.02776416449165       -0.10048049398696
C           20.68743932041313       -0.02526386022097       -0.09423009343128
C           19.46349188678030       -0.02738339777573       -0.08819631204121
C           24.60413871781049       -0.02714367869753       -0.09484869352687
C           25.82808184471074       -0.02223155252171       -0.08941102389442

          :  Hamiltonian                  GFN1-xTB          :
         :: total energy            -243.675065363606 Eh    ::
         :: gradient norm              0.000533091630 Eh/a0 ::
         :: HOMO-LUMO gap              1.032924666932 eV    ::
         :: SCC energy              -247.202932766578 Eh    ::
         :: repulsion energy           3.635328450115 Eh    ::

    * Orbital Energies and Occupations

         #    Occupation            Energy/Eh            Energy/eV
      -------------------------------------------------------------
         1        2.0000           -0.9229460             -25.1146
       ...           ...                  ...                  ...
       201        2.0000           -0.4454710             -12.1219
       202        2.0000           -0.4442661             -12.0891
       203        2.0000           -0.4435186             -12.0688
       204        2.0000           -0.4406620             -11.9910
       205        2.0000           -0.4405238             -11.9873
       206        2.0000           -0.4391487             -11.9498
       207        2.0000           -0.4387331             -11.9385
       208        2.0000           -0.4380550             -11.9201
       209        2.0000           -0.4350173             -11.8374
       210        2.0000           -0.4226793             -11.5017
       211        2.0000           -0.4224266             -11.4948
       212        2.0000           -0.4124161             -11.2224
       213        2.0000           -0.4029094             -10.9637 (HOMO)
       214                         -0.3649501              -9.9308 (LUMO)
       215                         -0.3606365              -9.8134
       216                         -0.3597476              -9.7892
       217                         -0.3527555              -9.5990
       218                         -0.3497660              -9.5176
       219                         -0.3495832              -9.5126
       220                         -0.3440098              -9.3610
       221                         -0.3439641              -9.3597
       222                         -0.3227743              -8.7831
       223                         -0.3154287              -8.5833
       224                         -0.3064862              -8.3399
       ...                                ...                  ...
       436                          1.5583349              42.4044
      -------------------------------------------------------------
                  HL-Gap            0.0379593 Eh            1.0329 eV

Wiberg/Mayer (AO) data.
largest (>0.10) Wiberg bond orders for each atom

     #   Z sym  total        # sym  WBO       # sym  WBO       # sym  WBO
 ---------------------------------------------------------------------------
     1   6 C    3.927 --    41 C    1.368     2 C    1.347    43 H    0.970
     2   6 C    3.900 --     1 C    1.347     3 C    1.228     6 N    1.169
     3   6 C    3.954 --     4 C    1.597     2 C    1.228    44 H    0.976
     4   6 C    3.958 --     3 C    1.597     5 C    1.232    45 H    0.974
     5   6 C    3.897 --     7 C    1.301     4 C    1.232     6 N    1.180
     6   7 N    3.471 --     5 C    1.180     2 C    1.169    46 H    0.873
     7   6 C    3.936 --    17 C    1.331     5 C    1.301     8 C    1.036
     8   6 C    3.984 --    16 C    1.383     9 C    1.382     7 C    1.036
     9   6 C    3.987 --    10 C    1.464     8 C    1.382    47 H    0.971
                            15 C    0.101
    10   6 C    3.987 --     9 C    1.464    11 C    1.386    48 H    0.965
                            16 C    0.101
    11   6 C    3.940 --    15 C    1.387    10 C    1.386    12 N    0.921
    12   7 N    3.865 --    13 O    1.454    14 O    1.454    11 C    0.921
    13   8 O    1.828 --    12 N    1.454    14 O    0.251
    14   8 O    1.828 --    12 N    1.454    13 O    0.251
    15   6 C    3.987 --    16 C    1.464    11 C    1.387    49 H    0.965
                             9 C    0.101
    16   6 C    3.986 --    15 C    1.464     8 C    1.383    50 H    0.971
                            10 C    0.101
    17   6 C    3.913 --     7 C    1.331    20 N    1.289    18 C    1.124
    18   6 C    3.965 --    19 C    1.711    17 C    1.124    51 H    0.973
    19   6 C    3.963 --    18 C    1.711    21 C    1.127    52 H    0.974
    20   7 N    3.021 --    21 C    1.342    17 C    1.289
    21   6 C    3.905 --    20 N    1.342    22 C    1.255    19 C    1.127
    22   6 C    3.938 --    21 C    1.255    23 C    1.252   126 C    1.191
    23   6 C    3.883 --    22 C    1.252    24 C    1.249    27 N    1.188
    24   6 C    3.959 --    25 C    1.584    23 C    1.249    53 H    0.974
    25   6 C    3.954 --    24 C    1.584    26 C    1.240    54 H    0.974
    26   6 C    3.898 --    28 C    1.305    25 C    1.240    27 N    1.169
    27   7 N    3.475 --    23 C    1.188    26 C    1.169    55 H    0.872
    28   6 C    3.922 --    38 C    1.318    26 C    1.305    29 C    1.038
    29   6 C    3.984 --    30 C    1.382    37 C    1.382    28 C    1.038
    30   6 C    3.986 --    31 C    1.464    29 C    1.382    56 H    0.971
                            36 C    0.101
    31   6 C    3.987 --    30 C    1.464    32 C    1.386    57 H    0.965
                            37 C    0.101
    32   6 C    3.939 --    31 C    1.386    36 C    1.386    33 N    0.922
    33   7 N    3.865 --    34 O    1.454    35 O    1.453    32 C    0.922
    34   8 O    1.828 --    33 N    1.454    35 O    0.251
    35   8 O    1.828 --    33 N    1.453    34 O    0.251
    36   6 C    3.987 --    37 C    1.465    32 C    1.386    58 H    0.965
                            30 C    0.101
    37   6 C    3.985 --    36 C    1.465    29 C    1.382    59 H    0.971
                            31 C    0.101
    38   6 C    3.929 --    42 N    1.319    28 C    1.318    39 C    1.115
    39   6 C    3.967 --    40 C    1.725    38 C    1.115    60 H    0.973
    40   6 C    3.966 --    39 C    1.725    41 C    1.115    61 H    0.975
    41   6 C    3.926 --     1 C    1.368    42 N    1.298    40 C    1.115
    42   7 N    3.012 --    38 C    1.319    41 C    1.298
    43   1 H    1.001 --     1 C    0.970
    44   1 H    0.997 --     3 C    0.976
    45   1 H    1.003 --     4 C    0.974
    46   1 H    0.985 --     6 N    0.873
    47   1 H    1.004 --     9 C    0.971
    48   1 H    1.006 --    10 C    0.965
    49   1 H    1.006 --    15 C    0.965
    50   1 H    1.003 --    16 C    0.971
    51   1 H    1.004 --    18 C    0.973
    52   1 H    1.002 --    19 C    0.974
    53   1 H    1.001 --    24 C    0.974
    54   1 H    1.003 --    25 C    0.974
    55   1 H    0.986 --    27 N    0.872
    56   1 H    1.004 --    30 C    0.971
    57   1 H    1.006 --    31 C    0.965
    58   1 H    1.006 --    36 C    0.965
    59   1 H    1.003 --    37 C    0.971
    60   1 H    1.004 --    39 C    0.973
    61   1 H    0.997 --    40 C    0.975
    62   6 C    3.927 --   102 C    1.368    63 C    1.347   104 H    0.970
    63   6 C    3.900 --    62 C    1.347    64 C    1.228    67 N    1.169
    64   6 C    3.954 --    65 C    1.597    63 C    1.228   105 H    0.976
    65   6 C    3.958 --    64 C    1.597    66 C    1.232   106 H    0.974
    66   6 C    3.897 --    68 C    1.301    65 C    1.232    67 N    1.180
    67   7 N    3.471 --    66 C    1.180    63 C    1.169   107 H    0.873
    68   6 C    3.936 --    78 C    1.331    66 C    1.301    69 C    1.036
    69   6 C    3.984 --    77 C    1.383    70 C    1.382    68 C    1.036
    70   6 C    3.987 --    71 C    1.464    69 C    1.382   108 H    0.971
                            76 C    0.101
    71   6 C    3.987 --    70 C    1.464    72 C    1.386   109 H    0.965
                            77 C    0.101
    72   6 C    3.940 --    76 C    1.387    71 C    1.386    73 N    0.921
    73   7 N    3.865 --    74 O    1.454    75 O    1.454    72 C    0.921
    74   8 O    1.828 --    73 N    1.454    75 O    0.251
    75   8 O    1.828 --    73 N    1.454    74 O    0.251
    76   6 C    3.987 --    77 C    1.464    72 C    1.387   110 H    0.965
                            70 C    0.101
    77   6 C    3.986 --    76 C    1.464    69 C    1.383   111 H    0.971
                            71 C    0.101
    78   6 C    3.913 --    68 C    1.331    81 N    1.289    79 C    1.124
    79   6 C    3.965 --    80 C    1.711    78 C    1.124   112 H    0.973
    80   6 C    3.963 --    79 C    1.711    82 C    1.127   113 H    0.974
    81   7 N    3.021 --    82 C    1.342    78 C    1.289
    82   6 C    3.905 --    81 N    1.342    83 C    1.255    80 C    1.127
    83   6 C    3.938 --    82 C    1.255    84 C    1.252   128 C    1.191
    84   6 C    3.883 --    83 C    1.252    85 C    1.249    88 N    1.188
    85   6 C    3.959 --    86 C    1.584    84 C    1.249   114 H    0.974
    86   6 C    3.954 --    85 C    1.584    87 C    1.240   115 H    0.974
    87   6 C    3.898 --    89 C    1.305    86 C    1.240    88 N    1.169
    88   7 N    3.475 --    84 C    1.188    87 C    1.169   116 H    0.872
    89   6 C    3.922 --    99 C    1.318    87 C    1.305    90 C    1.038
    90   6 C    3.984 --    91 C    1.382    98 C    1.382    89 C    1.038
    91   6 C    3.986 --    92 C    1.464    90 C    1.382   117 H    0.971
                            97 C    0.101
    92   6 C    3.987 --    91 C    1.464    93 C    1.386   118 H    0.965
                            98 C    0.101
    93   6 C    3.939 --    92 C    1.386    97 C    1.386    94 N    0.922
    94   7 N    3.865 --    95 O    1.454    96 O    1.453    93 C    0.922
    95   8 O    1.828 --    94 N    1.454    96 O    0.251
    96   8 O    1.828 --    94 N    1.453    95 O    0.251
    97   6 C    3.987 --    98 C    1.465    93 C    1.386   119 H    0.965
                            91 C    0.101
    98   6 C    3.985 --    97 C    1.465    90 C    1.382   120 H    0.971
                            92 C    0.101
    99   6 C    3.929 --   103 N    1.319    89 C    1.318   100 C    1.115
   100   6 C    3.967 --   101 C    1.725    99 C    1.115   121 H    0.973
   101   6 C    3.966 --   100 C    1.725   102 C    1.115   122 H    0.975
   102   6 C    3.926 --    62 C    1.368   103 N    1.298   101 C    1.115
   103   7 N    3.012 --    99 C    1.319   102 C    1.298
   104   1 H    1.001 --    62 C    0.970
   105   1 H    0.997 --    64 C    0.976
   106   1 H    1.003 --    65 C    0.974
   107   1 H    0.985 --    67 N    0.873
   108   1 H    1.004 --    70 C    0.971
   109   1 H    1.006 --    71 C    0.965
   110   1 H    1.006 --    76 C    0.965
   111   1 H    1.003 --    77 C    0.971
   112   1 H    1.004 --    79 C    0.973
   113   1 H    1.002 --    80 C    0.974
   114   1 H    1.001 --    85 C    0.974
   115   1 H    1.003 --    86 C    0.974
   116   1 H    0.986 --    88 N    0.872
   117   1 H    1.004 --    91 C    0.971
   118   1 H    1.006 --    92 C    0.965
   119   1 H    1.006 --    97 C    0.965
   120   1 H    1.003 --    98 C    0.971
   121   1 H    1.004 --   100 C    0.973
   122   1 H    0.997 --   101 C    0.975
   123   6 C    3.925 --   124 C    2.368   127 C    1.336   126 C    0.190
   124   6 C    3.925 --   123 C    2.368   125 C    1.336   128 C    0.190
   125   6 C    3.932 --   126 C    2.448   124 C    1.336
   126   6 C    3.891 --   125 C    2.448    22 C    1.191   123 C    0.190
   127   6 C    3.932 --   128 C    2.448   123 C    1.336
   128   6 C    3.891 --   127 C    2.448    83 C    1.191   124 C    0.190
 ---------------------------------------------------------------------------

           -------------------------------------------------
          | TOTAL ENERGY             -243.675065363606 Eh   |
          | GRADIENT NORM               0.000533091630 Eh/α |
          | HOMO-LUMO GAP               1.032924666932 eV   |
           -------------------------------------------------

 * finished run on 2022/07/30 at 09:17:32.397
