   * xtb version 6.5.1 (b24c23e) compiled by 'conda@728c89f4b128' on 2022-07-12
          program call               : xtb Co_PhCN_C8_2.xyz --gfn 1 --opt -T 48

   ID    Z sym.   atoms
    1   27 Co     1, 59
    2    6 C      2-6, 8-13, 15-19, 21-26, 28-33, 35-40, 60-64, 66-71, 73-77,
                  79-84, 86-91, 93-98, 117-124
    3    7 N      7, 14, 20, 27, 34, 41, 65, 72, 78, 85, 92, 99
    4    1 H      42-58, 100-116
########################################################################
[WARNING] Please study the warnings concerning your input carefully
-1- prog_main_parseArguments: Unknown option '-T' provided
########################################################################

          :  Hamiltonian                  GFN1-xTB          :
 * total energy  :  -223.6446499 Eh     change        0.2820656E-08 Eh
 * total energy  :  -223.8411691 Eh     change       -0.1965192E+00 Eh
 * total energy  :  -223.9016532 Eh     change       -0.6048418E-01 Eh
 * total energy  :  -223.9250951 Eh     change       -0.2344185E-01 Eh
 * total energy  :  -223.9363783 Eh     change       -0.1128318E-01 Eh
 * total energy  :  -223.9422808 Eh     change       -0.5902484E-02 Eh
 * total energy  :  -223.9441632 Eh     change       -0.1882421E-02 Eh
 * total energy  :  -223.9474294 Eh     change       -0.3266195E-02 Eh
 * total energy  :  -223.9480462 Eh     change       -0.6167915E-03 Eh
 * total energy  :  -223.9494489 Eh     change       -0.1402761E-02 Eh
 * total energy  :  -223.9527814 Eh     change       -0.1904451E-04 Eh
 * total energy  :  -223.9528063 Eh     change       -0.2493801E-04 Eh
 * total energy  :  -223.9528341 Eh     change       -0.2780962E-04 Eh
 * total energy  :  -223.9528592 Eh     change       -0.2509959E-04 Eh
 * total energy  :  -223.9528789 Eh     change       -0.1969807E-04 Eh
 * total energy  :  -223.9528937 Eh     change       -0.1475453E-04 Eh
 * total energy  :  -223.9529026 Eh     change       -0.8873107E-05 Eh
 * total energy  :  -223.9529078 Eh     change       -0.5195513E-05 Eh
 * total energy  :  -223.9529102 Eh     change       -0.2421404E-05 Eh
   *** GEOMETRY OPTIMIZATION CONVERGED AFTER 62 ITERATIONS ***

 final structure:
================
124
 xtb: 6.5.1 (b24c23e)
Co          14.36093669514799        0.03123567223348       -0.00859459370284
C           10.99390301946857        0.03475884786048        0.14107381204247
C           11.65082738749163        1.24331945846948        0.04624530518761
C           10.99441120263440        2.51185742406731       -0.04320691975014
C           11.95529406807354        3.45690289089148        0.08822537823071
C           13.19624950201093        2.76341108261987        0.27476375761161
N           13.00698207229160        1.40881600168137        0.17662556435369
C           14.38938741010821        3.37238069663730        0.64227625275411
C           14.40336819883406        4.82629365937155        0.91500108884036
C           13.57745275871915        5.37014020167201        1.90178831419237
C           13.59217000467342        6.72827345905379        2.16319222893562
C           14.43378255722698        7.57331609778621        1.43373230533528
C           14.44979697584711        8.97199523599603        1.69826428514453
N           14.46268299164252       10.10259206441921        1.91260558883603
C           15.25999568686218        7.03465966432791        0.44290405265462
C           15.24471934823276        5.67467531496339        0.19112653518814
C           15.56844076834201        2.65152836620031        0.76807923639473
C           16.81210451598961        3.20689045477217        1.20987421953092
C           17.75718999350096        2.25633070439009        1.01121074220719
N           15.74054506823451        1.34338519059709        0.37799136060535
C           17.08744060410159        1.12195013071147        0.45909092480447
C           17.75041798076501        0.00936894685428       -0.06457501638178
C           17.05225877995508       -1.09163792330493       -0.56731869643022
C           17.68130258409065       -2.22288569601704       -1.17050193226715
C           16.71634010100361       -3.15942554593003       -1.34050760518613
C           15.50275901318046       -2.60017239262142       -0.82606076655276
N           15.71004371390432       -1.30290568966636       -0.41763809204668
C           14.32638054304263       -3.31311924481824       -0.64162597878468
C           14.31017542271209       -4.76330816327705       -0.93277989375532
C           13.41366282278397       -5.28961154076511       -1.86604162362789
C           13.39750373673030       -6.64506831128031       -2.14112194888692
C           14.27908000509773       -7.50512282448955       -1.47961575556671
C           14.26314199550267       -8.90128396170518       -1.75704998173982
N           14.24970516349219      -10.02998993262072       -1.98068572098753
C           15.17665299808437       -6.98402912806662       -0.54296354034760
C           15.19119410958098       -5.62680198459459       -0.27702939325810
C           13.16478448375232       -2.70116557879165       -0.18789046718641
C           11.93598791554678       -3.39059503169246        0.07834688934591
C           10.99472204916787       -2.44273714263475        0.29882338188373
C           11.65083541899152       -1.17640582041990        0.17866420434064
N           12.99417551542791       -1.34767059823944       -0.04799392089779
H            9.91124180877057        0.03688985868766        0.18325121420673
H            9.93310195025240        2.64187892320546       -0.18285946508520
H           11.84696377092531        4.52917538572681        0.06622773110412
H           12.93358039587748        4.71622898675380        2.47895690362600
H           12.95359329857109        7.14192349083357        2.93484161599249
H           15.91089500092850        7.68730163899940       -0.12692831346668
H           15.87792982791459        5.26240490699314       -0.58627791348969
H           16.93530298840307        4.19745920133705        1.61632974991290
H           18.81621479496299        2.30636730497567        1.20636567795207
H           18.72861672866560       -2.27990149222929       -1.41972958905260
H           16.80780304009096       -4.14221950183336       -1.77339569339876
H           12.73759828606239       -4.62431364055809       -2.39100703978746
H           12.70319588760734       -7.04503790569544       -2.87067882688020
H           15.85894911369142       -7.64828313736424       -0.02571936016171
H           15.87939561957290       -5.22856837688583        0.45988432764309
H           11.82181509989699       -4.46240090500033        0.08980499683002
H            9.94574111487754       -2.56899500754174        0.51436833472383
Co          32.88074932780219       -0.03448753190870       -0.00511985409929
C           36.25055752103519       -0.02996342099907        0.14424699233200
C           35.59388962771526       -1.24201763283148        0.12988024863971
C           36.25351418091068       -2.51209554134986        0.12812395181047
C           35.29309027279911       -3.44889011802023        0.31019846012140
C           34.04916650178237       -2.74761846736173        0.43892559787082
N           34.23693242012531       -1.40103026510322        0.25998721084602
C           32.85245955960890       -3.33918748594934        0.82162240089164
C           32.83871653975217       -4.77657310650941        1.17312392885353
C           33.63811700196459       -5.25882368850034        2.21229311237665
C           33.62217510252383       -6.60029728278624        2.54894533888355
C           32.80679538730961       -7.49026551394705        1.84342636660686
C           32.78983275156041       -8.87185420115223        2.18622152144996
N           32.77591054686442       -9.98856062939049        2.46366428474442
C           32.00801777265600       -7.01337761859594        0.79984843641261
C           32.02363300162758       -5.66933960637925        0.47321685014051
C           31.66972669142853       -2.61755483527690        0.89288683335215
C           30.42296348770334       -3.15695480225556        1.34559698949329
C           29.47818250381244       -2.21785391431801        1.09832872120564
N           31.49885105279594       -1.32878349275725        0.44215127456505
C           30.15108955045624       -1.10642481424570        0.50478714910108
C           29.48857898194112       -0.01541317830555       -0.06247707528372
C           30.18571329611985        1.06442874414730       -0.60993950226480
C           29.55267338246175        2.16947833969872       -1.25611247752993
C           30.51752649947062        3.09515195011726       -1.47676393229696
C           31.73507208238202        2.55594170789621       -0.95043178172250
N           31.52945237447070        1.27931852450741       -0.48024907195995
C           32.91554964563858        3.27314680935328       -0.81923243353097
C           32.93115726856370        4.70589408600106       -1.18848122985365
C           33.80412546674130        5.17507290443643       -2.17301889872845
C           33.81755074901540        6.51320687348516       -2.52295408608937
C           32.95770366538967        7.41300965655116       -1.88601284626753
C           32.97102609053616        8.79131115948994       -2.24186836974763
N           32.98389345385952        9.90563326450367       -2.52864244149629
C           32.08485502217810        6.94925701337485       -0.89734183663312
C           32.07224014563658        5.60866048258763       -0.55702110567810
C           34.08148502610057        2.68368367950162       -0.34822333418267
C           35.31417173002291        3.38535829049908       -0.13805082497608
C           36.25512360927984        2.45093441579172        0.13408874288140
C           35.59489322154783        1.18146488202109        0.10065732625086
N           34.25045756585295        1.34069200268108       -0.12791857871898
H           37.33321099523470       -0.02972156670095        0.18697776426416
H           37.31642349618996       -2.64793397673546        0.00742866542627
H           35.40315340900825       -4.52012570687492        0.35852922141385
H           34.26183323978805       -4.56944604868210        2.77002744854274
H           34.23931824174765       -6.96601157433463        3.36122637766561
H           31.37779341360186       -7.70116805874405        0.24837530257077
H           31.41118929846913       -5.30488430390045       -0.34375226161391
H           30.29800232364611       -4.12999132553416        1.79191305378274
H           28.41751606686140       -2.26175861139822        1.28586362894723
H           28.50305836963169        2.21768384984497       -1.49737547582000
H           30.42393319716486        4.05827664027443       -1.95135154154566
H           34.46336481300327        4.47829074771346       -2.67817833361550
H           34.49265519453826        6.86884978314781       -3.29244817788883
H           31.41986100144491        7.64456462147666       -0.39869115809812
H           31.40271747887398        5.25484654134978        0.21878635873606
H           35.43064901552535        4.45538009956082       -0.19653975181415
H           37.30629235291750        2.58743967591247        0.33203794377074
C           19.15299589016649        0.00074860337810       -0.08927194533504
C           20.37765766101369       -0.00058955244630       -0.09834886585661
C           21.71981935283288       -0.00452178206061       -0.10761432339522
C           22.95076887264447       -0.00099032426905       -0.11065701703942
C           24.28812613800482       -0.00236477346872       -0.11171658323845
C           25.51909663115167       -0.00134074567175       -0.10832257611685
C           26.86123977732753       -0.00464557995039       -0.09714803674479
C           28.08582078077553       -0.00676405515268       -0.08645270641381

          :  Hamiltonian                  GFN1-xTB          :
         :: total energy            -223.952910175278 Eh    ::
         :: gradient norm              0.000608071597 Eh/a0 ::
         :: HOMO-LUMO gap              0.004494798509 eV    ::
         :: SCC energy              -227.846636910278 Eh    ::
         :: repulsion energy           4.005056889279 Eh    ::

    * Orbital Energies and Occupations

         #    Occupation            Energy/Eh            Energy/eV
      -------------------------------------------------------------
         1        2.0000           -0.7837649             -21.3273
       ...           ...                  ...                  ...
       196        2.0000           -0.4284742             -11.6594
       197        2.0000           -0.4237936             -11.5320
       198        2.0000           -0.4091300             -11.1330
       199        2.0000           -0.4090878             -11.1318
       200        2.0000           -0.4084948             -11.1157
       201        2.0000           -0.4084831             -11.1154
       202        1.9997           -0.4050025             -11.0207
       203        1.9997           -0.4049641             -11.0196
       204        1.9997           -0.4048744             -11.0172
       205        1.9997           -0.4048311             -11.0160
       206        1.9992           -0.4039602             -10.9923
       207        1.9083           -0.3993720             -10.8675
       208        1.0902           -0.3966603             -10.7937 (HOMO)
       209        1.0035           -0.3964951             -10.7892 (LUMO)
       210                         -0.3495321              -9.5113
       211                         -0.3431927              -9.3387
       212                         -0.3418139              -9.3012
       213                         -0.3416321              -9.2963
       214                         -0.3176791              -8.6445
       215                         -0.3164623              -8.6114
       216                         -0.3079619              -8.3801
       217                         -0.3066299              -8.3438
       218                         -0.3053516              -8.3090
       219                         -0.3047341              -8.2922
       ...                                ...                  ...
       438                          1.5930117              43.3481
      -------------------------------------------------------------
                  HL-Gap            0.0001652 Eh            0.0045 eV

Wiberg/Mayer (AO) data.
largest (>0.10) Wiberg bond orders for each atom

     #   Z sym  total        # sym  WBO       # sym  WBO       # sym  WBO
 ---------------------------------------------------------------------------
     1  27 Co   3.066 --    41 N    0.645     7 N    0.641    20 N    0.639
                            27 N    0.636
     2   6 C    3.932 --    40 C    1.367     3 C    1.364    42 H    0.969
     3   6 C    3.923 --     2 C    1.364     7 N    1.199     4 C    1.175
     4   6 C    3.958 --     5 C    1.648     3 C    1.175    43 H    0.975
     5   6 C    3.963 --     4 C    1.648     6 C    1.176    44 H    0.973
     6   6 C    3.920 --     8 C    1.318     7 N    1.211     5 C    1.176
     7   7 N    3.349 --     6 C    1.211     3 C    1.199     1 Co   0.641
     8   6 C    3.934 --    17 C    1.328     6 C    1.318     9 C    1.034
     9   6 C    3.963 --    16 C    1.384    10 C    1.384     8 C    1.034
    10   6 C    3.987 --    11 C    1.464     9 C    1.384    45 H    0.971
                            15 C    0.102
    11   6 C    3.993 --    10 C    1.464    12 C    1.364    46 H    0.972
                            16 C    0.102
    12   6 C    3.984 --    15 C    1.364    11 C    1.364    13 C    1.098
    13   6 C    3.958 --    14 N    2.820    12 C    1.098
    14   7 N    2.973 --    13 C    2.820
    15   6 C    3.993 --    16 C    1.464    12 C    1.364    47 H    0.972
                            10 C    0.102
    16   6 C    3.986 --    15 C    1.464     9 C    1.384    48 H    0.971
                            11 C    0.102
    17   6 C    3.916 --     8 C    1.328    20 N    1.194    18 C    1.182
    18   6 C    3.958 --    19 C    1.637    17 C    1.182    49 H    0.973
    19   6 C    3.961 --    18 C    1.637    21 C    1.190    50 H    0.973
    20   7 N    3.349 --    21 C    1.226    17 C    1.194     1 Co   0.639
    21   6 C    3.902 --    22 C    1.261    20 N    1.226    19 C    1.190
    22   6 C    3.938 --    21 C    1.261    23 C    1.259   117 C    1.191
    23   6 C    3.902 --    22 C    1.259    27 N    1.227    24 C    1.192
    24   6 C    3.959 --    25 C    1.635    23 C    1.192    51 H    0.973
    25   6 C    3.958 --    24 C    1.635    26 C    1.182    52 H    0.973
    26   6 C    3.916 --    28 C    1.327    27 N    1.194    25 C    1.182
    27   7 N    3.350 --    23 C    1.227    26 C    1.194     1 Co   0.636
    28   6 C    3.934 --    26 C    1.327    37 C    1.318    29 C    1.035
    29   6 C    3.963 --    30 C    1.384    36 C    1.383    28 C    1.035
    30   6 C    3.985 --    31 C    1.464    29 C    1.384    53 H    0.971
                            35 C    0.102
    31   6 C    3.993 --    30 C    1.464    32 C    1.364    54 H    0.972
                            36 C    0.102
    32   6 C    3.984 --    31 C    1.364    35 C    1.364    33 C    1.098
    33   6 C    3.958 --    34 N    2.820    32 C    1.098
    34   7 N    2.973 --    33 C    2.820
    35   6 C    3.993 --    36 C    1.464    32 C    1.364    55 H    0.972
                            30 C    0.102
    36   6 C    3.985 --    35 C    1.464    29 C    1.383    56 H    0.971
                            31 C    0.102
    37   6 C    3.920 --    28 C    1.318    41 N    1.212    38 C    1.176
    38   6 C    3.963 --    39 C    1.649    37 C    1.176    57 H    0.973
    39   6 C    3.958 --    38 C    1.649    40 C    1.174    58 H    0.975
    40   6 C    3.923 --     2 C    1.367    41 N    1.197    39 C    1.174
    41   7 N    3.347 --    37 C    1.212    40 C    1.197     1 Co   0.645
    42   1 H    0.999 --     2 C    0.969
    43   1 H    0.997 --     4 C    0.975
    44   1 H    1.003 --     5 C    0.973
    45   1 H    1.004 --    10 C    0.971
    46   1 H    1.000 --    11 C    0.972
    47   1 H    1.000 --    15 C    0.972
    48   1 H    1.004 --    16 C    0.971
    49   1 H    1.003 --    18 C    0.973
    50   1 H    1.001 --    19 C    0.973
    51   1 H    1.001 --    24 C    0.973
    52   1 H    1.003 --    25 C    0.973
    53   1 H    1.004 --    30 C    0.971
    54   1 H    1.000 --    31 C    0.972
    55   1 H    1.000 --    35 C    0.972
    56   1 H    1.004 --    36 C    0.971
    57   1 H    1.003 --    38 C    0.973
    58   1 H    0.997 --    39 C    0.975
    59  27 Co   3.057 --    99 N    0.644    65 N    0.640    78 N    0.638
                            85 N    0.635
    60   6 C    3.932 --    98 C    1.367    61 C    1.364   100 H    0.969
    61   6 C    3.923 --    60 C    1.364    65 N    1.200    62 C    1.175
    62   6 C    3.959 --    63 C    1.648    61 C    1.175   101 H    0.975
    63   6 C    3.963 --    62 C    1.648    64 C    1.176   102 H    0.973
    64   6 C    3.920 --    66 C    1.318    65 N    1.211    63 C    1.176
    65   7 N    3.348 --    64 C    1.211    61 C    1.200    59 Co   0.640
    66   6 C    3.934 --    75 C    1.329    64 C    1.318    67 C    1.033
    67   6 C    3.963 --    74 C    1.384    68 C    1.384    66 C    1.033
    68   6 C    3.987 --    69 C    1.464    67 C    1.384   103 H    0.971
                            73 C    0.102
    69   6 C    3.993 --    68 C    1.464    70 C    1.364   104 H    0.972
                            74 C    0.102
    70   6 C    3.984 --    73 C    1.364    69 C    1.364    71 C    1.098
    71   6 C    3.958 --    72 N    2.820    70 C    1.098
    72   7 N    2.973 --    71 C    2.820
    73   6 C    3.993 --    74 C    1.464    70 C    1.364   105 H    0.972
                            68 C    0.102
    74   6 C    3.987 --    73 C    1.464    67 C    1.384   106 H    0.971
                            69 C    0.102
    75   6 C    3.916 --    66 C    1.329    78 N    1.194    76 C    1.182
    76   6 C    3.958 --    77 C    1.637    75 C    1.182   107 H    0.973
    77   6 C    3.961 --    76 C    1.637    79 C    1.190   108 H    0.973
    78   7 N    3.349 --    79 C    1.226    75 C    1.194    59 Co   0.638
    79   6 C    3.902 --    80 C    1.261    78 N    1.226    77 C    1.190
    80   6 C    3.938 --    79 C    1.261    81 C    1.259   124 C    1.190
    81   6 C    3.902 --    80 C    1.259    85 N    1.227    82 C    1.191
    82   6 C    3.961 --    83 C    1.635    81 C    1.191   109 H    0.973
    83   6 C    3.958 --    82 C    1.635    84 C    1.182   110 H    0.973
    84   6 C    3.916 --    86 C    1.328    85 N    1.194    83 C    1.182
    85   7 N    3.350 --    81 C    1.227    84 C    1.194    59 Co   0.635
    86   6 C    3.934 --    84 C    1.328    95 C    1.318    87 C    1.033
    87   6 C    3.963 --    94 C    1.384    88 C    1.384    86 C    1.033
    88   6 C    3.987 --    89 C    1.464    87 C    1.384   111 H    0.971
                            93 C    0.102
    89   6 C    3.993 --    88 C    1.464    90 C    1.364   112 H    0.972
                            94 C    0.102
    90   6 C    3.984 --    93 C    1.364    89 C    1.364    91 C    1.098
    91   6 C    3.958 --    92 N    2.820    90 C    1.098
    92   7 N    2.973 --    91 C    2.820
    93   6 C    3.993 --    94 C    1.464    90 C    1.364   113 H    0.972
                            88 C    0.102
    94   6 C    3.987 --    93 C    1.464    87 C    1.384   114 H    0.971
                            89 C    0.102
    95   6 C    3.920 --    86 C    1.318    99 N    1.212    96 C    1.176
    96   6 C    3.963 --    97 C    1.650    95 C    1.176   115 H    0.973
    97   6 C    3.960 --    96 C    1.650    98 C    1.174   116 H    0.975
    98   6 C    3.923 --    60 C    1.367    99 N    1.198    97 C    1.174
    99   7 N    3.347 --    95 C    1.212    98 C    1.198    59 Co   0.644
   100   1 H    0.999 --    60 C    0.969
   101   1 H    0.997 --    62 C    0.975
   102   1 H    1.003 --    63 C    0.973
   103   1 H    1.004 --    68 C    0.971
   104   1 H    1.000 --    69 C    0.972
   105   1 H    1.000 --    73 C    0.972
   106   1 H    1.004 --    74 C    0.971
   107   1 H    1.003 --    76 C    0.973
   108   1 H    1.001 --    77 C    0.973
   109   1 H    1.001 --    82 C    0.973
   110   1 H    1.003 --    83 C    0.973
   111   1 H    1.004 --    88 C    0.971
   112   1 H    1.000 --    89 C    0.972
   113   1 H    1.000 --    93 C    0.972
   114   1 H    1.004 --    94 C    0.971
   115   1 H    1.003 --    96 C    0.973
   116   1 H    0.997 --    97 C    0.975
   117   6 C    3.872 --   118 C    2.436    22 C    1.191   120 C    0.185
   118   6 C    3.932 --   117 C    2.436   119 C    1.346
   119   6 C    3.888 --   120 C    2.331   118 C    1.346   122 C    0.181
   120   6 C    3.921 --   119 C    2.331   121 C    1.372   117 C    0.185
   121   6 C    3.921 --   122 C    2.331   120 C    1.372   124 C    0.185
   122   6 C    3.888 --   121 C    2.331   123 C    1.346   119 C    0.181
   123   6 C    3.933 --   124 C    2.437   122 C    1.346
   124   6 C    3.872 --   123 C    2.437    80 C    1.190   121 C    0.185
 ---------------------------------------------------------------------------

           -------------------------------------------------
          | TOTAL ENERGY             -223.952910175278 Eh   |
          | GRADIENT NORM               0.000608071597 Eh/α |
          | HOMO-LUMO GAP               0.004494798509 eV   |
           -------------------------------------------------

 * finished run on 2022/07/30 at 09:01:32.639
