   * xtb version 6.5.1 (b24c23e) compiled by 'conda@728c89f4b128' on 2022-07-12
          program call               : xtb Fe_BSA_C4_3.xyz --gfn 1 --opt -T 48

   ID    Z sym.   atoms
    1   26 Fe     1, 65, 137
    2    6 C      2-6, 8-12, 17-21, 23-28, 30-34, 39-44, 66-70, 72-76, 81-85,
                  87-92, 94-98, 103-108, 129-136, 138-142, 144-148, 153-157,
                  159-164, 166-170, 175-180
    3    7 N      7, 22, 29, 45, 71, 86, 93, 109, 143, 158, 165, 181
    4   16 S      13, 35, 77, 99, 149, 171
    5    8 O      14-16, 36-38, 78-80, 100-102, 150-152, 172-174
    6    1 H      46-64, 110-128, 182-199

          :  Hamiltonian                  GFN1-xTB          :
 * total energy  :  -402.5300247 Eh     change        0.6627033E-08 Eh
 * total energy  :  -402.8341576 Eh     change       -0.3041329E+00 Eh
 * total energy  :  -402.9831432 Eh     change       -0.1489856E+00 Eh
 * total energy  :  -403.0626173 Eh     change       -0.7947412E-01 Eh
 * total energy  :  -403.1280405 Eh     change       -0.6542321E-01 Eh
 * total energy  :  -403.1783962 Eh     change       -0.5035570E-01 Eh
 * total energy  :  -403.2054568 Eh     change       -0.2706054E-01 Eh
 * total energy  :  -403.2255920 Eh     change       -0.2013526E-01 Eh
 * total energy  :  -403.2392607 Eh     change       -0.1366869E-01 Eh
 * total energy  :  -403.2559363 Eh     change       -0.1667562E-01 Eh
 * total energy  :  -403.3701860 Eh     change       -0.8153068E-05 Eh
 * total energy  :  -403.3701955 Eh     change       -0.9510841E-05 Eh
 * total energy  :  -403.3702034 Eh     change       -0.7899023E-05 Eh
 * total energy  :  -403.3702091 Eh     change       -0.5683396E-05 Eh
 * total energy  :  -403.3702160 Eh     change       -0.6902455E-05 Eh
 * total energy  :  -403.3702263 Eh     change       -0.1026599E-04 Eh
 * total energy  :  -403.3702339 Eh     change       -0.7628245E-05 Eh
 * total energy  :  -403.3702394 Eh     change       -0.5429597E-05 Eh
 * total energy  :  -403.3702437 Eh     change       -0.4354254E-05 Eh
   *** GEOMETRY OPTIMIZATION CONVERGED AFTER 85 ITERATIONS ***

 final structure:
================
199
 xtb: 6.5.1 (b24c23e)
Fe          34.06382446238980        0.03035342521034        0.01711765813711
C           30.68356683511738        0.14295698090756        0.06021480840789
C           31.33239229173266       -0.32333787938616        1.18579991159549
C           30.66270765524263       -0.81708055083919        2.35114483085588
C           31.61926068865321       -1.04447433364108        3.28226748349016
C           32.87205584621073       -0.67396898307217        2.68905925260828
N           32.68645497020258       -0.28164394847527        1.39115620267065
C           34.08367908082269       -0.63369455195254        3.37103972836867
C           34.09397221740765       -0.95514285458473        4.81663107899884
C           33.34878661600774       -0.18871737137616        5.71620177794558
C           33.35092095250238       -0.49182640530280        7.06782881416931
C           34.10060857942977       -1.57124296804202        7.50597886377524
S           34.10810435147750       -1.96242572449666        9.21514160104704
O           33.72267819260371       -0.82725263836329       10.00071949893219
O           32.87650904753919       -3.02126749074516        9.21603390562504
O           35.30511296758524       -2.66595109035287        9.57057185492810
C           34.85352206736489       -2.34668117776398        6.63916451580558
C           34.84844347702793       -2.03153157665009        5.29050054012081
C           35.28393473779299       -0.30759835653020        2.75284799758707
C           36.53774154142855       -0.18610175782238        3.43578297520829
C           37.48401052842021        0.00360859640337        2.48445910593932
N           35.45937113845093       -0.12847729269073        1.40236537558302
C           36.80593482122774        0.00461126987623        1.22597364214155
C           37.46478666800632        0.00456816426443       -0.00841029787864
C           36.78269691254131        0.02333104984327       -1.23036777789624
C           37.43406769609012       -0.01467864008633       -2.50213952311907
C           36.47673534984428        0.20593581918407       -3.43590976519140
C           35.24339571078259        0.38534085758366       -2.72907127824245
N           35.44124799220237        0.22198906390043       -1.37991090392014
C           34.04346777877896        0.75105009764284       -3.32536387261064
C           34.03397969052397        1.04868091854777       -4.77606333263747
C           33.23692414714586        0.29947932604295       -5.64520628473026
C           33.22113894797789        0.57907172389915       -7.00172459361568
C           34.00729497625963        1.61644419968968       -7.47617849449682
S           33.97537078679520        1.98892107065221       -9.18938018713593
O           34.36072915003784        3.34922956638753       -9.42702058147671
O           35.20266038482514        1.03651620185334       -9.66370217539709
O           32.76597967490986        1.50520225983989       -9.78550783368877
C           34.80521834255556        2.37919256028848       -6.63888543905891
C           34.81763718167448        2.08757817243843       -5.28492297802507
C           32.84977640425819        0.84770943795307       -2.61779982350735
C           31.60096138145213        1.26398141020134       -3.18909205917084
C           30.65629293671904        1.08852513661420       -2.23528136171243
C           31.32925262268990        0.57784656548582       -1.07895125812186
N           32.67782627333415        0.48805839557674       -1.30850702237304
H           29.59984658549829        0.16577760420021        0.07055538997636
H           29.59722627649590       -0.96376968404095        2.42840712860489
H           31.49985819538998       -1.42948934400171        4.28198975153946
H           32.77821065179386        0.65837702465266        5.35383961588521
H           32.78473243996800        0.10088363867350        7.77529575987151
H           32.70797677067374       -3.33947859160576       10.11125919691655
H           35.43322227397999       -3.17929855000604        7.01738250890493
H           35.42097653180224       -2.63221842601666        4.59343181406159
H           36.66683399495690       -0.23796312428202        4.50457246510811
H           38.54804510713319        0.12550022500507        2.60770253863564
H           38.48892246189779       -0.18437469455358       -2.64621592157472
H           36.58537906592738        0.24027042408604       -4.50772515346273
H           32.63706226543407       -0.51430980891109       -5.25488174303424
H           32.60596307335005        0.00618379209856       -7.68414015049071
H           35.44561377290669        1.23684144531540      -10.57590789231188
H           35.39826651326020        3.19046195604598       -7.04207117963404
H           35.42458268256341        2.68021853594797       -4.61045665503598
H           31.47608679593947        1.64169017990395       -4.19088909913231
H           29.59627096146444        1.27775847816408       -2.29215421276591
Fe          60.87701280360879        0.00870227618104       -0.01836680828743
C           64.26097945444896        0.14054279174950       -0.02371222119942
C           63.60976275067814        0.11994815862212       -1.24004309151610
C           64.28080574582940        0.08885711923280       -2.50448931654961
C           63.32394060945155        0.20445076313965       -3.45519361677235
C           62.06904264660851        0.31898766776743       -2.76910844388649
N           62.25475323434748        0.22517194500180       -1.41592569907111
C           60.85361790125855        0.56473425813485       -3.39673860929565
C           60.84459406513615        0.77216677536700       -4.86361619291601
C           61.55004011746537        1.83788784154719       -5.42800044778945
C           61.54921096415946        2.03370907689239       -6.79923927539167
C           60.84158057939445        1.14896291775009       -7.59661737201595
S           60.83659804539931        1.38972072149354       -9.33329264574263
O           61.13578845091305        2.75275159987696       -9.66012776203111
O           62.13452709167677        0.48339527783653       -9.69719050302022
O           59.68410773186302        0.78038926521569       -9.92919491780699
C           60.12949609622705        0.08546975047829       -7.06613346346570
C           60.13244973623551       -0.09763627221656       -5.69318275117480
C           59.64856836350317        0.62008208183348       -2.70846541236853
C           58.38812897075361        0.92318005551170       -3.31885174674879
C           57.44243283490655        0.76324509562522       -2.36231903625315
N           59.47730270807369        0.33878913464671       -1.37501203490795
C           58.12710358791885        0.37324000917274       -1.16939780090996
C           57.47254497403329       -0.00593892430266        0.00455332790410
C           58.15227144403465       -0.36155559665831        1.17208220904794
C           57.49689530944481       -0.79594084758133        2.36582930273989
C           58.45681002907023       -0.91695155852685        3.31432307245019
C           59.69594885604503       -0.54644285599959        2.69792745184570
N           59.49820499023610       -0.24566361101749        1.37279089102117
C           60.90458392160339       -0.44603506868369        3.37480411773001
C           60.92002300832905       -0.68314380367406        4.83712421327888
C           61.67608692361580       -1.72986268432707        5.37061797009295
C           61.69311713946341       -1.95982070081303        6.73635348667074
C           60.94999754005636       -1.12958047503012        7.55957123725213
S           60.97696077957042       -1.40890295194355        9.29049705536967
O           60.66188016228264       -0.21008482165563       10.01082709423054
O           59.69288464945539       -2.39862437963955        9.39032269351027
O           62.14910023308021       -2.14388976247498        9.66229173489294
C           60.19614541500116       -0.07953656866405        7.06094241466299
C           60.18191095816190        0.13809343023814        5.69302324261127
C           62.10189536977073       -0.14279841707481        2.73767129261048
C           63.35824870746362        0.01182529294295        3.41354197498164
C           64.30039635876702        0.17549801160360        2.45566951552403
C           63.61894973444955        0.13173017759493        1.19694324279121
N           62.26811737575594       -0.00955391838610        1.38500951783054
H           65.34476360339342        0.16117864298705       -0.02763267877924
H           65.34738902633259       -0.01005366263595       -2.62848010521762
H           63.44355781574930        0.20886398819101       -4.52645828082421
H           62.08851637782681        2.52414422682714       -4.78490352788647
H           62.08412196323229        2.86191962107765       -7.24686840539326
H           62.29231446730737        0.49138390384387      -10.64909981117072
H           59.58220832047799       -0.58290477303450       -7.71891607233258
H           59.59119590315147       -0.92972086361368       -5.25820653357761
H           58.25463718142827        1.22084672000168       -4.34605119688408
H           56.37481465907225        0.88930846269873       -2.44273760437482
H           56.43810084191086       -0.97986793209245        2.45158737448414
H           58.34650799011734       -1.23355869613961        4.33865851083883
H           62.24190413818410       -2.37385559438926        4.70760527590163
H           62.27543002388727       -2.76797204981182        7.16074236624302
H           59.44591852446890       -2.53320635744374       10.31336183087911
H           59.63725962608471        0.55762898262545        7.73482152525522
H           59.60799804512564        0.96093406478731        5.28309768175678
H           63.48877699132900       -0.00274093533552        4.48340531043834
H           65.36406416016304        0.31009182668372        2.57049440116263
C           40.09069758578281       -0.02588558647370       -0.02886900967260
C           38.86792568562161       -0.01487821806854       -0.02117142961892
C           41.43902865674148       -0.03069091714680       -0.03487013281516
C           42.66199442875411       -0.03342523963085       -0.03947592623592
C           53.49217855778110       -0.05660823030454        0.01825143175903
C           52.27085417125317       -0.05863650134772        0.01530956849765
C           54.84389528003962       -0.04778149893543        0.01768313729580
C           56.06490803811221       -0.03039331019242        0.01124377135424
Fe          47.46436243420577       -0.06021436662914        0.01357630747936
C           44.06445419464296       -0.03009624933287       -0.04178928045081
C           44.73612506460972        0.86188305949367        0.80330095478365
C           44.07799759103915        1.76124276205556        1.69814754694591
C           45.02978661834284        2.60148500223828        2.17414387425106
C           46.26592333155450        2.21321371732736        1.56340679029115
N           46.07641362389680        1.11259740001029        0.76574029701774
C           47.46078079881695        2.91273946765544        1.68486738879706
C           47.45616543457057        4.19603942115466        2.42322148175283
C           48.25957573895909        4.36415030352584        3.55385294143883
C           48.25857617100947        5.56493898197797        4.24424751887582
C           47.44955681676910        6.59334176906636        3.78911156743659
S           47.45939120016892        8.12236621666204        4.64799691034277
O           47.02625507283033        9.19191811162942        3.79727328104342
O           46.26375184105577        7.80988978750406        5.70161472024916
O           48.68162280778903        8.27967627218810        5.37842792379408
C           46.64528969320030        6.45813298646835        2.66920126594540
C           46.64941433821672        5.25129655964086        1.98954357597760
C           48.65941351684775        2.45652506796668        1.14758024003783
C           49.90169909727940        3.16691366689864        1.21704256555669
C           50.85790692042036        2.32752099213092        0.75004368963871
N           48.84776613235118        1.22499210905490        0.57140197008177
C           50.19571955723721        1.11491513687964        0.38350006241296
C           50.86440359889825       -0.05252642724570        0.00314883239618
C           50.19081569822185       -1.21187262331170       -0.39430660464746
C           50.84422572335251       -2.43398155547383       -0.74382671674462
C           49.88942604999887       -3.25580668789321       -1.24489289250750
C           48.65712041846841       -2.52632832504502       -1.20944199827160
N           48.85022034006015       -1.29433838264660       -0.63743445191134
C           47.46349020771946       -2.96434085739023       -1.77295704423462
C           47.45846541512306       -4.24750661881965       -2.51160616997230
C           48.27886724430821       -4.42335008947227       -3.62871681057785
C           48.28049808868252       -5.62550512544115       -4.31686834651921
C           47.45768140653756       -6.64758012071519       -3.87231942260683
S           47.47105691806096       -8.17920406283384       -4.72623190731956
O           47.02309306037780       -9.24383386584570       -3.87703432922510
O           46.28940443969908       -7.86407152566705       -5.79514762710945
O           48.70058431022224       -8.34553189301472       -5.44239983970681
C           46.63680340285809       -6.50479468191548       -2.76543457577957
C           46.63813350658395       -5.29656109404397       -2.08841406131763
C           46.27313117431016       -2.25599373289945       -1.66214971579646
C           45.03800424994630       -2.64233174520095       -2.27642551566028
C           44.08343454981517       -1.81204429053981       -1.78919044272283
C           44.73986969705696       -0.91650917820276       -0.88925780136914
N           46.08341659626234       -1.15141641581573       -0.86839208889642
H           43.02277296656404        1.74540555363831        1.91827190577053
H           44.91543780856924        3.40905717299988        2.87877706577337
H           48.87680664753785        3.54322114624882        3.89956366726257
H           48.87796476544763        5.70690967529092        5.12090928054791
H           46.01467614717020        8.61468147411440        6.17261062083329
H           46.03403785899008        7.28679050020292        2.33434577062326
H           46.03737953668491        5.12834489417451        1.10364601609477
H           50.01828600085020        4.17566009807757        1.57809315571797
H           51.91867245039314        2.49785008716551        0.66134785015616
H           51.89817841555334       -2.62341823728485       -0.61939965641645
H           50.00041995284563       -4.26580660287172       -1.60435427311437
H           48.90785906863048       -3.60760100198052       -3.96536931316773
H           48.91293298274528       -5.77367828649361       -5.18314462825437
H           46.05642570789828       -8.66492367784943       -6.28089503635282
H           46.01532287556003       -7.32889880000516       -2.43828764722073
H           46.01348907234723       -5.16785569970187       -1.21218387296507
H           44.92522157006632       -3.44576094734213       -2.98599485177433
H           43.02714215061621       -1.80002633318946       -2.00443221977108

          :  Hamiltonian                  GFN1-xTB          :
         :: total energy            -403.370243723133 Eh    ::
         :: gradient norm              0.000757372664 Eh/a0 ::
         :: HOMO-LUMO gap              0.101565180913 eV    ::
         :: SCC energy              -408.767600679095 Eh    ::
         :: repulsion energy           5.582968612573 Eh    ::

    * Orbital Energies and Occupations

         #    Occupation            Energy/Eh            Energy/eV
      -------------------------------------------------------------
         1        2.0000           -1.0394850             -28.2858
       ...           ...                  ...                  ...
       338        2.0000           -0.4154724             -11.3056
       339        1.9999           -0.4151835             -11.2977
       340        1.9932           -0.4105102             -11.1706
       341        1.9931           -0.4105009             -11.1703
       342        1.9930           -0.4104845             -11.1699
       343        1.9908           -0.4102281             -11.1629
       344        1.9377           -0.4083832             -11.1127
       345        1.9340           -0.4083267             -11.1111
       346        1.9322           -0.4083004             -11.1104
       347        1.9234           -0.4081794             -11.1071
       348        1.9181           -0.4081127             -11.1053
       349        1.9056           -0.4079724             -11.1015
       350        1.7905           -0.4071558             -11.0793 (HOMO)
       351        0.2879           -0.4034234             -10.9777 (LUMO)
       352        0.2152           -0.4031072             -10.9691
       353        0.1854           -0.4029499             -10.9648
       354                         -0.3600692              -9.7980
       355                         -0.3520187              -9.5789
       356                         -0.3507033              -9.5431
       357                         -0.3499741              -9.5233
       358                         -0.3493196              -9.5055
       359                         -0.3482929              -9.4775
       360                         -0.3281283              -8.9288
       361                         -0.3218826              -8.7589
       ...                                ...                  ...
       729                          1.4943293              40.6628
      -------------------------------------------------------------
                  HL-Gap            0.0037325 Eh            0.1016 eV

Wiberg/Mayer (AO) data.
largest (>0.10) Wiberg bond orders for each atom

     #   Z sym  total        # sym  WBO       # sym  WBO       # sym  WBO
 ---------------------------------------------------------------------------
     1  26 Fe   3.188 --    45 N    0.681    22 N    0.673     7 N    0.672
                            29 N    0.665
     2   6 C    3.928 --    44 C    1.366     3 C    1.362    46 H    0.970
     3   6 C    3.921 --     2 C    1.362     7 N    1.207     4 C    1.173
     4   6 C    3.959 --     5 C    1.650     3 C    1.173    47 H    0.975
     5   6 C    3.961 --     4 C    1.650     6 C    1.174    48 H    0.973
     6   6 C    3.921 --     8 C    1.315     7 N    1.221     5 C    1.174
     7   7 N    3.383 --     6 C    1.221     3 C    1.207     1 Fe   0.672
     8   6 C    3.929 --    19 C    1.329     6 C    1.315     9 C    1.031
     9   6 C    3.986 --    10 C    1.390    18 C    1.390     8 C    1.031
    10   6 C    3.986 --    11 C    1.449     9 C    1.390    49 H    0.971
                            17 C    0.106
    11   6 C    3.989 --    10 C    1.449    12 C    1.408    50 H    0.967
                            18 C    0.106
    12   6 C    3.931 --    11 C    1.408    17 C    1.407    13 S    0.754
    13  16 S    5.265 --    16 O    1.720    14 O    1.719    15 O    1.013
                            12 C    0.754
    14   8 O    2.078 --    13 S    1.719    16 O    0.139
    15   8 O    2.088 --    13 S    1.013    51 H    0.827
    16   8 O    2.079 --    13 S    1.720    14 O    0.139
    17   6 C    3.989 --    18 C    1.450    12 C    1.407    52 H    0.967
                            10 C    0.106
    18   6 C    3.986 --    17 C    1.450     9 C    1.390    53 H    0.971
                            11 C    0.106
    19   6 C    3.917 --     8 C    1.329    22 N    1.202    20 C    1.179
    20   6 C    3.956 --    21 C    1.638    19 C    1.179    54 H    0.973
    21   6 C    3.959 --    20 C    1.638    23 C    1.187    55 H    0.973
    22   7 N    3.386 --    23 C    1.237    19 C    1.202     1 Fe   0.673
    23   6 C    3.904 --    24 C    1.258    22 N    1.237    21 C    1.187
    24   6 C    3.929 --    23 C    1.258    25 C    1.256   130 C    1.191
    25   6 C    3.904 --    24 C    1.256    29 N    1.238    26 C    1.188
    26   6 C    3.959 --    27 C    1.638    25 C    1.188    56 H    0.973
    27   6 C    3.957 --    26 C    1.638    28 C    1.180    57 H    0.973
    28   6 C    3.917 --    30 C    1.328    29 N    1.202    27 C    1.180
    29   7 N    3.383 --    25 C    1.238    28 C    1.202     1 Fe   0.665
    30   6 C    3.929 --    28 C    1.328    41 C    1.315    31 C    1.031
    31   6 C    3.986 --    32 C    1.390    40 C    1.390    30 C    1.031
    32   6 C    3.986 --    33 C    1.450    31 C    1.390    58 H    0.971
                            39 C    0.106
    33   6 C    3.989 --    32 C    1.450    34 C    1.408    59 H    0.967
                            40 C    0.106
    34   6 C    3.931 --    33 C    1.408    39 C    1.407    35 S    0.754
    35  16 S    5.266 --    38 O    1.725    36 O    1.716    37 O    1.013
                            34 C    0.754
    36   8 O    2.075 --    35 S    1.716    38 O    0.139
    37   8 O    2.088 --    35 S    1.013    60 H    0.827
    38   8 O    2.083 --    35 S    1.725    36 O    0.139
    39   6 C    3.989 --    40 C    1.450    34 C    1.407    61 H    0.967
                            32 C    0.106
    40   6 C    3.986 --    39 C    1.450    31 C    1.390    62 H    0.971
                            33 C    0.106
    41   6 C    3.921 --    30 C    1.315    45 N    1.222    42 C    1.173
    42   6 C    3.960 --    43 C    1.651    41 C    1.173    63 H    0.973
    43   6 C    3.959 --    42 C    1.651    44 C    1.172    64 H    0.974
    44   6 C    3.921 --     2 C    1.366    45 N    1.205    43 C    1.172
    45   7 N    3.387 --    41 C    1.222    44 C    1.205     1 Fe   0.681
    46   1 H    1.000 --     2 C    0.970
    47   1 H    0.997 --     4 C    0.975
    48   1 H    1.003 --     5 C    0.973
    49   1 H    1.003 --    10 C    0.971
    50   1 H    0.999 --    11 C    0.967
    51   1 H    0.854 --    15 O    0.827
    52   1 H    0.999 --    17 C    0.967
    53   1 H    1.003 --    18 C    0.971
    54   1 H    1.003 --    20 C    0.973
    55   1 H    1.001 --    21 C    0.973
    56   1 H    1.001 --    26 C    0.973
    57   1 H    1.003 --    27 C    0.973
    58   1 H    1.003 --    32 C    0.971
    59   1 H    0.999 --    33 C    0.967
    60   1 H    0.854 --    37 O    0.827
    61   1 H    0.999 --    39 C    0.967
    62   1 H    1.003 --    40 C    0.971
    63   1 H    1.003 --    42 C    0.973
    64   1 H    0.997 --    43 C    0.974
    65  26 Fe   3.276 --   109 N    0.694    86 N    0.686    71 N    0.682
                            93 N    0.675
    66   6 C    3.945 --   108 C    1.367    67 C    1.362   110 H    0.970
    67   6 C    3.921 --    66 C    1.362    71 N    1.207    68 C    1.173
    68   6 C    3.959 --    69 C    1.650    67 C    1.173   111 H    0.975
    69   6 C    3.960 --    68 C    1.650    70 C    1.173   112 H    0.973
    70   6 C    3.922 --    72 C    1.319    71 N    1.219    69 C    1.173
    71   7 N    3.393 --    70 C    1.219    67 C    1.207    65 Fe   0.682
    72   6 C    3.944 --    83 C    1.327    70 C    1.319    73 C    1.030
    73   6 C    3.986 --    74 C    1.391    82 C    1.391    72 C    1.030
    74   6 C    3.986 --    75 C    1.450    73 C    1.391   113 H    0.971
                            81 C    0.106
    75   6 C    3.989 --    74 C    1.450    76 C    1.407   114 H    0.967
                            82 C    0.106
    76   6 C    3.931 --    75 C    1.407    81 C    1.407    77 S    0.754
    77  16 S    5.265 --    78 O    1.720    80 O    1.719    79 O    1.013
                            76 C    0.754
    78   8 O    2.079 --    77 S    1.720    80 O    0.139
    79   8 O    2.087 --    77 S    1.013   115 H    0.827
    80   8 O    2.078 --    77 S    1.719    78 O    0.139
    81   6 C    3.989 --    82 C    1.450    76 C    1.407   116 H    0.967
                            74 C    0.106
    82   6 C    3.986 --    81 C    1.450    73 C    1.391   117 H    0.971
                            75 C    0.106
    83   6 C    3.916 --    72 C    1.327    86 N    1.204    84 C    1.179
    84   6 C    3.958 --    85 C    1.640    83 C    1.179   118 H    0.973
    85   6 C    3.959 --    84 C    1.640    87 C    1.186   119 H    0.973
    86   7 N    3.397 --    87 C    1.230    83 C    1.204    65 Fe   0.686
    87   6 C    3.907 --    88 C    1.270    86 N    1.230    85 C    1.186
    88   6 C    3.949 --    87 C    1.270    89 C    1.266   136 C    1.171
    89   6 C    3.907 --    88 C    1.266    93 N    1.231    90 C    1.187
    90   6 C    3.959 --    91 C    1.639    89 C    1.187   120 H    0.973
    91   6 C    3.958 --    90 C    1.639    92 C    1.180   121 H    0.973
    92   6 C    3.916 --    94 C    1.326    93 N    1.204    91 C    1.180
    93   7 N    3.393 --    89 C    1.231    92 C    1.204    65 Fe   0.675
    94   6 C    3.945 --    92 C    1.326   105 C    1.320    95 C    1.029
    95   6 C    3.986 --    96 C    1.391   104 C    1.391    94 C    1.029
    96   6 C    3.986 --    97 C    1.450    95 C    1.391   122 H    0.971
                           103 C    0.106
    97   6 C    3.989 --    96 C    1.450    98 C    1.408   123 H    0.967
                           104 C    0.106
    98   6 C    3.931 --    97 C    1.408   103 C    1.407    99 S    0.754
    99  16 S    5.266 --   102 O    1.724   100 O    1.716   101 O    1.013
                            98 C    0.754
   100   8 O    2.075 --    99 S    1.716   102 O    0.139
   101   8 O    2.087 --    99 S    1.013   124 H    0.828
   102   8 O    2.083 --    99 S    1.724   100 O    0.139
   103   6 C    3.989 --   104 C    1.450    98 C    1.407   125 H    0.967
                            96 C    0.106
   104   6 C    3.986 --   103 C    1.450    95 C    1.391   126 H    0.971
                            97 C    0.106
   105   6 C    3.922 --    94 C    1.320   109 N    1.220   106 C    1.172
   106   6 C    3.960 --   107 C    1.652   105 C    1.172   127 H    0.973
   107   6 C    3.959 --   106 C    1.652   108 C    1.171   128 H    0.974
   108   6 C    3.920 --    66 C    1.367   109 N    1.205   107 C    1.171
   109   7 N    3.397 --   105 C    1.220   108 C    1.205    65 Fe   0.694
   110   1 H    1.000 --    66 C    0.970
   111   1 H    0.997 --    68 C    0.975
   112   1 H    1.003 --    69 C    0.973
   113   1 H    1.003 --    74 C    0.971
   114   1 H    0.999 --    75 C    0.967
   115   1 H    0.854 --    79 O    0.827
   116   1 H    0.999 --    81 C    0.967
   117   1 H    1.003 --    82 C    0.971
   118   1 H    1.003 --    84 C    0.973
   119   1 H    1.001 --    85 C    0.973
   120   1 H    1.001 --    90 C    0.973
   121   1 H    1.003 --    91 C    0.973
   122   1 H    1.003 --    96 C    0.971
   123   1 H    0.999 --    97 C    0.967
   124   1 H    0.854 --   101 O    0.828
   125   1 H    0.999 --   103 C    0.967
   126   1 H    1.003 --   104 C    0.971
   127   1 H    1.003 --   106 C    0.973
   128   1 H    0.997 --   107 C    0.974
   129   6 C    3.924 --   130 C    2.461   131 C    1.315
   130   6 C    3.911 --   129 C    2.461    24 C    1.191   132 C    0.194
   131   6 C    3.921 --   132 C    2.459   129 C    1.315
   132   6 C    3.915 --   131 C    2.459   138 C    1.194   130 C    0.194
   133   6 C    3.922 --   134 C    2.482   135 C    1.296
   134   6 C    3.914 --   133 C    2.482   160 C    1.177   136 C    0.194
   135   6 C    3.928 --   136 C    2.484   133 C    1.296
   136   6 C    3.911 --   135 C    2.484    88 C    1.171   134 C    0.194
   137  26 Fe   3.235 --   158 N    0.678   181 N    0.676   165 N    0.664
                           143 N    0.663
   138   6 C    3.928 --   180 C    1.255   139 C    1.253   132 C    1.194
   139   6 C    3.906 --   138 C    1.253   143 N    1.238   140 C    1.189
   140   6 C    3.959 --   141 C    1.636   139 C    1.189   182 H    0.973
   141   6 C    3.959 --   140 C    1.636   142 C    1.181   183 H    0.973
   142   6 C    3.916 --   144 C    1.322   143 N    1.204   141 C    1.181
   143   7 N    3.378 --   139 C    1.238   142 C    1.204   137 Fe   0.663
   144   6 C    3.932 --   142 C    1.322   155 C    1.320   145 C    1.032
   145   6 C    3.986 --   146 C    1.390   154 C    1.389   144 C    1.032
   146   6 C    3.986 --   147 C    1.450   145 C    1.390   184 H    0.971
                           153 C    0.106
   147   6 C    3.989 --   146 C    1.450   148 C    1.408   185 H    0.966
                           154 C    0.106
   148   6 C    3.931 --   147 C    1.408   153 C    1.408   149 S    0.754
   149  16 S    5.267 --   152 O    1.724   150 O    1.716   151 O    1.014
                           148 C    0.754
   150   8 O    2.076 --   149 S    1.716   152 O    0.139
   151   8 O    2.088 --   149 S    1.014   186 H    0.827
   152   8 O    2.083 --   149 S    1.724   150 O    0.139
   153   6 C    3.989 --   154 C    1.450   148 C    1.408   187 H    0.967
                           146 C    0.106
   154   6 C    3.986 --   153 C    1.450   145 C    1.389   188 H    0.971
                           147 C    0.106
   155   6 C    3.915 --   144 C    1.320   158 N    1.207   156 C    1.180
   156   6 C    3.960 --   157 C    1.638   155 C    1.180   189 H    0.973
   157   6 C    3.959 --   156 C    1.638   159 C    1.187   190 H    0.973
   158   7 N    3.385 --   159 C    1.233   155 C    1.207   137 Fe   0.678
   159   6 C    3.907 --   160 C    1.265   158 N    1.233   157 C    1.187
   160   6 C    3.931 --   159 C    1.265   161 C    1.262   134 C    1.177
   161   6 C    3.907 --   160 C    1.262   165 N    1.233   162 C    1.188
   162   6 C    3.959 --   163 C    1.636   161 C    1.188   191 H    0.973
   163   6 C    3.960 --   162 C    1.636   164 C    1.181   192 H    0.973
   164   6 C    3.915 --   166 C    1.318   165 N    1.207   163 C    1.181
   165   7 N    3.379 --   161 C    1.233   164 C    1.207   137 Fe   0.664
   166   6 C    3.932 --   177 C    1.325   164 C    1.318   167 C    1.032
   167   6 C    3.986 --   168 C    1.390   176 C    1.389   166 C    1.032
   168   6 C    3.986 --   169 C    1.449   167 C    1.390   193 H    0.971
                           175 C    0.106
   169   6 C    3.989 --   168 C    1.449   170 C    1.408   194 H    0.966
                           176 C    0.106
   170   6 C    3.931 --   169 C    1.408   175 C    1.407   171 S    0.754
   171  16 S    5.266 --   174 O    1.724   172 O    1.717   173 O    1.014
                           170 C    0.754
   172   8 O    2.076 --   171 S    1.717   174 O    0.139
   173   8 O    2.088 --   171 S    1.014   195 H    0.827
   174   8 O    2.083 --   171 S    1.724   172 O    0.139
   175   6 C    3.989 --   176 C    1.450   170 C    1.407   196 H    0.967
                           168 C    0.106
   176   6 C    3.986 --   175 C    1.450   167 C    1.389   197 H    0.971
                           169 C    0.106
   177   6 C    3.916 --   166 C    1.325   181 N    1.202   178 C    1.181
   178   6 C    3.958 --   179 C    1.636   177 C    1.181   198 H    0.973
   179   6 C    3.959 --   178 C    1.636   180 C    1.189   199 H    0.973
   180   6 C    3.905 --   138 C    1.255   181 N    1.239   179 C    1.189
   181   7 N    3.384 --   180 C    1.239   177 C    1.202   137 Fe   0.676
   182   1 H    1.001 --   140 C    0.973
   183   1 H    1.003 --   141 C    0.973
   184   1 H    1.003 --   146 C    0.971
   185   1 H    0.999 --   147 C    0.966
   186   1 H    0.853 --   151 O    0.827
   187   1 H    0.999 --   153 C    0.967
   188   1 H    1.003 --   154 C    0.971
   189   1 H    1.003 --   156 C    0.973
   190   1 H    1.001 --   157 C    0.973
   191   1 H    1.001 --   162 C    0.973
   192   1 H    1.003 --   163 C    0.973
   193   1 H    1.003 --   168 C    0.971
   194   1 H    0.999 --   169 C    0.966
   195   1 H    0.854 --   173 O    0.827
   196   1 H    0.999 --   175 C    0.967
   197   1 H    1.003 --   176 C    0.971
   198   1 H    1.003 --   178 C    0.973
   199   1 H    1.001 --   179 C    0.973
 ---------------------------------------------------------------------------

           -------------------------------------------------
          | TOTAL ENERGY             -403.370243723133 Eh   |
          | GRADIENT NORM               0.000757372664 Eh/α |
          | HOMO-LUMO GAP               0.101565180913 eV   |
           -------------------------------------------------

 * finished run on 2022/07/29 at 21:11:35.212
