   * xtb version 6.5.1 (b24c23e) compiled by 'conda@728c89f4b128' on 2022-07-12
          program call               : xtb H_C4_3.xyz --gfn 1 --opt -T 48

   ID    Z sym.   atoms
    1    6 C      1-5, 7-10, 12-17, 19-23, 38-42, 44-47, 49-54, 56-60, 75-87,
                  89-92, 94-99, 101-105
    2    7 N      6, 11, 18, 24, 43, 48, 55, 61, 88, 93, 100, 106
    3    1 H      25-37, 62-74, 107-118

          :  Hamiltonian                  GFN1-xTB          :
 * total energy  :  -201.3772331 Eh     change        0.1014834E-07 Eh
 * total energy  :  -201.5915955 Eh     change       -0.2143624E+00 Eh
 * total energy  :  -201.7015090 Eh     change       -0.1099135E+00 Eh
 * total energy  :  -201.7381067 Eh     change       -0.3659772E-01 Eh
 * total energy  :  -201.7538954 Eh     change       -0.1578872E-01 Eh
 * total energy  :  -201.7587677 Eh     change       -0.4872313E-02 Eh
 * total energy  :  -201.7598348 Eh     change       -0.1067123E-02 Eh
 * total energy  :  -201.7594440 Eh     change        0.3908023E-03 Eh
 * total energy  :  -201.7611087 Eh     change       -0.1664708E-02 Eh
 * total energy  :  -201.7616256 Eh     change       -0.5169084E-03 Eh
 * total energy  :  -202.2274599 Eh     change       -0.1844252E-03 Eh
 * total energy  :  -202.2274743 Eh     change       -0.1442571E-04 Eh
 * total energy  :  -202.2274854 Eh     change       -0.1112847E-04 Eh
 * total energy  :  -202.2274931 Eh     change       -0.7617899E-05 Eh
 * total energy  :  -202.2275037 Eh     change       -0.1063149E-04 Eh
 * total energy  :  -202.2275183 Eh     change       -0.1461761E-04 Eh
 * total energy  :  -202.2275278 Eh     change       -0.9530569E-05 Eh
 * total energy  :  -202.2275346 Eh     change       -0.6784673E-05 Eh
 * total energy  :  -202.2275393 Eh     change       -0.4711352E-05 Eh
   *** GEOMETRY OPTIMIZATION CONVERGED AFTER 84 ITERATIONS ***

 final structure:
================
118
 xtb: 6.5.1 (b24c23e)
C           12.44285068555364       -0.07381786598659        0.00066032725292
C           13.07313187804693       -1.30983791747287       -0.06769033230129
C           12.46562701648748       -2.59624739354535       -0.14205902921221
C           13.46251221432763       -3.52952694834297       -0.19424290729110
C           14.71020942361225       -2.84317820410844       -0.15251788788525
N           14.42419660659369       -1.51064539181690       -0.07712069290729
C           15.98161292492775       -3.40428411085310       -0.17958329502969
C           17.19808232604248       -2.73851044800620       -0.13646729660157
C           18.47977683577754       -3.42047071628024       -0.16709380484475
C           19.42461213136848       -2.45905870723720       -0.11051343421494
N           17.38457806725893       -1.39240967130925       -0.06243176559053
C           18.71619260869431       -1.19326596826589       -0.04585559086734
C           19.36544810497900        0.05741308332042        0.02003513703383
C           18.71003990097219        1.30155659247275        0.08350805103199
C           19.31225208242009        2.58680631673515        0.15242158380190
C           18.31149832927295        3.51811688457910        0.19892477082289
C           17.06806089758595        2.82742461097947        0.15952654030451
N           17.36140283019892        1.49226102040890        0.09047834109870
C           15.79755682683775        3.38915408015562        0.18575851123832
C           14.58020458668008        2.72058523658479        0.14931596220271
C           13.29216648842564        3.39619855646102        0.18354582179966
C           12.35328303465382        2.42999343893194        0.13350513752506
C           13.06855774299205        1.16546139736686        0.06770876633240
N           14.40575466060043        1.37995911784977        0.07953454463283
H           11.35806791477074       -0.08622011377330       -0.00033975139096
H           11.40124908061539       -2.76958348157294       -0.15359327630151
H           13.35727267915723       -4.60110095791679       -0.25615902656091
H           15.11457728416681       -0.76855941770492       -0.03376757451767
H           16.01787278688640       -4.48730738520137       -0.24072875311668
H           18.60576617013933       -4.49032099181663       -0.22401739029223
H           20.49779539314029       -2.56545090016878       -0.11053008884823
H           20.37591458668435        2.76338969570770        0.16480439548453
H           18.41371430502860        4.59013500095985        0.25574854857765
H           16.67362758606360        0.74731094934259        0.04940577435541
H           15.76250313479833        4.47243053573460        0.24161268346335
H           13.16080128540878        4.46567389093408        0.23859615721365
H           11.27891705332367        2.52867910112349        0.13835050449233
C           46.47345465967337        0.06393249463649       -0.01745705379822
C           45.84597163372543        1.28410777438208       -0.23447720687074
C           46.45666590252602        2.55000691224654       -0.46689107624245
C           45.46215544191077        3.47332431920144       -0.62792429736304
C           44.21276678697006        2.80111557615481       -0.49860773204891
N           44.49544500821411        1.48660636088091       -0.26331308938515
C           42.94273208696490        3.35864571893858       -0.58915744195555
C           41.72481881228586        2.70605029710797       -0.46344298556089
C           40.44449797459277        3.38236326386534       -0.57368986975094
C           39.49773027659356        2.43678150927798       -0.40114147688836
N           41.53563346766580        1.37901509210050       -0.22814964810788
C           40.20359873435798        1.18623181360199       -0.18637271749311
C           39.55212101524905       -0.04638131897284        0.02820616452191
C           40.20488156775926       -1.27545069347039        0.23979974872511
C           39.59931866551116       -2.54134215146654        0.46376198576796
C           40.59759717685108       -3.46246660599466        0.62470561185373
C           41.84280290931626       -2.78468644665326        0.50315975730407
N           41.55298275606319       -1.46720106022011        0.27132195403372
C           43.11191287483162       -3.34187470211759        0.59934864907495
C           44.33064639421816       -2.68554889849586        0.48034543706236
C           45.61733719568031       -3.35464717778235        0.59582609183059
C           46.55808345612066       -2.40434571650340        0.42410121109237
C           45.84526180180285       -1.15600931298255        0.20372969993665
N           44.50767621859303       -1.36423644448656        0.24495944818907
H           47.55825725281489        0.07313045899107       -0.02356615414826
H           47.52146173719485        2.71715502353136       -0.50357643590667
H           45.57012310865887        4.52913156169657       -0.81974120308868
H           43.80302272496051        0.75770673548032       -0.12757647204124
H           42.90894811351436        4.42654777915901       -0.78004171080181
H           40.32065785543399        4.43794374103962       -0.75839968338452
H           38.42476400126527        2.54475065128158       -0.41288474588262
H           38.53519690247821       -2.71251246199182        0.49603658420789
H           40.49254561692693       -4.51932296505170        0.81152481692095
H           42.24288685462565       -0.73458510937178        0.14113033792624
H           43.14449183236636       -4.41007404344102        0.78831516457794
H           45.74659838050386       -4.40932457894181        0.78294447273642
H           47.63224994074913       -2.50419995817081        0.43879988915728
C           21.99216443964093        0.07914734805763        0.01238418541766
C           20.76969357935617        0.07401718546350        0.01832990136683
C           23.34102580763999        0.07588174976374        0.00304031377744
C           24.56345970127041        0.05961927461278       -0.00770846571116
C           35.57643091997433       -0.06638880503529        0.02216085671143
C           34.35391270159538       -0.05693283912357        0.01536531967605
C           36.92534611859950       -0.06599032847303        0.02779064505598
C           38.14777636331233       -0.06122221037871        0.03098584314309
C           25.96688992285333        0.04693758331983       -0.01525519798905
C           26.61971060470371        1.29468637430631       -0.03783873754960
C           26.01793256179878        2.58055972595653       -0.06200428144606
C           27.02012041572467        3.51243814204357       -0.08352586150572
C           28.26184316632713        2.81997972353305       -0.07215302284327
N           27.96842493946764        1.48403533635857       -0.04469538047042
C           29.53297115971442        3.38431354020273       -0.08558987946922
C           30.75564478192056        2.73090342935998       -0.07086608115964
C           32.02973746772503        3.42750072371937       -0.08508112922523
C           32.98539855554954        2.47536345403448       -0.05955744322138
N           30.95718810192237        1.38523062608740       -0.03855109144900
C           32.29109782016845        1.20106998373605       -0.03008677074045
C           32.95043226068774       -0.04526606591387        0.00612734515492
C           32.29772525137628       -1.29292974737470        0.03201124906444
C           32.89947776541783       -2.57867495676198        0.06320014852653
C           31.89732242461361       -3.51079044971413        0.07262568895571
C           30.65562059218147       -2.81860440688096        0.04785815175969
N           30.94903695327323       -1.48258519238603        0.02458581244463
C           29.38451697656946       -3.38317762445088        0.04635556807517
C           28.16184162396134       -2.72986968219037        0.02655818308153
C           26.88777732179215       -3.42668687325447        0.02994561328490
C           25.93205787774784       -2.47437713288649        0.01426391462072
C           26.62628728400295       -1.19979538827763        0.00022505851504
N           27.96020301428785       -1.38395586567999        0.00677316654044
H           24.95444873274991        2.75820066352979       -0.06359712279681
H           26.91842855849161        4.58575915677378       -0.10523437518718
H           28.65374120769946        0.73586358856498       -0.03104637568844
H           29.56069983485708        4.46927732042578       -0.10911301503444
H           32.14369205804635        4.49991082092005       -0.11068445056155
H           34.05739599382298        2.59305520478244       -0.05979171387373
H           33.96293386185211       -2.75607889437218        0.07573089703349
H           31.99902643515726       -4.58411048086412        0.09461831751342
H           30.26378176047099       -0.73453891323018        0.00324578536402
H           29.35679743939647       -4.46825095994522        0.06448389720388
H           26.77388404323892       -4.49933405294981        0.04312904670025
H           24.86005499584236       -2.59208644120484        0.01115580141216

          :  Hamiltonian                  GFN1-xTB          :
         :: total energy            -202.227539326456 Eh    ::
         :: gradient norm              0.000323623861 Eh/a0 ::
         :: HOMO-LUMO gap              0.863167573009 eV    ::
         :: SCC energy              -205.657697791604 Eh    ::
         :: repulsion energy           3.523614781036 Eh    ::

    * Orbital Energies and Occupations

         #    Occupation            Energy/Eh            Energy/eV
      -------------------------------------------------------------
         1        2.0000           -0.8046677             -21.8961
       ...           ...                  ...                  ...
       173        2.0000           -0.4187618             -11.3951
       174        2.0000           -0.4170884             -11.3496
       175        2.0000           -0.4162179             -11.3259
       176        2.0000           -0.4161942             -11.3252
       177        2.0000           -0.4160544             -11.3214
       178        2.0000           -0.4159625             -11.3189
       179        2.0000           -0.4157066             -11.3120
       180        2.0000           -0.3998149             -10.8795
       181        2.0000           -0.3990028             -10.8574
       182        2.0000           -0.3989255             -10.8553
       183        2.0000           -0.3928761             -10.6907
       184        2.0000           -0.3857126             -10.4958
       185        2.0000           -0.3771166             -10.2619 (HOMO)
       186        0.0000           -0.3453958              -9.3987 (LUMO)
       187                         -0.3352175              -9.1217
       188                         -0.3312220              -9.0130
       189                         -0.3308698              -9.0034
       190                         -0.3307099              -8.9991
       191                         -0.3266733              -8.8892
       192                         -0.3026675              -8.2360
       193                         -0.2941424              -8.0040
       194                         -0.2902097              -7.8970
       195                         -0.2602820              -7.0826
       196                         -0.2601357              -7.0787
       ...                                ...                  ...
       396                          1.5162515              41.2593
      -------------------------------------------------------------
                  HL-Gap            0.0317208 Eh            0.8632 eV

Wiberg/Mayer (AO) data.
largest (>0.10) Wiberg bond orders for each atom

     #   Z sym  total        # sym  WBO       # sym  WBO       # sym  WBO
 ---------------------------------------------------------------------------
     1   6 C    3.929 --    23 C    1.363     2 C    1.349    25 H    0.972
     2   6 C    3.903 --     1 C    1.349     3 C    1.225     6 N    1.172
     3   6 C    3.954 --     4 C    1.602     2 C    1.225    26 H    0.977
     4   6 C    3.958 --     3 C    1.602     5 C    1.227    27 H    0.977
     5   6 C    3.897 --     7 C    1.342     4 C    1.227     6 N    1.174
     6   7 N    3.471 --     5 C    1.174     2 C    1.172    28 H    0.873
     7   6 C    3.944 --     8 C    1.379     5 C    1.342    29 H    0.971
     8   6 C    3.915 --     7 C    1.379    11 N    1.277     9 C    1.119
     9   6 C    3.965 --    10 C    1.717     8 C    1.119    30 H    0.976
    10   6 C    3.964 --     9 C    1.717    12 C    1.124    31 H    0.975
    11   7 N    3.026 --    12 C    1.353     8 C    1.277
    12   6 C    3.909 --    11 N    1.353    13 C    1.251    10 C    1.124
    13   6 C    3.941 --    14 C    1.253    12 C    1.251    76 C    1.193
    14   6 C    3.885 --    13 C    1.253    15 C    1.245    18 N    1.192
    15   6 C    3.959 --    16 C    1.589    14 C    1.245    32 H    0.975
    16   6 C    3.953 --    15 C    1.589    17 C    1.233    33 H    0.977
    17   6 C    3.899 --    19 C    1.349    16 C    1.233    18 N    1.162
    18   7 N    3.476 --    14 C    1.192    17 C    1.162    34 H    0.873
    19   6 C    3.929 --    20 C    1.364    17 C    1.349    35 H    0.971
    20   6 C    3.930 --    19 C    1.364    24 N    1.308    21 C    1.112
    21   6 C    3.967 --    22 C    1.729    20 C    1.112    36 H    0.976
    22   6 C    3.966 --    21 C    1.729    23 C    1.113    37 H    0.976
    23   6 C    3.929 --     1 C    1.363    24 N    1.308    22 C    1.113
    24   7 N    3.015 --    20 C    1.308    23 C    1.308
    25   1 H    1.002 --     1 C    0.972
    26   1 H    0.998 --     3 C    0.977
    27   1 H    0.998 --     4 C    0.977
    28   1 H    0.986 --     6 N    0.873
    29   1 H    1.002 --     7 C    0.971
    30   1 H    0.998 --     9 C    0.976
    31   1 H    1.003 --    10 C    0.975
    32   1 H    1.002 --    15 C    0.975
    33   1 H    0.998 --    16 C    0.977
    34   1 H    0.987 --    18 N    0.873
    35   1 H    1.002 --    19 C    0.971
    36   1 H    0.998 --    21 C    0.976
    37   1 H    0.998 --    22 C    0.976
    38   6 C    3.929 --    60 C    1.363    39 C    1.349    62 H    0.972
    39   6 C    3.903 --    38 C    1.349    40 C    1.225    43 N    1.172
    40   6 C    3.954 --    41 C    1.602    39 C    1.225    63 H    0.977
    41   6 C    3.958 --    40 C    1.602    42 C    1.227    64 H    0.977
    42   6 C    3.897 --    44 C    1.342    41 C    1.227    43 N    1.174
    43   7 N    3.471 --    42 C    1.174    39 C    1.172    65 H    0.873
    44   6 C    3.944 --    45 C    1.379    42 C    1.342    66 H    0.971
    45   6 C    3.915 --    44 C    1.379    48 N    1.277    46 C    1.119
    46   6 C    3.965 --    47 C    1.717    45 C    1.119    67 H    0.976
    47   6 C    3.964 --    46 C    1.717    49 C    1.124    68 H    0.975
    48   7 N    3.026 --    49 C    1.353    45 C    1.277
    49   6 C    3.909 --    48 N    1.353    50 C    1.251    47 C    1.124
    50   6 C    3.941 --    51 C    1.253    49 C    1.251    82 C    1.193
    51   6 C    3.885 --    50 C    1.253    52 C    1.245    55 N    1.192
    52   6 C    3.959 --    53 C    1.589    51 C    1.245    69 H    0.975
    53   6 C    3.953 --    52 C    1.589    54 C    1.233    70 H    0.977
    54   6 C    3.899 --    56 C    1.349    53 C    1.233    55 N    1.162
    55   7 N    3.476 --    51 C    1.192    54 C    1.162    71 H    0.873
    56   6 C    3.929 --    57 C    1.364    54 C    1.349    72 H    0.971
    57   6 C    3.930 --    56 C    1.364    61 N    1.308    58 C    1.112
    58   6 C    3.967 --    59 C    1.729    57 C    1.112    73 H    0.976
    59   6 C    3.966 --    58 C    1.729    60 C    1.113    74 H    0.976
    60   6 C    3.929 --    38 C    1.363    61 N    1.308    59 C    1.113
    61   7 N    3.015 --    57 C    1.308    60 C    1.308
    62   1 H    1.002 --    38 C    0.972
    63   1 H    0.998 --    40 C    0.977
    64   1 H    0.998 --    41 C    0.977
    65   1 H    0.986 --    43 N    0.873
    66   1 H    1.002 --    44 C    0.971
    67   1 H    0.998 --    46 C    0.976
    68   1 H    1.003 --    47 C    0.975
    69   1 H    1.002 --    52 C    0.975
    70   1 H    0.998 --    53 C    0.977
    71   1 H    0.987 --    55 N    0.873
    72   1 H    1.002 --    56 C    0.971
    73   1 H    0.998 --    58 C    0.976
    74   1 H    0.998 --    59 C    0.976
    75   6 C    3.933 --    76 C    2.471    77 C    1.312
    76   6 C    3.924 --    75 C    2.471    13 C    1.193    78 C    0.199
    77   6 C    3.930 --    78 C    2.469    75 C    1.312
    78   6 C    3.925 --    77 C    2.469    83 C    1.196    76 C    0.199
    79   6 C    3.930 --    80 C    2.469    81 C    1.312
    80   6 C    3.925 --    79 C    2.469    95 C    1.196    82 C    0.199
    81   6 C    3.933 --    82 C    2.471    79 C    1.312
    82   6 C    3.923 --    81 C    2.471    50 C    1.193    80 C    0.199
    83   6 C    3.928 --   105 C    1.251    84 C    1.248    78 C    1.196
    84   6 C    3.886 --    85 C    1.250    83 C    1.248    88 N    1.193
    85   6 C    3.956 --    86 C    1.582    84 C    1.250   107 H    0.975
    86   6 C    3.954 --    85 C    1.582    87 C    1.239   108 H    0.977
    87   6 C    3.894 --    89 C    1.338    86 C    1.239    88 N    1.164
    88   7 N    3.472 --    84 C    1.193    87 C    1.164   109 H    0.873
    89   6 C    3.931 --    90 C    1.382    87 C    1.338   110 H    0.971
    90   6 C    3.918 --    89 C    1.382    93 N    1.275    91 C    1.119
    91   6 C    3.965 --    92 C    1.716    90 C    1.119   111 H    0.976
    92   6 C    3.963 --    91 C    1.716    94 C    1.125   112 H    0.975
    93   7 N    3.013 --    94 C    1.353    90 C    1.275
    94   6 C    3.910 --    93 N    1.353    95 C    1.251    92 C    1.125
    95   6 C    3.927 --    94 C    1.251    96 C    1.249    80 C    1.196
    96   6 C    3.886 --    97 C    1.250    95 C    1.249   100 N    1.193
    97   6 C    3.956 --    98 C    1.582    96 C    1.250   113 H    0.975
    98   6 C    3.954 --    97 C    1.582    99 C    1.239   114 H    0.977
    99   6 C    3.894 --   101 C    1.338    98 C    1.239   100 N    1.164
   100   7 N    3.472 --    96 C    1.193    99 C    1.164   115 H    0.873
   101   6 C    3.931 --   102 C    1.382    99 C    1.338   116 H    0.971
   102   6 C    3.918 --   101 C    1.382   106 N    1.275   103 C    1.119
   103   6 C    3.965 --   104 C    1.716   102 C    1.119   117 H    0.976
   104   6 C    3.963 --   103 C    1.716   105 C    1.125   118 H    0.975
   105   6 C    3.910 --   106 N    1.353    83 C    1.251   104 C    1.125
   106   7 N    3.013 --   105 C    1.353   102 C    1.275
   107   1 H    1.002 --    85 C    0.975
   108   1 H    0.998 --    86 C    0.977
   109   1 H    0.986 --    88 N    0.873
   110   1 H    1.002 --    89 C    0.971
   111   1 H    0.998 --    91 C    0.976
   112   1 H    1.002 --    92 C    0.975
   113   1 H    1.002 --    97 C    0.975
   114   1 H    0.998 --    98 C    0.977
   115   1 H    0.986 --   100 N    0.873
   116   1 H    1.002 --   101 C    0.971
   117   1 H    0.998 --   103 C    0.976
   118   1 H    1.002 --   104 C    0.975
 ---------------------------------------------------------------------------

           -------------------------------------------------
          | TOTAL ENERGY             -202.227539326456 Eh   |
          | GRADIENT NORM               0.000323623861 Eh/α |
          | HOMO-LUMO GAP               0.863167573009 eV   |
           -------------------------------------------------

 * finished run on 2022/07/26 at 14:19:36.940
