   * xtb version 6.5.1 (b24c23e) compiled by 'conda@728c89f4b128' on 2022-07-12
          program call               : xtb Ni_H_C8_2.xyz --gfn 1 --opt -T 48

   ID    Z sym.   atoms
    1   28 Ni     1, 37
    2    6 C      2-6, 8-11, 13-18, 20-24, 38-42, 44-47, 49-54, 56-60, 73-80
    3    7 N      7, 12, 19, 25, 43, 48, 55, 61
    4    1 H      26-36, 62-72
########################################################################
[WARNING] Please study the warnings concerning your input carefully
-1- prog_main_parseArguments: Unknown option '-T' provided
########################################################################

          :  Hamiltonian                  GFN1-xTB          :
 * total energy  :  -146.2486772 Eh     change       -0.4005585E-08 Eh
 * total energy  :  -146.7706554 Eh     change       -0.5219782E+00 Eh
 * total energy  :  -146.8709752 Eh     change       -0.1003198E+00 Eh
 * total energy  :  -146.9097417 Eh     change       -0.3876657E-01 Eh
 * total energy  :  -146.9222861 Eh     change       -0.1254441E-01 Eh
 * total energy  :  -146.9300727 Eh     change       -0.7786564E-02 Eh
 * total energy  :  -146.9352284 Eh     change       -0.5155683E-02 Eh
 * total energy  :  -146.9390060 Eh     change       -0.3777642E-02 Eh
 * total energy  :  -146.9411487 Eh     change       -0.2142711E-02 Eh
 * total energy  :  -146.9431472 Eh     change       -0.1998426E-02 Eh
 * total energy  :  -146.9461487 Eh     change       -0.1454551E-04 Eh
 * total energy  :  -146.9461578 Eh     change       -0.9120273E-05 Eh
 * total energy  :  -146.9461520 Eh     change        0.5780466E-05 Eh
 * total energy  :  -146.9461549 Eh     change       -0.2822639E-05 Eh
 * total energy  :  -146.9461256 Eh     change        0.2923231E-04 Eh
 * total energy  :  -146.9461619 Eh     change       -0.3629368E-04 Eh
 * total energy  :  -146.9461401 Eh     change        0.2182760E-04 Eh
 * total energy  :  -146.9461676 Eh     change       -0.2748175E-04 Eh
 * total energy  :  -146.9461698 Eh     change       -0.2211948E-05 Eh
   *** GEOMETRY OPTIMIZATION CONVERGED AFTER 28 ITERATIONS ***

 final structure:
================
80
 xtb: 6.5.1 (b24c23e)
Ni           5.24084979818190       -0.00532508254667       -0.00985342173960
C            1.82998469745209       -0.05690868826356       -0.04956415219350
C            2.50274618565582       -0.90430000706190       -0.90555138585570
C            1.84782597229700       -1.80276796028396       -1.81005655541226
C            2.82320747051794       -2.46183950227334       -2.47774504830905
C            4.07122619288488       -1.96481663224142       -1.97890647979699
N            3.86581355794439       -1.01008487152718       -1.01603427610650
C            5.30127005768168       -2.40502143813624       -2.42174073861747
C            6.50699861906916       -1.93570074177091       -1.94511739282979
C            7.77597829448573       -2.40494423941424       -2.41074027168238
C            8.71915748734319       -1.72271671070312       -1.71851352248535
N            6.66939930526627       -0.97294101689224       -0.97579681248822
C            8.02230906195476       -0.83976318218768       -0.83454594093798
C            8.67182115569082        0.03456118725305        0.04199505783637
C            7.97698487054808        0.89623077212004        0.89521105380962
C            8.62627196257211        1.79948483734730        1.79457169727219
C            7.64697465321206        2.46315055533084        2.45415108397006
C            6.40364583238787        1.96109320752464        1.95438175643471
N            6.61755095144912        0.99849169431047        0.99507239335120
C            5.17319506059339        2.39992026386202        2.39602875323952
C            3.96758836204610        1.92258096445155        1.92509978341728
C            2.69373630858269        2.38329938301590        2.39278772979413
C            1.75449371123205        1.69208094396902        1.70606715803475
C            2.45706253007199        0.81120510483179        0.82023738937657
N            3.81341827304836        0.95881435187120        0.96163124975627
H            0.74640942642559       -0.07334352064684       -0.06196445308895
H            0.77780410484882       -1.89940567720625       -1.90476451186880
H            2.72994244038970       -3.21846623641989       -3.24069121183774
H            5.32220814480537       -3.16847956914469       -3.19083404719765
H            7.90714916434406       -3.15966312655399       -3.16972077290291
H            9.79256606264910       -1.79642346713953       -1.78724570625534
H            9.69534645491142        1.89839528541634        1.89375930353012
H            7.73740496521774        3.22465707768651        3.21235405638780
H            5.15278653834739        3.16674144588820        3.16180608325865
H            2.55960910685405        3.13935839877663        3.15018545289299
H            0.68010401083032        1.75625589568412        1.77572694206821
Ni          23.84550392017423        0.00670727146757        0.00165823956704
C           27.25651443008071        0.07482750115243       -0.00439299432746
C           26.58238712765460        1.27696682013148       -0.06575031630559
C           27.23589306187908        2.55098187107430       -0.12984265887182
C           26.25947041174486        3.48688367698991       -0.17691424135991
C           25.01223239666089        2.78221622981510       -0.14121557960897
N           25.21913148225905        1.42816763217565       -0.07314364921037
C           23.78151992658284        3.40464307206186       -0.17023817731679
C           22.57650791476661        2.73539752666106       -0.13477663980033
C           21.30676754067336        3.39439309750786       -0.16342508251662
C           20.36468015623397        2.42269110920866       -0.11351628082981
N           22.41563891094940        1.37068823404555       -0.06788022304827
C           21.06295281224937        1.17543890024822       -0.05526669231571
C           20.41473841499414       -0.06186996348209        0.00328953673966
C           21.11085928325892       -1.27265645470689        0.05647158350687
C           20.46302082059588       -2.54666296154296        0.11571681262302
C           21.44338632917147       -3.48016656799172        0.16029289308533
C           22.68589916878161       -2.77109211570661        0.12823524042354
N           22.47044955822295       -1.41387065880552        0.06393869839230
C           23.91705897695860       -3.39139014060635        0.16092042946345
C           25.12191138307173       -2.72014182399343        0.13116330888005
C           26.39645702226770       -3.37434922140153        0.16606457105086
C           27.33466505883287       -2.40010855266657        0.11968550584763
C           26.63075595343827       -1.15320795496316        0.05655139817067
N           25.27460674187780       -1.35881346590035        0.06486795162204
H           28.34006881955865        0.09642238813485       -0.00444999912583
H           28.30576881153289        2.68729370809250       -0.13660845098296
H           26.35156429041440        4.56014857354533       -0.23071650460212
H           23.75944043819673        4.48699459195911       -0.22355713411101
H           21.17438840039540        4.46335593451596       -0.21495667355823
H           19.29113634299709        2.52210884547974       -0.11566321279137
H           19.39412547119818       -2.68789000399930        0.12160943995870
H           21.35413208256053       -4.55366416563290        0.21095801047027
H           23.93870033627339       -4.47380076776167        0.21346916357984
H           26.53169057022410       -4.44306326709203        0.21924429315798
H           28.40915953918297       -2.49338298396782        0.12635480859123
C           10.07690008725522        0.04327756546726        0.06153880054275
C           11.30077066519896        0.02793995348933        0.06375487942574
C           12.64423676670935        0.00829163126427        0.06421783258169
C           13.87399714335249       -0.02103069485191        0.05349082443031
C           15.21248129849360       -0.04711475500500        0.04208183069286
C           16.44229043713618       -0.07175139527231        0.02995196894312
C           17.78579859940103       -0.08180394047845        0.01871460378761
C           19.00965830474070       -0.08325597759086        0.01219364232815

          :  Hamiltonian                  GFN1-xTB          :
         :: total energy            -146.946169795583 Eh    ::
         :: gradient norm              0.000959255537 Eh/a0 ::
         :: HOMO-LUMO gap              1.320890228655 eV    ::
         :: SCC energy              -149.376628504659 Eh    ::
         :: repulsion energy           2.497149826070 Eh    ::

    * Orbital Energies and Occupations

         #    Occupation            Energy/Eh            Energy/eV
      -------------------------------------------------------------
         1        2.0000           -0.7817248             -21.2718
       ...           ...                  ...                  ...
       125        2.0000           -0.4122288             -11.2173
       126        2.0000           -0.3994695             -10.8701
       127        2.0000           -0.3994685             -10.8701
       128        2.0000           -0.3992616             -10.8645
       129        2.0000           -0.3992610             -10.8644
       130        2.0000           -0.3983245             -10.8390
       131        2.0000           -0.3983228             -10.8389
       132        2.0000           -0.3974005             -10.8138
       133        2.0000           -0.3974001             -10.8138
       134        2.0000           -0.3972770             -10.8105
       135        2.0000           -0.3972764             -10.8104
       136        2.0000           -0.3947733             -10.7423
       137        2.0000           -0.3884028             -10.5690 (HOMO)
       138                         -0.3398610              -9.2481 (LUMO)
       139                         -0.3331232              -9.0647
       140                         -0.3305165              -8.9938
       141                         -0.3305158              -8.9938
       142                         -0.3302398              -8.9863
       143                         -0.3302385              -8.9862
       144                         -0.3031133              -8.2481
       145                         -0.3023708              -8.2279
       146                         -0.2896706              -7.8823
       147                         -0.2776596              -7.5555
       148                         -0.2329719              -6.3395
       ...                                ...                  ...
       286                          1.6050401              43.6754
      -------------------------------------------------------------
                  HL-Gap            0.0485418 Eh            1.3209 eV

Wiberg/Mayer (AO) data.
largest (>0.10) Wiberg bond orders for each atom

     #   Z sym  total        # sym  WBO       # sym  WBO       # sym  WBO
 ---------------------------------------------------------------------------
     1  28 Ni   3.011 --    25 N    0.665     7 N    0.664    12 N    0.661
                            19 N    0.661
     2   6 C    3.940 --    24 C    1.365     3 C    1.365    26 H    0.970
     3   6 C    3.923 --     2 C    1.365     7 N    1.218     4 C    1.170
     4   6 C    3.960 --     5 C    1.655     3 C    1.170    27 H    0.975
     5   6 C    3.962 --     4 C    1.655     6 C    1.171    28 H    0.975
     6   6 C    3.921 --     8 C    1.363     7 N    1.218     5 C    1.171
     7   7 N    3.406 --     3 C    1.218     6 C    1.218     1 Ni   0.664
     8   6 C    3.944 --     9 C    1.370     6 C    1.363    29 H    0.970
     9   6 C    3.916 --     8 C    1.370    12 N    1.202    10 C    1.177
    10   6 C    3.958 --    11 C    1.643     9 C    1.177    30 H    0.975
    11   6 C    3.961 --    10 C    1.643    13 C    1.186    31 H    0.973
    12   7 N    3.410 --    13 C    1.244     9 C    1.202     1 Ni   0.661
    13   6 C    3.903 --    14 C    1.263    12 N    1.244    11 C    1.186
    14   6 C    3.949 --    15 C    1.265    13 C    1.263    73 C    1.183
    15   6 C    3.903 --    14 C    1.265    19 N    1.244    16 C    1.186
    16   6 C    3.961 --    17 C    1.643    15 C    1.186    32 H    0.973
    17   6 C    3.958 --    16 C    1.643    18 C    1.177    33 H    0.975
    18   6 C    3.916 --    20 C    1.369    19 N    1.202    17 C    1.177
    19   7 N    3.410 --    15 C    1.244    18 C    1.202     1 Ni   0.661
    20   6 C    3.944 --    18 C    1.369    21 C    1.363    34 H    0.970
    21   6 C    3.921 --    20 C    1.363    25 N    1.218    22 C    1.171
    22   6 C    3.962 --    23 C    1.655    21 C    1.171    35 H    0.975
    23   6 C    3.960 --    22 C    1.655    24 C    1.170    36 H    0.975
    24   6 C    3.923 --     2 C    1.365    25 N    1.218    23 C    1.170
    25   7 N    3.406 --    24 C    1.218    21 C    1.218     1 Ni   0.665
    26   1 H    1.000 --     2 C    0.970
    27   1 H    0.998 --     4 C    0.975
    28   1 H    0.997 --     5 C    0.975
    29   1 H    1.000 --     8 C    0.970
    30   1 H    0.997 --    10 C    0.975
    31   1 H    1.002 --    11 C    0.973
    32   1 H    1.001 --    16 C    0.973
    33   1 H    0.997 --    17 C    0.975
    34   1 H    1.000 --    20 C    0.970
    35   1 H    0.997 --    22 C    0.975
    36   1 H    0.998 --    23 C    0.975
    37  28 Ni   3.011 --    61 N    0.665    43 N    0.664    48 N    0.661
                            55 N    0.661
    38   6 C    3.940 --    60 C    1.365    39 C    1.365    62 H    0.970
    39   6 C    3.923 --    38 C    1.365    43 N    1.218    40 C    1.170
    40   6 C    3.960 --    41 C    1.655    39 C    1.170    63 H    0.975
    41   6 C    3.962 --    40 C    1.655    42 C    1.171    64 H    0.975
    42   6 C    3.921 --    44 C    1.363    43 N    1.218    41 C    1.171
    43   7 N    3.406 --    39 C    1.218    42 C    1.218    37 Ni   0.664
    44   6 C    3.944 --    45 C    1.370    42 C    1.363    65 H    0.970
    45   6 C    3.916 --    44 C    1.370    48 N    1.202    46 C    1.177
    46   6 C    3.958 --    47 C    1.643    45 C    1.177    66 H    0.975
    47   6 C    3.961 --    46 C    1.643    49 C    1.186    67 H    0.973
    48   7 N    3.410 --    49 C    1.244    45 C    1.202    37 Ni   0.661
    49   6 C    3.903 --    50 C    1.263    48 N    1.244    47 C    1.186
    50   6 C    3.949 --    51 C    1.265    49 C    1.263    80 C    1.183
    51   6 C    3.903 --    50 C    1.265    55 N    1.244    52 C    1.186
    52   6 C    3.961 --    53 C    1.643    51 C    1.186    68 H    0.973
    53   6 C    3.958 --    52 C    1.643    54 C    1.177    69 H    0.975
    54   6 C    3.916 --    56 C    1.369    55 N    1.202    53 C    1.177
    55   7 N    3.410 --    51 C    1.244    54 C    1.202    37 Ni   0.661
    56   6 C    3.944 --    54 C    1.369    57 C    1.363    70 H    0.970
    57   6 C    3.921 --    56 C    1.363    61 N    1.218    58 C    1.171
    58   6 C    3.962 --    59 C    1.655    57 C    1.171    71 H    0.975
    59   6 C    3.960 --    58 C    1.655    60 C    1.170    72 H    0.975
    60   6 C    3.923 --    38 C    1.365    61 N    1.218    59 C    1.170
    61   7 N    3.406 --    60 C    1.218    57 C    1.218    37 Ni   0.665
    62   1 H    1.000 --    38 C    0.970
    63   1 H    0.998 --    40 C    0.975
    64   1 H    0.997 --    41 C    0.975
    65   1 H    1.000 --    44 C    0.970
    66   1 H    0.997 --    46 C    0.975
    67   1 H    1.002 --    47 C    0.973
    68   1 H    1.002 --    52 C    0.973
    69   1 H    0.997 --    53 C    0.975
    70   1 H    1.000 --    56 C    0.970
    71   1 H    0.997 --    58 C    0.975
    72   1 H    0.998 --    59 C    0.975
    73   6 C    3.878 --    74 C    2.448    14 C    1.183    76 C    0.188
    74   6 C    3.939 --    73 C    2.448    75 C    1.339
    75   6 C    3.894 --    76 C    2.344    74 C    1.339    78 C    0.183
    76   6 C    3.928 --    75 C    2.344    77 C    1.364    73 C    0.188
    77   6 C    3.928 --    78 C    2.344    76 C    1.364    80 C    0.187
    78   6 C    3.894 --    77 C    2.344    79 C    1.338    75 C    0.183
    79   6 C    3.939 --    80 C    2.448    78 C    1.338
    80   6 C    3.878 --    79 C    2.448    50 C    1.183    77 C    0.187
 ---------------------------------------------------------------------------

           -------------------------------------------------
          | TOTAL ENERGY             -146.946169795583 Eh   |
          | GRADIENT NORM               0.000959255537 Eh/α |
          | HOMO-LUMO GAP               1.320890228655 eV   |
           -------------------------------------------------

 * finished run on 2022/07/30 at 02:14:24.548
