   * xtb version 6.5.1 (b24c23e) compiled by 'conda@728c89f4b128' on 2022-07-12
          program call               : xtb PhNH2_C8_3.xyz --gfn 1 --opt -T 48

   ID    Z sym.   atoms
    1    6 C      1-5, 7-11, 13-17, 19-24, 26-30, 32-37, 62-66, 68-72, 74-78,
                  80-85, 87-91, 93-98, 123-143, 145-149, 151-155, 157-162,
                  164-168, 170-175
    2    7 N      6, 12, 18, 25, 31, 38, 67, 73, 79, 86, 92, 99, 144, 150,
                  156, 163, 169, 176
    3    1 H      39-61, 100-122, 177-198

          :  Hamiltonian                  GFN1-xTB          :
 * total energy  :  -329.3588576 Eh     change       -0.2086551E-08 Eh
 * total energy  :  -329.8138877 Eh     change       -0.4550301E+00 Eh
 * total energy  :  -329.9768893 Eh     change       -0.1630016E+00 Eh
 * total energy  :  -330.0490520 Eh     change       -0.7216266E-01 Eh
 * total energy  :  -330.0948369 Eh     change       -0.4578497E-01 Eh
 * total energy  :  -330.1459383 Eh     change       -0.5110139E-01 Eh
 * total energy  :  -330.2031130 Eh     change       -0.5717463E-01 Eh
 * total energy  :  -330.2489754 Eh     change       -0.4586245E-01 Eh
 * total energy  :  -330.2835712 Eh     change       -0.3459581E-01 Eh
 * total energy  :  -330.3044853 Eh     change       -0.2091408E-01 Eh
 * total energy  :  -330.4895327 Eh     change       -0.1862320E-05 Eh
 * total energy  :  -330.4895162 Eh     change        0.1649411E-04 Eh
 * total energy  :  -330.4895400 Eh     change       -0.2384733E-04 Eh
 * total energy  :  -330.4894880 Eh     change        0.5202564E-04 Eh
 * total energy  :  -330.4895409 Eh     change       -0.5295455E-04 Eh
 * total energy  :  -330.4895089 Eh     change        0.3208781E-04 Eh
 * total energy  :  -330.4894973 Eh     change        0.1152903E-04 Eh
 * total energy  :  -330.4895505 Eh     change       -0.5317113E-04 Eh
 * total energy  :  -330.4895529 Eh     change       -0.2392386E-05 Eh
   *** GEOMETRY OPTIMIZATION CONVERGED AFTER 76 ITERATIONS ***

 final structure:
================
198
 xtb: 6.5.1 (b24c23e)
C           23.10847442959485       -0.13556757118837        0.02763150752538
C           23.72412158866525       -0.99918383557721        0.92493499282250
C           23.07906279373876       -1.91336661646064        1.80391219310942
C           24.04527813239573       -2.55847501552292        2.52422161824521
C           25.31130425078034       -2.05202182033001        2.11520547243681
N           25.06723844133726       -1.12330956214009        1.14334542902182
C           26.57646657643066       -2.42702139674404        2.58426310070446
C           26.61644011211508       -3.43063947546953        3.67387547364050
C           27.27927438706406       -4.64779523028147        3.49673843374833
C           27.32045747091468       -5.58756774819452        4.51106978347371
C           26.70872492851277       -5.32156251126490        5.73892598392260
N           26.71706535048504       -6.27358786609066        6.74344676588021
C           26.03802148821534       -4.10953037222844        5.92198288650201
C           25.99284135469185       -3.17947464541953        4.89850122599904
C           27.78623714854266       -1.92354622939340        2.09961306132048
C           29.08596810671180       -2.27675747051708        2.64088984142393
C           30.00016075294510       -1.60204640746972        1.91302585159402
N           27.93250644681545       -1.03233662735297        1.07983155552348
C           29.25711985023914       -0.82854005834491        0.93768507204878
C           29.88743631110673        0.00255636071522       -0.01173008243940
C           29.24604542537614        0.83215181745633       -0.95159962668799
C           29.88538881212360        1.65220474967920       -1.91827394236257
C           28.91459187180539        2.31391190903951       -2.61847175349216
C           27.65151979165203        1.92342427020418       -2.09429318197017
N           27.90413741999376        1.01929939543665       -1.09576484143629
C           26.38740859948044        2.34767242181772       -2.51908630717327
C           26.34998466330676        3.37324141467354       -3.58708604116481
C           25.70659111061673        3.11819635069667       -4.80086977117008
C           25.67354203968232        4.07341416403765       -5.80102051524927
C           26.27363363213126        5.31938804276166       -5.60140997567693
N           26.27571757333026        6.26336567648127       -6.61324127930505
C           26.92344273652906        5.58092624741030       -4.39238271904131
C           26.96073468579214        4.61624440091472       -3.40148646700048
C           25.17508293345245        1.87158686434019       -2.00577159134312
C           23.86615101473470        2.35383704954209       -2.41692621895145
C           22.95912409890921        1.65051209408990       -1.70874956191351
C           23.71285072341763        0.75107491209949       -0.85396960220119
N           25.04361931959964        0.91793487591516       -1.05357128933180
H           22.02323701441251       -0.15964184142993        0.02601262711619
H           22.01158149553065       -2.05461253304862        1.86327349743691
H           23.89958353938085       -3.32600153965496        3.26696486065328
H           25.78944551929072       -0.60743049972641        0.65186141468940
H           27.74970528273844       -4.86489462893303        2.54401490271517
H           27.82935227182533       -6.53297613291347        4.35775877446993
H           26.56512640414584       -5.91404832071878        7.67225377796031
H           27.46420234499054       -6.94707516770861        6.68528757798922
H           25.55819399768999       -3.89859495205819        6.87149957944112
H           25.48816115543394       -2.23252153882159        5.05643596462230
H           29.25483317587022       -2.93876387916628        3.47469760523679
H           31.07372732386929       -1.60248854132090        2.01393249665795
H           30.95263028343058        1.71659606091289       -2.05684499868776
H           29.05793297466538        3.00230680189843       -3.43528719273803
H           27.18463119306888        0.55272695278287       -0.55332615201973
H           25.24780910168197        2.14994995423911       -4.96813547877179
H           25.18141358174772        3.85893016950865       -6.74337584245191
H           25.54106598806009        6.15983244911914       -7.29475150952935
H           26.41892535407055        7.21322246676471       -6.30983392115520
H           27.39402398803343        6.54481725880471       -4.23244541483179
H           27.44996871999803        4.83487689670348       -2.45847130232126
H           23.68918840466148        3.13472348296279       -3.13899405100608
H           21.88269871729367        1.72003411702438       -1.73198198890658
C           66.98938556174211        0.00112665537648       -0.13883962151511
C           66.36815180755063        0.67028267605505       -1.18588142683165
C           67.00802399950229        1.32234474194517       -2.27665683310180
C           66.03726571347330        1.86590105858961       -3.07085962790874
C           64.77341766582676        1.57108740343549       -2.48571473198983
N           65.02345192448105        0.84095280386383       -1.35837025417643
C           63.50520899565127        1.92719222946743       -2.96131972285280
C           63.45940533378306        2.75925902030654       -4.18677373322524
C           62.80518786136185        2.30373235979509       -5.33418727788453
C           62.75823929740941        3.07883237431921       -6.47911795300109
C           63.35548067110393        4.34199612028041       -6.49603813022086
N           63.34136599545454        5.10528937959542       -7.65049778771706
C           64.01801535863244        4.80199610544082       -5.35509400081164
C           64.06888511834883        4.01599329902165       -4.21752106307156
C           62.29813750200946        1.55680271637071       -2.36332719081511
C           60.99426004594436        1.98412313577702       -2.83694506133452
C           60.08472772084085        1.42232937958847       -2.01362219300599
N           62.15855046648847        0.77129243743952       -1.25910934878046
C           60.83461202747011        0.66523402378606       -1.03061967233889
C           60.21049123801457       -0.06325438355848        0.00354136381630
C           60.85775177242076       -0.77025541990412        1.03506830818125
C           60.22445571520007       -1.51859981946642        2.06201612075091
C           61.19964088916002       -2.03682209279008        2.86885903057375
C           62.45948581754378       -1.61340604907062        2.36273500665831
N           62.20053861346734       -0.85794733101363        1.24891919889556
C           63.72633027734683       -1.92108252372127        2.87141173124654
C           63.77096019811621       -2.72050398100945        4.11757438028140
C           64.41892462485846       -3.95798756443966        4.14977924813974
C           64.45909039874448       -4.70798597662348        5.31153628221886
C           63.86173131540484       -4.22572381455468        6.47906033270624
N           63.86675226854806       -4.98977454495397        7.63284108198508
C           63.20742160921378       -2.99132392747388        6.45428660819337
C           63.16300003433292       -2.25255680888480        5.28544327776571
C           64.93543168771942       -1.52686009087446        2.28616475144515
C           66.24688997564678       -1.80748598254026        2.84850844673419
C           67.14950297579193       -1.27570090290945        1.99918444512630
C           66.39049504394511       -0.65691240372216        0.92739904784846
N           65.06100403633700       -0.82101171937508        1.13750915547320
H           68.07464664968084        0.00310279197843       -0.16188061864462
H           68.07538550281632        1.35837468607532       -2.42647683233279
H           66.17852161945291        2.41416662460122       -3.98816186851347
H           64.30415407011861        0.47407552886136       -0.74412325627612
H           62.34621830109540        1.32115272212865       -5.33165655450362
H           62.25600063418038        2.70989151779364       -7.36675699339663
H           63.48180008423180        6.09295427171705       -7.50954853979615
H           62.59794168883335        4.88826742437645       -8.29500749897004
H           64.48690156155023        5.77994957388789       -5.36311950814988
H           64.56698987053670        4.38966892301958       -3.32945892382035
H           60.81932930373065        2.63796364139287       -3.67593447450994
H           59.01012367245588        1.50708835839892       -2.04071396936443
H           59.15805869397448       -1.64395608679030        2.15922772944211
H           61.06142186073853       -2.66822703371189        3.73131717878928
H           62.91664745526649       -0.43763682373554        0.66568923825529
H           64.87562349924681       -4.34453719786179        3.24542162651173
H           64.95446891563523       -5.67272303023808        5.32047132284028
H           64.60386318611955       -5.67435929263982        7.68795814465032
H           63.72514738773521       -4.47372562338217        8.48665016217458
H           62.73893738818756       -2.61289039770514        7.35624777508677
H           62.67029617949349       -1.28629975817065        5.28024936028557
H           66.42832575806801       -2.32825960927991        3.77498741533796
H           68.22602771026014       -1.27557682475167        2.07071726362077
C           31.29192760361934        0.01669602433437       -0.02692755236338
C           32.51682972882929        0.02277459016190       -0.04007007234140
C           33.85865080525976        0.02555000118030       -0.04709097947230
C           35.08973313204287        0.02388506922661       -0.04859452529701
C           36.42678758305019        0.01926554052261       -0.04564771828040
C           37.65788360829450        0.01620277088942       -0.03739428353033
C           38.99946378249640        0.01618952551325       -0.02709278755868
C           40.22465671199939        0.01512329960613       -0.02793629536568
C           49.87384412147193       -0.07491756577935       -0.01607188649682
C           51.09887246039630       -0.09480667085569       -0.01251540197060
C           52.44033038526049       -0.11138387137459       -0.00339845032340
C           53.67141169465568       -0.12056392108230        0.00738426322576
C           55.00844378025117       -0.12502554339881        0.01290464995667
C           56.23952537114081       -0.11923673172609        0.02229394147069
C           57.58129706416974       -0.10591284525299        0.02312804785830
C           58.80613697676517       -0.08746440574758        0.01912732699121
C           41.62830471614637        0.01987926642664       -0.02084595108557
C           42.24841482972086       -0.28178373623092        1.20769896944346
C           41.59143056312815       -0.60877247968441        2.42155447528075
C           42.54918775871709       -0.79548747558172        3.38122264957682
C           43.81905953279939       -0.58079067036762        2.78103195994426
N           43.58672986551404       -0.28522006389614        1.46395718123327
C           45.07409776846264       -0.66720250294487        3.39801334419535
C           45.07867301722288       -0.93301808393890        4.85593595261258
C           45.71575024337289       -2.06261700591274        5.37582757950141
C           45.72305629850567       -2.30942801363086        6.73701415231223
C           45.10264258317000       -1.41707485374350        7.61540314141846
N           45.07710170773526       -1.67888169242106        8.97379098783374
C           44.45716928937572       -0.28863622187464        7.10300366604270
C           44.44566460542396       -0.05488883315807        5.73952045565647
C           46.30096173037420       -0.51901054814867        2.74764115220250
C           47.58579772131989       -0.56070483967889        3.42177761173901
C           48.52501399941009       -0.39891492757086        2.46642542829895
N           46.48037200984599       -0.30777636897822        1.41407141963800
C           47.81197704187256       -0.24201617498537        1.21472124945820
C           48.47043621470517       -0.04764882304410       -0.01688853769695
C           47.84985500603106        0.18727606307237       -1.25964429770982
C           48.50555401026124        0.36523770805036       -2.50479322962435
C           47.54816318349691        0.59575873725712       -3.45524301520591
C           46.27995876787749        0.57299443540564       -2.81480953275405
N           46.51266620911691        0.31090571568096       -1.49068656916595
C           45.02569203727022        0.76280484885792       -3.40971342516404
C           45.02011799132868        1.09698533405435       -4.85349501142224
C           45.67134879894973        2.24126451398403       -5.32137322781376
C           45.65900281379160        2.56528767911228       -6.66630797863677
C           44.99437574703592        1.74266417274229       -7.57964486951387
N           45.01885335133509        2.03798114569133       -8.93111235267022
C           44.35513810757433        0.58729903382152       -7.12208851191317
C           44.36342152936302        0.27635144905431       -5.77417022564241
C           43.79948262887618        0.66264624215991       -2.74887900045038
C           42.51691118768819        0.92087289840654       -3.37764677610925
C           41.57712109702206        0.70464940869324       -2.43368300404311
C           42.28788224830016        0.33086098150926       -1.22755951450479
N           43.61881495319884        0.32478474759565       -1.44189556096407
H           40.52282990430755       -0.69244795775333        2.53676323215008
H           42.39130877211841       -1.07025182820724        4.41131158938921
H           44.31363906643712       -0.10254475590811        0.78014143562078
H           46.19176789189162       -2.76479118614554        4.70025189590326
H           46.21189000242433       -3.19527199320867        7.12752080355704
H           45.80888002311926       -2.28706734643321        9.30486005566500
H           44.91868355631355       -0.87514887629661        9.56020061220312
H           43.97016430539413        0.40570058253044        7.77900188993205
H           43.95997209419588        0.83411371770747        5.35194677094606
H           47.72951304252539       -0.68204648472882        4.48319122616338
H           49.59752672092331       -0.37174683664358        2.57461044343608
H           49.57298389085305        0.31636061412262       -2.64769309040003
H           47.70504215838829        0.75503758240940       -4.50953530663793
H           45.78653077520186        0.21502071070910       -0.78862033317235
H           46.17220589085839        2.89616442137788       -4.61660216386341
H           46.16039248333514        3.46136710288083       -7.01550071429941
H           44.27737578431984        1.62265525338452       -9.47213413575630
H           45.19350080609539        3.00491025205657       -9.15358119583838
H           43.85102280690103       -0.06333649703736       -7.82829420413536
H           43.87251140677849       -0.62671597007740       -5.42841260380638
H           42.37539305547320        1.23874684200900       -4.39789251828706
H           40.50582582993047        0.79444175917644       -2.51718082337093

          :  Hamiltonian                  GFN1-xTB          :
         :: total energy            -330.489552888751 Eh    ::
         :: gradient norm              0.000780537736 Eh/a0 ::
         :: HOMO-LUMO gap              0.844549354126 eV    ::
         :: SCC energy              -336.233877412817 Eh    ::
         :: repulsion energy           5.907614352400 Eh    ::

    * Orbital Energies and Occupations

         #    Occupation            Energy/Eh            Energy/eV
      -------------------------------------------------------------
         1        2.0000           -0.7979063             -21.7121
       ...           ...                  ...                  ...
       291        2.0000           -0.4004999             -10.8982
       292        2.0000           -0.3989769             -10.8567
       293        2.0000           -0.3985830             -10.8460
       294        2.0000           -0.3983545             -10.8398
       295        2.0000           -0.3968541             -10.7989
       296        2.0000           -0.3967608             -10.7964
       297        2.0000           -0.3965747             -10.7913
       298        2.0000           -0.3918518             -10.6628
       299        2.0000           -0.3910907             -10.6421
       300        2.0000           -0.3910845             -10.6420
       301        2.0000           -0.3772246             -10.2648
       302        2.0000           -0.3735185             -10.1640
       303        2.0000           -0.3685115             -10.0277 (HOMO)
       304        0.0000           -0.3374748              -9.1832 (LUMO)
       305                         -0.3298283              -8.9751
       306                         -0.3256764              -8.8621
       307                         -0.3232274              -8.7955
       308                         -0.3228920              -8.7863
       309                         -0.3228462              -8.7851
       310                         -0.3023110              -8.2263
       311                         -0.2945824              -8.0160
       312                         -0.2941861              -8.0052
       313                         -0.2900834              -7.8936
       314                         -0.2861046              -7.7853
       ...                                ...                  ...
       656                          1.6128035              43.8866
      -------------------------------------------------------------
                  HL-Gap            0.0310366 Eh            0.8445 eV

Wiberg/Mayer (AO) data.
largest (>0.10) Wiberg bond orders for each atom

     #   Z sym  total        # sym  WBO       # sym  WBO       # sym  WBO
 ---------------------------------------------------------------------------
     1   6 C    3.922 --    37 C    1.366     2 C    1.345    39 H    0.971
     2   6 C    3.903 --     1 C    1.345     3 C    1.232     6 N    1.169
     3   6 C    3.953 --     4 C    1.592     2 C    1.232    40 H    0.977
     4   6 C    3.959 --     3 C    1.592     5 C    1.238    41 H    0.974
     5   6 C    3.894 --     7 C    1.298     4 C    1.238     6 N    1.177
     6   7 N    3.469 --     5 C    1.177     2 C    1.169    42 H    0.873
     7   6 C    3.939 --    15 C    1.336     5 C    1.298     8 C    1.034
     8   6 C    3.988 --    14 C    1.381     9 C    1.380     7 C    1.034
     9   6 C    3.988 --    10 C    1.470     8 C    1.380    43 H    0.973
    10   6 C    3.990 --     9 C    1.470    11 C    1.353    44 H    0.972
    11   6 C    3.952 --    13 C    1.354    10 C    1.353    12 N    1.116
    12   7 N    3.134 --    11 C    1.116    45 H    0.933    46 H    0.933
    13   6 C    3.989 --    14 C    1.468    11 C    1.354    47 H    0.972
    14   6 C    3.987 --    13 C    1.468     8 C    1.381    48 H    0.973
    15   6 C    3.914 --     7 C    1.336    18 N    1.284    16 C    1.127
    16   6 C    3.966 --    17 C    1.707    15 C    1.127    49 H    0.974
    17   6 C    3.963 --    16 C    1.707    19 C    1.130    50 H    0.974
    18   7 N    3.021 --    19 C    1.346    15 C    1.284
    19   6 C    3.908 --    18 N    1.346    20 C    1.250    17 C    1.130
    20   6 C    3.935 --    19 C    1.250    21 C    1.249   123 C    1.195
    21   6 C    3.885 --    22 C    1.250    20 C    1.249    25 N    1.190
    22   6 C    3.959 --    23 C    1.581    21 C    1.250    51 H    0.975
    23   6 C    3.955 --    22 C    1.581    24 C    1.243    52 H    0.974
    24   6 C    3.897 --    26 C    1.308    23 C    1.243    25 N    1.163
    25   7 N    3.473 --    21 C    1.190    24 C    1.163    53 H    0.873
    26   6 C    3.925 --    34 C    1.317    24 C    1.308    27 C    1.036
    27   6 C    3.988 --    33 C    1.380    28 C    1.379    26 C    1.036
    28   6 C    3.987 --    29 C    1.469    27 C    1.379    54 H    0.973
    29   6 C    3.989 --    28 C    1.469    30 C    1.353    55 H    0.972
    30   6 C    3.951 --    32 C    1.353    29 C    1.353    31 N    1.116
    31   7 N    3.135 --    30 C    1.116    57 H    0.933    56 H    0.933
    32   6 C    3.989 --    33 C    1.469    30 C    1.353    58 H    0.972
    33   6 C    3.986 --    32 C    1.469    27 C    1.380    59 H    0.973
    34   6 C    3.927 --    38 N    1.319    26 C    1.317    35 C    1.120
    35   6 C    3.967 --    36 C    1.719    34 C    1.120    60 H    0.974
    36   6 C    3.966 --    35 C    1.719    37 C    1.119    61 H    0.976
    37   6 C    3.930 --     1 C    1.366    38 N    1.298    36 C    1.119
    38   7 N    3.011 --    34 C    1.319    37 C    1.298
    39   1 H    1.002 --     1 C    0.971
    40   1 H    0.998 --     3 C    0.977
    41   1 H    1.005 --     4 C    0.974
    42   1 H    0.986 --     6 N    0.873
    43   1 H    1.005 --     9 C    0.973
    44   1 H    0.998 --    10 C    0.972
    45   1 H    0.960 --    12 N    0.933
    46   1 H    0.960 --    12 N    0.933
    47   1 H    0.999 --    13 C    0.972
    48   1 H    1.005 --    14 C    0.973
    49   1 H    1.006 --    16 C    0.974
    50   1 H    1.003 --    17 C    0.974
    51   1 H    1.002 --    22 C    0.975
    52   1 H    1.005 --    23 C    0.974
    53   1 H    0.987 --    25 N    0.873
    54   1 H    1.005 --    28 C    0.973
    55   1 H    0.998 --    29 C    0.972
    56   1 H    0.960 --    31 N    0.933
    57   1 H    0.960 --    31 N    0.933
    58   1 H    0.998 --    32 C    0.972
    59   1 H    1.005 --    33 C    0.973
    60   1 H    1.006 --    35 C    0.974
    61   1 H    0.999 --    36 C    0.976
    62   6 C    3.922 --    98 C    1.366    63 C    1.345   100 H    0.971
    63   6 C    3.904 --    62 C    1.345    64 C    1.232    67 N    1.169
    64   6 C    3.953 --    65 C    1.592    63 C    1.232   101 H    0.977
    65   6 C    3.959 --    64 C    1.592    66 C    1.238   102 H    0.974
    66   6 C    3.894 --    68 C    1.298    65 C    1.238    67 N    1.177
    67   7 N    3.469 --    66 C    1.177    63 C    1.169   103 H    0.873
    68   6 C    3.939 --    76 C    1.336    66 C    1.298    69 C    1.034
    69   6 C    3.988 --    75 C    1.381    70 C    1.380    68 C    1.034
    70   6 C    3.988 --    71 C    1.469    69 C    1.380   104 H    0.973
    71   6 C    3.990 --    70 C    1.469    72 C    1.353   105 H    0.972
    72   6 C    3.952 --    74 C    1.354    71 C    1.353    73 N    1.116
    73   7 N    3.134 --    72 C    1.116   106 H    0.933   107 H    0.933
    74   6 C    3.989 --    75 C    1.468    72 C    1.354   108 H    0.972
    75   6 C    3.987 --    74 C    1.468    69 C    1.381   109 H    0.973
    76   6 C    3.914 --    68 C    1.336    79 N    1.284    77 C    1.127
    77   6 C    3.966 --    78 C    1.707    76 C    1.127   110 H    0.973
    78   6 C    3.963 --    77 C    1.707    80 C    1.130   111 H    0.974
    79   7 N    3.021 --    80 C    1.347    76 C    1.284
    80   6 C    3.908 --    79 N    1.347    81 C    1.250    78 C    1.130
    81   6 C    3.935 --    80 C    1.250    82 C    1.249   138 C    1.195
    82   6 C    3.885 --    83 C    1.250    81 C    1.249    86 N    1.190
    83   6 C    3.959 --    84 C    1.581    82 C    1.250   112 H    0.975
    84   6 C    3.955 --    83 C    1.581    85 C    1.243   113 H    0.974
    85   6 C    3.897 --    87 C    1.308    84 C    1.243    86 N    1.163
    86   7 N    3.473 --    82 C    1.190    85 C    1.163   114 H    0.873
    87   6 C    3.925 --    95 C    1.317    85 C    1.308    88 C    1.036
    88   6 C    3.988 --    94 C    1.380    89 C    1.379    87 C    1.036
    89   6 C    3.987 --    90 C    1.469    88 C    1.379   115 H    0.973
    90   6 C    3.989 --    89 C    1.469    91 C    1.353   116 H    0.972
    91   6 C    3.951 --    93 C    1.353    90 C    1.353    92 N    1.116
    92   7 N    3.135 --    91 C    1.116   118 H    0.933   117 H    0.933
    93   6 C    3.989 --    94 C    1.469    91 C    1.353   119 H    0.972
    94   6 C    3.986 --    93 C    1.469    88 C    1.380   120 H    0.973
    95   6 C    3.927 --    99 N    1.319    87 C    1.317    96 C    1.120
    96   6 C    3.967 --    97 C    1.719    95 C    1.120   121 H    0.974
    97   6 C    3.966 --    96 C    1.719    98 C    1.119   122 H    0.976
    98   6 C    3.930 --    62 C    1.366    99 N    1.298    97 C    1.119
    99   7 N    3.011 --    95 C    1.319    98 C    1.298
   100   1 H    1.002 --    62 C    0.971
   101   1 H    0.998 --    64 C    0.977
   102   1 H    1.005 --    65 C    0.974
   103   1 H    0.986 --    67 N    0.873
   104   1 H    1.005 --    70 C    0.973
   105   1 H    0.998 --    71 C    0.972
   106   1 H    0.961 --    73 N    0.933
   107   1 H    0.960 --    73 N    0.933
   108   1 H    0.999 --    74 C    0.972
   109   1 H    1.005 --    75 C    0.973
   110   1 H    1.006 --    77 C    0.973
   111   1 H    1.003 --    78 C    0.974
   112   1 H    1.002 --    83 C    0.975
   113   1 H    1.005 --    84 C    0.974
   114   1 H    0.987 --    86 N    0.873
   115   1 H    1.005 --    89 C    0.973
   116   1 H    0.998 --    90 C    0.972
   117   1 H    0.960 --    92 N    0.933
   118   1 H    0.960 --    92 N    0.933
   119   1 H    0.998 --    93 C    0.972
   120   1 H    1.005 --    94 C    0.973
   121   1 H    1.006 --    96 C    0.974
   122   1 H    0.999 --    97 C    0.976
   123   6 C    3.875 --   124 C    2.433    20 C    1.195   126 C    0.186
   124   6 C    3.931 --   123 C    2.433   125 C    1.348
   125   6 C    3.890 --   126 C    2.330   124 C    1.348   128 C    0.181
   126   6 C    3.923 --   125 C    2.330   127 C    1.373   123 C    0.186
   127   6 C    3.922 --   128 C    2.329   126 C    1.373   130 C    0.185
   128   6 C    3.891 --   127 C    2.329   129 C    1.349   125 C    0.181
   129   6 C    3.928 --   130 C    2.430   128 C    1.349
   130   6 C    3.876 --   129 C    2.430   139 C    1.198   127 C    0.185
   131   6 C    3.876 --   132 C    2.430   158 C    1.198   134 C    0.185
   132   6 C    3.928 --   131 C    2.430   133 C    1.349
   133   6 C    3.891 --   134 C    2.329   132 C    1.349   136 C    0.181
   134   6 C    3.922 --   133 C    2.329   135 C    1.373   131 C    0.185
   135   6 C    3.923 --   136 C    2.330   134 C    1.373   138 C    0.186
   136   6 C    3.890 --   135 C    2.330   137 C    1.348   133 C    0.181
   137   6 C    3.931 --   138 C    2.433   136 C    1.348
   138   6 C    3.875 --   137 C    2.433    81 C    1.195   135 C    0.186
   139   6 C    3.922 --   175 C    1.251   140 C    1.244   130 C    1.198
   140   6 C    3.886 --   141 C    1.255   139 C    1.244   144 N    1.190
   141   6 C    3.955 --   142 C    1.574   140 C    1.255   177 H    0.975
   142   6 C    3.956 --   141 C    1.574   143 C    1.249   178 H    0.974
   143   6 C    3.891 --   145 C    1.296   142 C    1.249   144 N    1.166
   144   7 N    3.470 --   140 C    1.190   143 C    1.166   179 H    0.874
   145   6 C    3.927 --   153 C    1.336   143 C    1.296   146 C    1.035
   146   6 C    3.988 --   152 C    1.380   147 C    1.379   145 C    1.035
   147   6 C    3.988 --   148 C    1.470   146 C    1.379   180 H    0.972
   148   6 C    3.989 --   147 C    1.470   149 C    1.353   181 H    0.972
   149   6 C    3.951 --   151 C    1.353   148 C    1.353   150 N    1.117
   150   7 N    3.135 --   149 C    1.117   183 H    0.933   182 H    0.933
   151   6 C    3.989 --   152 C    1.469   149 C    1.353   184 H    0.972
   152   6 C    3.987 --   151 C    1.469   146 C    1.380   185 H    0.973
   153   6 C    3.915 --   145 C    1.336   156 N    1.283   154 C    1.127
   154   6 C    3.966 --   155 C    1.706   153 C    1.127   186 H    0.973
   155   6 C    3.963 --   154 C    1.706   157 C    1.131   187 H    0.974
   156   7 N    3.008 --   157 C    1.345   153 C    1.283
   157   6 C    3.909 --   156 N    1.345   158 C    1.250   155 C    1.131
   158   6 C    3.922 --   157 C    1.250   159 C    1.244   131 C    1.198
   159   6 C    3.886 --   160 C    1.255   158 C    1.244   163 N    1.190
   160   6 C    3.955 --   161 C    1.574   159 C    1.255   188 H    0.975
   161   6 C    3.956 --   160 C    1.574   162 C    1.249   189 H    0.974
   162   6 C    3.892 --   164 C    1.296   161 C    1.249   163 N    1.166
   163   7 N    3.470 --   159 C    1.190   162 C    1.166   190 H    0.874
   164   6 C    3.927 --   172 C    1.336   162 C    1.296   165 C    1.035
   165   6 C    3.988 --   166 C    1.380   171 C    1.379   164 C    1.035
   166   6 C    3.987 --   167 C    1.469   165 C    1.380   191 H    0.973
   167   6 C    3.989 --   166 C    1.469   168 C    1.353   192 H    0.972
   168   6 C    3.951 --   167 C    1.353   170 C    1.353   169 N    1.117
   169   7 N    3.135 --   168 C    1.117   194 H    0.933   193 H    0.933
   170   6 C    3.989 --   171 C    1.470   168 C    1.353   195 H    0.972
   171   6 C    3.988 --   170 C    1.470   165 C    1.379   196 H    0.972
   172   6 C    3.915 --   164 C    1.336   176 N    1.284   173 C    1.127
   173   6 C    3.966 --   174 C    1.706   172 C    1.127   197 H    0.973
   174   6 C    3.963 --   173 C    1.706   175 C    1.131   198 H    0.974
   175   6 C    3.909 --   176 N    1.345   139 C    1.251   174 C    1.131
   176   7 N    3.008 --   175 C    1.345   172 C    1.284
   177   1 H    1.002 --   141 C    0.975
   178   1 H    1.005 --   142 C    0.974
   179   1 H    0.987 --   144 N    0.874
   180   1 H    1.005 --   147 C    0.972
   181   1 H    0.998 --   148 C    0.972
   182   1 H    0.960 --   150 N    0.933
   183   1 H    0.960 --   150 N    0.933
   184   1 H    0.998 --   151 C    0.972
   185   1 H    1.005 --   152 C    0.973
   186   1 H    1.006 --   154 C    0.973
   187   1 H    1.003 --   155 C    0.974
   188   1 H    1.002 --   160 C    0.975
   189   1 H    1.005 --   161 C    0.974
   190   1 H    0.987 --   163 N    0.874
   191   1 H    1.005 --   166 C    0.973
   192   1 H    0.998 --   167 C    0.972
   193   1 H    0.960 --   169 N    0.933
   194   1 H    0.960 --   169 N    0.933
   195   1 H    0.998 --   170 C    0.972
   196   1 H    1.005 --   171 C    0.972
   197   1 H    1.006 --   173 C    0.973
   198   1 H    1.003 --   174 C    0.974
 ---------------------------------------------------------------------------

           -------------------------------------------------
          | TOTAL ENERGY             -330.489552888751 Eh   |
          | GRADIENT NORM               0.000780537736 Eh/α |
          | HOMO-LUMO GAP               0.844549354126 eV   |
           -------------------------------------------------

 * finished run on 2022/07/29 at 22:21:50.926
