   * xtb version 6.5.1 (b24c23e) compiled by 'conda@728c89f4b128' on 2022-07-12
          program call               : xtb Cu_Ph_C6_2.xyz --gfn 1 --opt -T 48

   ID    Z sym.   atoms
    1   29 Cu     1, 57
    2    6 C      2-6, 8-11, 13-29, 32-37, 58-62, 64-67, 69-85, 88-93, 113-118
    3    7 N      7, 12, 30, 31, 63, 68, 86, 87
    4    1 H      38-56, 94-112
########################################################################
[WARNING] Please study the warnings concerning your input carefully
-1- prog_main_parseArguments: Unknown option '-T' provided
########################################################################

          :  Hamiltonian                  GFN1-xTB          :
 * total energy  :  -200.7814010 Eh     change       -0.9069367E-10 Eh
 * total energy  :  -202.4689815 Eh     change       -0.1687580E+01 Eh
 * total energy  :  -202.6532347 Eh     change       -0.1842532E+00 Eh
 * total energy  :  -202.7269574 Eh     change       -0.7372270E-01 Eh
 * total energy  :  -202.7689518 Eh     change       -0.4199444E-01 Eh
 * total energy  :  -202.7876305 Eh     change       -0.1867872E-01 Eh
 * total energy  :  -202.8010530 Eh     change       -0.1342250E-01 Eh
 * total energy  :  -202.8112133 Eh     change       -0.1016027E-01 Eh
 * total energy  :  -202.8187556 Eh     change       -0.7542291E-02 Eh
 * total energy  :  -202.8242871 Eh     change       -0.5531484E-02 Eh
 * total energy  :  -202.8448205 Eh     change       -0.9078571E-05 Eh
 * total energy  :  -202.8448376 Eh     change       -0.1713992E-04 Eh
 * total energy  :  -202.8448462 Eh     change       -0.8585313E-05 Eh
 * total energy  :  -202.8448484 Eh     change       -0.2267206E-05 Eh
 * total energy  :  -202.8448622 Eh     change       -0.1376192E-04 Eh
 * total energy  :  -202.8448703 Eh     change       -0.8108488E-05 Eh
 * total energy  :  -202.8448787 Eh     change       -0.8380718E-05 Eh
 * total energy  :  -202.8448859 Eh     change       -0.7201801E-05 Eh
 * total energy  :  -202.8448905 Eh     change       -0.4653239E-05 Eh
   *** GEOMETRY OPTIMIZATION CONVERGED AFTER 53 ITERATIONS ***

 final structure:
================
118
 xtb: 6.5.1 (b24c23e)
Cu          12.75032275588946       -0.03850666025339       -0.00728390274921
C            9.34268898691800       -0.06516330393449       -0.02128464313956
C            9.97658541059470       -1.29638365324102       -0.09703191691233
C            9.30062340738020       -2.56120788078221       -0.14730093715388
C           10.25895302605135       -3.51977116342176       -0.19057496283683
C           11.53003154175652       -2.84800161253315       -0.17613978964774
N           11.32703484410264       -1.49948462484536       -0.11358741385396
C           12.77406576259597       -3.48280237570315       -0.19127429414513
C           14.00776827972010       -2.83205089247675       -0.14091847085607
C           15.28410757144775       -3.48625800542809       -0.20132478735616
C           16.23189161751293       -2.51636427214951       -0.14736280881941
N           14.19900667492096       -1.47760005997596       -0.06135183550140
C           15.54271809695852       -1.26388385345399       -0.06098555494691
C           16.18091438516094       -0.01189397700072       -0.00405910936360
C           15.52352113087514        1.22972561888472        0.05634678678730
C           16.19230483364688        2.49583097442499        0.08189206726043
C           15.22927389813923        3.45075054991061        0.13411435595904
C           13.96380862019567        2.77291327253424        0.14880797915106
C           12.71969902706164        3.40489374093635        0.19003940752325
C           12.70608917906535        4.88715594512633        0.27799746274308
C           12.14592583345881        5.65119043061534       -0.74649022849157
C           12.13481388505183        7.03550460886969       -0.66305611126506
C           12.67751010956368        7.67254901372407        0.44457192723721
C           13.23447925154418        6.91919928949888        1.46908354000950
C           13.25169584774296        5.53493178939758        1.38697495380693
C           11.48566137035540        2.75107107843805        0.15412110212964
C           10.20429186018765        3.39783184439536        0.23889545383609
C            9.26136085750537        2.42532783398111        0.17382439480730
C            9.95705045727822        1.17557771729924        0.05907671236610
N           11.30409821483644        1.40171875975848        0.05526785955222
N           14.17657787365988        1.42061446836024        0.09106209234679
C           12.78421461866036       -4.96614263517260       -0.26754408641779
C           12.27404614594682       -5.61937367049217       -1.38993069211717
C           12.28548376459674       -7.00441276591042       -1.46023063944499
C           12.80026889048381       -7.75245472425487       -0.41007734114413
C           13.30717487726907       -7.10957881002589        0.71115562778261
C           13.30254938935998       -5.72457382415759        0.78263226271785
H            8.25755936366405       -0.07432907516174       -0.01268808944526
H            8.22912190116785       -2.68562673828402       -0.14221571464794
H           10.12468657207416       -4.58918912405467       -0.21832326385845
H           15.43163905112163       -4.55064705967088       -0.28701230077380
H           17.30403034498622       -2.62913875682330       -0.16981483460364
H           17.26221500797290        2.62757252101456        0.05592950386034
H           15.35943615684034        4.52080081167526        0.14823937576294
H           11.73235012343941        5.15560701135781       -1.61787679735009
H           11.70110529984728        7.61944916357107       -1.46737108138304
H           12.66643059160493        8.75468257555325        0.50925817397917
H           13.65707156913835        7.41190727487026        2.33774641219503
H           13.67630793612665        4.94733300601146        2.19343135216052
H           10.05272012655379        4.45980713136579        0.34690754304493
H            8.18825634580800        2.53013666591880        0.20699629908277
H           11.88200812841701       -5.03584630991584       -2.21558119820820
H           11.89106694614269       -7.50177072885418       -2.33950693651317
H           12.80580065474050       -8.83511174203592       -0.46515444970838
H           13.70740304705291       -7.68952857764303        1.53545377275876
H           13.68910552975378       -5.22376424452318        1.66341921282919
Cu          28.78906592774952        0.03812447024248       -0.00580501020197
C           32.19666351474375        0.06517706009197       -0.01760962964400
C           31.56295958777121        1.29860456355695       -0.04109093805917
C           32.23900685390156        2.56438318818213       -0.03754824748101
C           31.28073738526057        3.52399313661160       -0.03942619889545
C           30.00961556195040        2.85230240542632       -0.05315272226192
N           30.21253004300563        1.50232782767532       -0.04863202963040
C           28.76559648074106        3.48712870821283       -0.03993617765880
C           27.53187277065700        2.83483067220611       -0.01746437165323
C           26.25558790524334        3.49121162896223       -0.04853840287113
C           25.30768669579646        2.52000429116945       -0.03694693016727
N           27.34048308220692        1.47821922570694        0.00255017679783
C           25.99671544900174        1.26486565963200       -0.00592935475911
C           25.35846353122247        0.01162521752281       -0.00421914303719
C           26.01577328644142       -1.23149250860263        0.00145597964098
C           25.34686578841946       -2.49742509957877       -0.02922801690188
C           26.30977763343991       -3.45382410855804       -0.01836976412093
C           27.57528841729961       -2.77743379957982        0.02700712702496
C           28.81936495007426       -3.41064154112066        0.04203505427541
C           28.83314715214483       -4.89531720508046        0.06541436276650
C           29.39547812238074       -5.61382778925528       -0.99035872816368
C           29.40727954333518       -7.00044657747687       -0.96718087508848
C           28.86304205380739       -7.68533106558485        0.11074874368048
C           28.30376051601678       -6.97751997019514        1.16600591876580
C           28.28588952424068       -5.59099049402186        1.14415492272760
C           30.05341754814228       -2.75584039829204        0.03589485823537
C           31.33470447007514       -3.40567895932666        0.09421015048046
C           32.27769889161753       -2.43132722474889        0.07160736624562
C           31.58213384347810       -1.17778416108994        0.00969123148737
N           30.23508161013919       -1.40350143213404       -0.00482851562730
N           27.36265349010441       -1.42388769066484        0.02837624598717
C           28.75477128591270        4.97239031224472       -0.05145941735596
C           29.26280475430493        5.67434105265835       -1.14501292927922
C           29.24902111141079        7.06109790231539       -1.15536445805021
C           28.73407084596461        7.76218680091328       -0.07340776070300
C           28.22966421097501        7.07063270908051        1.01963322514414
C           28.23661713540785        5.68385931981212        1.03116081489008
H           33.28179238197784        0.07376320495057       -0.00830045725534
H           33.31052453351782        2.68839720420766       -0.02762082048752
H           31.41507085955422        4.59361618609613       -0.02158475626564
H           26.10812321716214        4.55835780529730       -0.08725246173583
H           24.23555947200921        2.63382286517923       -0.05398868276286
H           24.27695543007755       -2.62776863379472       -0.06165688201746
H           26.17950936082497       -4.52343811777167       -0.05136139738631
H           29.81027477277793       -5.08060637040066       -1.83863532027312
H           29.84278048101048       -7.54862990403919       -1.79533675739480
H           28.87473700529864       -8.76924832797664        0.12839496188080
H           27.87991768762309       -7.50776732896687        2.01165605125298
H           27.85954096212206       -5.03927385964707        1.97467808469070
H           31.48617143734482       -4.47129759337851        0.15697084766056
H           33.35076608188626       -2.53750932231003        0.10126720328287
H           29.65500740970984        5.12768187188428       -1.99545058782040
H           29.64128305728502        7.59666492122555       -2.01288025798509
H           28.72576033011858        8.84621809310040       -0.08208818586836
H           27.82909875058270        7.61374224365558        1.86851823238753
H           27.85200877182616        5.14479939107697        1.88993673337126
C           21.38378247222415        0.00246026826697       -0.02612154780226
C           20.15559774281464        0.00009818002289       -0.02480731498891
C           18.81065056558181        0.00114080570093       -0.01981213660603
C           17.58692227291777       -0.00334211498837       -0.01546964017937
C           22.72872456428201        0.00047253260324       -0.02221819499782
C           23.95245041101008        0.00340389797745       -0.01523770817439

          :  Hamiltonian                  GFN1-xTB          :
         :: total energy            -202.844890550613 Eh    ::
         :: gradient norm              0.000655656852 Eh/a0 ::
         :: HOMO-LUMO gap              0.000029938917 eV    ::
         :: SCC energy              -206.171332863915 Eh    ::
         :: repulsion energy           3.431177504116 Eh    ::

    * Orbital Energies and Occupations

         #    Occupation            Energy/Eh            Energy/eV
      -------------------------------------------------------------
         1        2.0000           -0.7633792             -20.7726
       ...           ...                  ...                  ...
       178        2.0000           -0.4110788             -11.1860
       179        2.0000           -0.4110763             -11.1860
       180        2.0000           -0.4079352             -11.1005
       181        2.0000           -0.4079337             -11.1004
       182        2.0000           -0.4076598             -11.0930
       183        2.0000           -0.4076463             -11.0926
       184        2.0000           -0.4076448             -11.0926
       185        2.0000           -0.4075347             -11.0896
       186        2.0000           -0.3948490             -10.7444
       187        2.0000           -0.3948486             -10.7444
       188        2.0000           -0.3902486             -10.6192
       189        2.0000           -0.3797446             -10.3334
       190        1.0003           -0.3551618              -9.6644 (HOMO)
       191        0.9997           -0.3551607              -9.6644 (LUMO)
       192                         -0.3372021              -9.1757
       193                         -0.3268371              -8.8937
       194                         -0.3268368              -8.8937
       195                         -0.3255644              -8.8591
       196                         -0.2980093              -8.1092
       197                         -0.2906143              -7.9080
       198                         -0.2824518              -7.6859
       199                         -0.2641098              -7.1868
       200                         -0.2637189              -7.1762
       201                         -0.2637171              -7.1761
       ...                                ...                  ...
       406                          1.5814382              43.0331
      -------------------------------------------------------------
                  HL-Gap            0.0000011 Eh            0.0000 eV

Wiberg/Mayer (AO) data.
largest (>0.10) Wiberg bond orders for each atom

     #   Z sym  total        # sym  WBO       # sym  WBO       # sym  WBO
 ---------------------------------------------------------------------------
     1  29 Cu   2.186 --    30 N    0.505     7 N    0.505    31 N    0.503
                            12 N    0.503
     2   6 C    3.929 --    29 C    1.361     3 C    1.361    38 H    0.971
     3   6 C    3.917 --     2 C    1.361     7 N    1.230     4 C    1.171
     4   6 C    3.955 --     5 C    1.655     3 C    1.171    39 H    0.976
     5   6 C    3.958 --     4 C    1.655     6 C    1.172    40 H    0.973
     6   6 C    3.913 --     8 C    1.320     7 N    1.239     5 C    1.172
     7   7 N    3.244 --     6 C    1.239     3 C    1.230     1 Cu   0.505
     8   6 C    3.935 --     9 C    1.328     6 C    1.320    32 C    1.024
     9   6 C    3.908 --     8 C    1.328    12 N    1.221    10 C    1.179
    10   6 C    3.954 --    11 C    1.643     9 C    1.179    41 H    0.973
    11   6 C    3.956 --    10 C    1.643    13 C    1.187    42 H    0.974
    12   7 N    3.248 --    13 C    1.258     9 C    1.221     1 Cu   0.503
    13   6 C    3.897 --    14 C    1.259    12 N    1.258    11 C    1.187
    14   6 C    3.939 --    15 C    1.259    13 C    1.259   116 C    1.188
    15   6 C    3.897 --    14 C    1.259    31 N    1.257    16 C    1.187
    16   6 C    3.956 --    17 C    1.643    15 C    1.187    43 H    0.974
    17   6 C    3.954 --    16 C    1.643    18 C    1.179    44 H    0.973
    18   6 C    3.908 --    19 C    1.328    31 N    1.221    17 C    1.179
    19   6 C    3.935 --    18 C    1.328    26 C    1.319    20 C    1.025
    20   6 C    3.988 --    21 C    1.396    25 C    1.396    19 C    1.025
                            23 C    0.108
    21   6 C    3.988 --    22 C    1.447    20 C    1.396    45 H    0.973
                            24 C    0.110
    22   6 C    3.995 --    21 C    1.447    23 C    1.438    46 H    0.973
                            25 C    0.110
    23   6 C    3.990 --    22 C    1.438    24 C    1.438    47 H    0.974
                            20 C    0.108
    24   6 C    3.995 --    25 C    1.447    23 C    1.438    48 H    0.973
                            21 C    0.110
    25   6 C    3.988 --    24 C    1.447    20 C    1.396    49 H    0.973
                            22 C    0.110
    26   6 C    3.913 --    19 C    1.319    30 N    1.239    27 C    1.172
    27   6 C    3.958 --    28 C    1.655    26 C    1.172    50 H    0.973
    28   6 C    3.955 --    27 C    1.655    29 C    1.171    51 H    0.976
    29   6 C    3.917 --     2 C    1.361    30 N    1.229    28 C    1.171
    30   7 N    3.244 --    26 C    1.239    29 C    1.229     1 Cu   0.505
    31   7 N    3.248 --    15 C    1.257    18 C    1.221     1 Cu   0.503
    32   6 C    3.988 --    33 C    1.397    37 C    1.397     8 C    1.024
                            35 C    0.108
    33   6 C    3.988 --    34 C    1.447    32 C    1.397    52 H    0.973
                            36 C    0.110
    34   6 C    3.995 --    33 C    1.447    35 C    1.438    53 H    0.973
                            37 C    0.110
    35   6 C    3.991 --    34 C    1.438    36 C    1.438    54 H    0.974
                            32 C    0.108
    36   6 C    3.995 --    37 C    1.447    35 C    1.438    55 H    0.973
                            33 C    0.110
    37   6 C    3.988 --    36 C    1.447    32 C    1.397    56 H    0.973
                            34 C    0.110
    38   1 H    1.002 --     2 C    0.971
    39   1 H    0.998 --     4 C    0.976
    40   1 H    1.005 --     5 C    0.973
    41   1 H    1.005 --    10 C    0.973
    42   1 H    1.002 --    11 C    0.974
    43   1 H    1.002 --    16 C    0.974
    44   1 H    1.005 --    17 C    0.973
    45   1 H    1.005 --    21 C    0.973
    46   1 H    1.003 --    22 C    0.973
    47   1 H    1.003 --    23 C    0.974
    48   1 H    1.003 --    24 C    0.973
    49   1 H    1.005 --    25 C    0.973
    50   1 H    1.005 --    27 C    0.973
    51   1 H    0.998 --    28 C    0.976
    52   1 H    1.005 --    33 C    0.973
    53   1 H    1.003 --    34 C    0.973
    54   1 H    1.003 --    35 C    0.974
    55   1 H    1.003 --    36 C    0.973
    56   1 H    1.005 --    37 C    0.973
    57  29 Cu   2.186 --    86 N    0.505    63 N    0.505    68 N    0.503
                            87 N    0.503
    58   6 C    3.929 --    85 C    1.361    59 C    1.361    94 H    0.971
    59   6 C    3.917 --    58 C    1.361    63 N    1.230    60 C    1.171
    60   6 C    3.955 --    61 C    1.655    59 C    1.171    95 H    0.976
    61   6 C    3.958 --    60 C    1.655    62 C    1.172    96 H    0.973
    62   6 C    3.913 --    64 C    1.320    63 N    1.239    61 C    1.172
    63   7 N    3.244 --    62 C    1.239    59 C    1.230    57 Cu   0.505
    64   6 C    3.935 --    65 C    1.328    62 C    1.320    88 C    1.024
    65   6 C    3.908 --    64 C    1.328    68 N    1.221    66 C    1.179
    66   6 C    3.954 --    67 C    1.643    65 C    1.179    97 H    0.973
    67   6 C    3.956 --    66 C    1.643    69 C    1.187    98 H    0.974
    68   7 N    3.248 --    69 C    1.257    65 C    1.221    57 Cu   0.503
    69   6 C    3.897 --    70 C    1.259    68 N    1.257    67 C    1.187
    70   6 C    3.939 --    71 C    1.259    69 C    1.259   118 C    1.188
    71   6 C    3.897 --    70 C    1.259    87 N    1.257    72 C    1.187
    72   6 C    3.956 --    73 C    1.643    71 C    1.187    99 H    0.974
    73   6 C    3.954 --    72 C    1.643    74 C    1.179   100 H    0.973
    74   6 C    3.908 --    75 C    1.328    87 N    1.221    73 C    1.179
    75   6 C    3.935 --    74 C    1.328    82 C    1.319    76 C    1.026
    76   6 C    3.988 --    77 C    1.396    81 C    1.396    75 C    1.026
                            79 C    0.108
    77   6 C    3.988 --    78 C    1.447    76 C    1.396   101 H    0.973
                            80 C    0.110
    78   6 C    3.995 --    77 C    1.447    79 C    1.438   102 H    0.973
                            81 C    0.110
    79   6 C    3.990 --    78 C    1.438    80 C    1.438   103 H    0.974
                            76 C    0.108
    80   6 C    3.995 --    81 C    1.447    79 C    1.438   104 H    0.973
                            77 C    0.110
    81   6 C    3.988 --    80 C    1.447    76 C    1.396   105 H    0.973
                            78 C    0.110
    82   6 C    3.913 --    75 C    1.319    86 N    1.239    83 C    1.172
    83   6 C    3.958 --    84 C    1.655    82 C    1.172   106 H    0.973
    84   6 C    3.955 --    83 C    1.655    85 C    1.171   107 H    0.976
    85   6 C    3.917 --    58 C    1.361    86 N    1.229    84 C    1.171
    86   7 N    3.244 --    82 C    1.239    85 C    1.229    57 Cu   0.505
    87   7 N    3.248 --    71 C    1.257    74 C    1.221    57 Cu   0.503
    88   6 C    3.988 --    89 C    1.397    93 C    1.397    64 C    1.024
                            91 C    0.108
    89   6 C    3.988 --    90 C    1.447    88 C    1.397   108 H    0.973
                            92 C    0.110
    90   6 C    3.995 --    89 C    1.447    91 C    1.438   109 H    0.973
                            93 C    0.110
    91   6 C    3.991 --    90 C    1.438    92 C    1.438   110 H    0.974
                            88 C    0.108
    92   6 C    3.995 --    93 C    1.447    91 C    1.438   111 H    0.973
                            89 C    0.110
    93   6 C    3.988 --    92 C    1.447    88 C    1.397   112 H    0.973
                            90 C    0.110
    94   1 H    1.002 --    58 C    0.971
    95   1 H    0.998 --    60 C    0.976
    96   1 H    1.005 --    61 C    0.973
    97   1 H    1.005 --    66 C    0.973
    98   1 H    1.002 --    67 C    0.974
    99   1 H    1.002 --    72 C    0.974
   100   1 H    1.005 --    73 C    0.973
   101   1 H    1.005 --    77 C    0.973
   102   1 H    1.003 --    78 C    0.973
   103   1 H    1.003 --    79 C    0.974
   104   1 H    1.003 --    80 C    0.973
   105   1 H    1.005 --    81 C    0.973
   106   1 H    1.005 --    83 C    0.973
   107   1 H    0.998 --    84 C    0.976
   108   1 H    1.005 --    89 C    0.973
   109   1 H    1.003 --    90 C    0.973
   110   1 H    1.003 --    91 C    0.974
   111   1 H    1.003 --    92 C    0.973
   112   1 H    1.005 --    93 C    0.973
   113   6 C    3.927 --   114 C    2.372   117 C    1.333   116 C    0.191
   114   6 C    3.927 --   113 C    2.372   115 C    1.333   118 C    0.191
   115   6 C    3.936 --   116 C    2.453   114 C    1.333
   116   6 C    3.891 --   115 C    2.453    14 C    1.188   113 C    0.191
   117   6 C    3.936 --   118 C    2.453   113 C    1.333
   118   6 C    3.891 --   117 C    2.453    70 C    1.188   114 C    0.191
 ---------------------------------------------------------------------------

           -------------------------------------------------
          | TOTAL ENERGY             -202.844890550613 Eh   |
          | GRADIENT NORM               0.000655656852 Eh/α |
          | HOMO-LUMO GAP               0.000029938917 eV   |
           -------------------------------------------------

 * finished run on 2022/07/30 at 08:55:01.082
