   * xtb version 6.5.1 (b24c23e) compiled by 'conda@728c89f4b128' on 2022-07-12
          program call               : xtb Cu_NMA_C8_3.xyz --gfn 1 --opt -T 48

   ID    Z sym.   atoms
    1   29 Cu     1, 67, 149
    2    6 C      2-6, 8-12, 14-19, 21-26, 28-32, 34-40, 68-72, 74-78, 80-85,
                  87-92, 94-98, 100-106, 133-148, 150-154, 156-160, 162-167,
                  169-174, 176-180, 182-188
    3    7 N      7, 13, 20, 27, 33, 41, 73, 79, 86, 93, 99, 107, 155, 161,
                  168, 175, 181, 189
    4    1 H      42-66, 108-132, 190-213

          :  Hamiltonian                  GFN1-xTB          :
 * total energy  :  -335.5831341 Eh     change        0.2260094E-08 Eh
 * total energy  :  -353.1344379 Eh     change       -0.1755130E+02 Eh
 * total energy  :  -355.3357054 Eh     change       -0.2201268E+01 Eh
 * total energy  :  -356.8607573 Eh     change       -0.1525052E+01 Eh
 * total energy  :  -357.6336156 Eh     change       -0.7728583E+00 Eh
 * total energy  :  -358.0849911 Eh     change       -0.4513755E+00 Eh
 * total energy  :  -358.3911666 Eh     change       -0.3061755E+00 Eh
 * total energy  :  -358.6322443 Eh     change       -0.2410777E+00 Eh
 * total energy  :  -358.8404279 Eh     change       -0.2081836E+00 Eh
 * total energy  :  -359.0258506 Eh     change       -0.1854227E+00 Eh
 * total energy  :  -359.9799368 Eh     change       -0.3735083E-04 Eh
 * total energy  :  -359.9799540 Eh     change       -0.1716084E-04 Eh
 * total energy  :  -359.9799666 Eh     change       -0.1261889E-04 Eh
 * total energy  :  -359.9799809 Eh     change       -0.1430457E-04 Eh
 * total energy  :  -359.9799962 Eh     change       -0.1533024E-04 Eh
 * total energy  :  -359.9800066 Eh     change       -0.1035291E-04 Eh
 * total energy  :  -359.9800132 Eh     change       -0.6670675E-05 Eh
 * total energy  :  -359.9800189 Eh     change       -0.5690449E-05 Eh
 * total energy  :  -359.9800239 Eh     change       -0.4981023E-05 Eh
   *** GEOMETRY OPTIMIZATION CONVERGED AFTER 92 ITERATIONS ***

 final structure:
================
213
 xtb: 6.5.1 (b24c23e)
Cu          30.90444112050125        0.03364922464640       -0.03117895396300
C           27.49863363629337        0.06701492307915       -0.04341324132692
C           28.12877353254200        0.98219623534643        0.78645451190787
C           27.44966134480163        1.88331318032756        1.67180423420880
C           28.40516988906510        2.60398566459211        2.31034838488950
C           29.67683254500022        2.16011594113052        1.80829575885605
N           29.47813839734201        1.16949688755263        0.89040817988264
C           30.91893223597914        2.65874105015142        2.21345239407368
C           30.92403520530987        3.77970156647143        3.18241617498154
C           30.29618377568400        4.99105315846649        2.87844720899742
C           30.30207310076122        6.03674667047064        3.78185081416356
C           30.93178814467702        5.89951361829416        5.02514819496579
N           30.85939509273244        6.95463900249998        5.92229365315889
C           31.85710327781188        7.07394294847105        6.97710228439780
C           31.54902195827764        4.68549274047133        5.33993813790612
C           31.54923562775545        3.64763178542332        4.42361577619995
C           32.15380521717982        2.17605302362770        1.77340320384622
C           33.42646006006434        2.73961465663093        2.12339377214478
C           34.37673126681014        1.99986826990847        1.49659918145353
N           32.34893371444227        1.11314319616977        0.93068012624015
C           33.69215590562104        0.98575442860346        0.75363046437980
C           34.33390520268362        0.00749783704153       -0.02759275453867
C           33.67880124117528       -0.96406411204812       -0.80616351014192
C           34.34929505480103       -1.99307573294081       -1.54130217497340
C           33.38904455363503       -2.72262400809002       -2.16485118907236
C           32.12452997298951       -2.13637122507029       -1.82270097246440
N           32.33419949689149       -1.07174715713547       -0.98555144356354
C           30.88345602082976       -2.59923096288246       -2.26678737218842
C           30.87373450499386       -3.72693689328852       -3.22770261643726
C           31.51359471405473       -3.61804463722875       -4.46372716480079
C           31.50387570614456       -4.66444742886104       -5.37018874391382
C           30.86145337374503       -5.86401159506072       -5.05043739037808
N           30.78155296909265       -6.92725615342150       -5.93746807072675
C           31.79367868023164       -7.07741997122861       -6.97460361656277
C           30.21455786237015       -5.97702492088971       -3.81358224184470
C           30.21881998557718       -4.92294232248561       -2.91997130201613
C           29.64853380066407       -2.07437174567161       -1.87284791112556
C           28.37219104523266       -2.49375805700864       -2.38390115522005
C           27.42652549191814       -1.75116936742260       -1.75584323082140
C           28.11671409806949       -0.86171798269744       -0.86731149875536
N           29.46277882959782       -1.07679379290711       -0.95983187332369
H           26.41342399053214        0.07810282977563       -0.04786700644378
H           26.37884833203416        1.93735909712003        1.79089315462844
H           28.26709350870172        3.36000212462760        3.06648361004579
H           29.81960522744109        5.11802235140518        1.91249699157397
H           29.81750333475321        6.97428044960326        3.53017066352386
H           30.66850102441676        7.84050293716659        5.46984742136382
H           32.87589377840950        7.02925075456277        6.57538889749783
H           31.72462346273261        6.27601366505959        7.70894336925092
H           31.70755419806373        8.03194213457417        7.47504971870268
H           32.02758452118643        4.54263220725671        6.30098687639016
H           32.02271481771650        2.70707870504592        4.68384569565439
H           33.57077413468195        3.60296864511053        2.75262429715373
H           35.44714174841175        2.12794909056528        1.52220091065445
H           35.41761432167498       -2.13815335575085       -1.56317572683684
H           33.52157892824012       -3.59289273419373       -2.78707990278888
H           32.00696011201518       -2.68885301705418       -4.72779197808862
H           31.99514650085679       -4.53968360884617       -6.32733820221401
H           30.56801733142925       -7.80426395030862       -5.47781276432628
H           31.68817172058955       -6.28569109585461       -7.71741651372625
H           31.63407737659401       -8.03817623729773       -7.46403891278729
H           32.80646109620892       -7.04716889522073       -6.55673231745470
H           29.70930508709825       -6.90270931170361       -3.55873596785833
H           29.72940448291885       -5.03180018390759       -1.95824725529666
H           28.22484577698197       -3.24914097044592       -3.13892198051795
H           26.35585471103843       -1.78342285991490       -1.88377947889620
Cu          68.11833292614263        0.01358402428671       -0.01737034138310
C           71.52243631305484        0.05017959786177       -0.09958751250764
C           70.89239620939340       -0.96676469905623       -0.80127311370404
C           71.57214296454517       -2.02178601741427       -1.49560981747437
C           70.61651975492390       -2.81128414123685       -2.04663232242561
C           69.34387310669730       -2.23606297025781       -1.70646615922272
N           69.54247464785155       -1.12184495480227       -0.94334396332346
C           68.10123751123514       -2.75201187596942       -2.08770251718476
C           68.09433861946282       -3.94211041100410       -2.97046464000156
C           68.70316120606918       -3.90397098386590       -4.22816521467000
C           68.69273338139134       -5.01290871782904       -5.05272142146161
C           68.07759119864652       -6.20121596272414       -4.63965586195595
N           68.14414130552488       -7.30506356598356       -5.47682499677298
C           67.15612446748715       -8.36789308843385       -5.34805141779209
C           67.48061760478473       -6.24969559345955       -3.37666952701547
C           67.48458889267781       -5.12986994483247       -2.56253959484103
C           66.86668796034600       -2.22868818436717       -1.69565341774249
C           65.59181233664040       -2.70534335906048       -2.15107264783148
C           64.64271890513663       -1.94079832062331       -1.55292140397578
N           66.67369162331325       -1.17575654921794       -0.84006492400387
C           65.33011385185749       -0.98751181287661       -0.73565176617441
C           64.69051110731115       -0.01625586006439        0.05599520756103
C           65.34673677688041        0.96240818837059        0.82467941661745
C           64.67869337387481        1.89906545640264        1.67632886913210
C           65.63923362147908        2.67715473049364        2.23767738013997
C           66.90126551480597        2.22712599192534        1.72321388415541
N           66.69002240476033        1.17406622802008        0.87199652203396
C           68.14188046492492        2.77536679980355        2.05831967356643
C           68.15183002654764        3.96287330098527        2.94424982355402
C           67.49085794958458        5.13559285897938        2.57404533048232
C           67.49928445660288        6.25206395436972        3.39267238873602
C           68.16225015661070        6.21538650398160        4.62267378847021
N           68.24150951318155        7.31744299648309        5.46131789802846
C           67.21422039693834        8.34837019682567        5.39459576627468
C           68.83076771982103        5.04317055680416        4.99678642783325
C           68.82718363018790        3.93744460381134        4.16787646029298
C           69.37546153424479        2.28736477742180        1.61546657135867
C           70.65025309566893        2.89087444657552        1.89272218929930
C           71.59477978071234        2.12302550942632        1.29398151317400
C           70.90520109782899        1.05308306445119        0.63307097516151
N           69.56082696949429        1.17813054531740        0.84181600061186
H           72.60732875273575        0.06231594634814       -0.12632567424710
H           72.64363242846984       -2.14005855707928       -1.53632406863946
H           70.75521485179763       -3.71314925832757       -2.62091286983862
H           69.16795585791623       -2.98526343176216       -4.56909323128148
H           69.16205291655812       -4.96727748808963       -6.02985612829339
H           68.31592789395370       -7.05317213160822       -6.44277708801496
H           66.13381249759772       -7.97346850377536       -5.37351630868722
H           67.30883946905844       -8.90891013218498       -4.41324968910671
H           67.29625616604068       -9.06013685428529       -6.17826702194286
H           67.01427207790094       -7.16033482859550       -3.02125561277453
H           67.02644588928287       -5.18319860420042       -1.58080267939972
H           65.44490381360272       -3.50945442989010       -2.85389747717498
H           63.57126243033362       -2.00400395933932       -1.65707334822778
H           63.61189497750812        1.94181182180740        1.82790877057951
H           65.50858497215056        3.47392661300283        2.95196136652685
H           66.98130133926402        5.18019967856341        1.61754430217743
H           66.99083019064351        7.15099371601872        3.06643687633266
H           68.47312322916062        7.06609525470953        6.41490015216264
H           67.29543257366200        8.89680704484821        4.45530920851998
H           67.37968463713018        9.04220984967762        6.21880461157919
H           66.20832777474389        7.92099396019213        5.47680941613595
H           69.35228396781395        5.00721858657873        5.94748198658485
H           69.33336921105376        3.03047659476033        4.47999316052238
H           70.79725337672720        3.79585305623618        2.45998255824410
H           72.66404708399880        2.26533071057565        1.28157413478793
C           35.73888154857613        0.00029054536171       -0.03048477747234
C           36.96376413160839       -0.00248204728665       -0.03666522361481
C           38.30637522864028       -0.00527952218647       -0.04245324159874
C           39.53748628534889       -0.00650745070887       -0.04750801401604
C           40.87528614574279       -0.00551578335856       -0.05160389222896
C           42.10645056522554       -0.00310383324258       -0.05488431481679
C           43.44880384975871        0.00017049430367       -0.05441346810650
C           44.67392031797639        0.00366517543874       -0.05302796342883
C           54.35138781926143       -0.00717300434497        0.06998607645081
C           55.57641126977844       -0.01319800395121        0.08543575642210
C           56.91862993312314       -0.01742408741191        0.09716141150993
C           58.14973224639616       -0.02161121331625        0.10318916135610
C           59.48742623758918       -0.02471144425308        0.10500061217842
C           60.71848131708120       -0.02530520002242        0.10071547540635
C           62.06097010109495       -0.02435558496610        0.09130193128371
C           63.28581184983378       -0.02263577453807        0.07850165185415
Cu          49.51273998255689        0.00728001122965       -0.00364423597139
C           46.07811621734809        0.00730125058065       -0.04357188961110
C           46.73559384528167       -1.01055001532767       -0.75933362220678
C           46.06773959332271       -2.07806918037579       -1.43976233246159
C           47.03073427033162       -2.84011801729577       -2.01935714453985
C           48.29311867918899       -2.23589378730558       -1.70327517788793
N           48.08048296459740       -1.12748081196513       -0.92701694691812
C           49.53740962383641       -2.71959437096165       -2.11675722195961
C           49.55133418129581       -3.88971578180008       -3.02550723911752
C           50.20131377222075       -5.07138410718104       -2.65724310136504
C           50.21976817240212       -6.16208066706052       -3.50530635607112
C           49.59853071905244       -6.09960743261038       -4.75903146787383
N           49.60609467485637       -7.23477399762666       -5.55546548339085
C           49.41064313947120       -7.11090807427556       -6.99332063219244
C           48.94099081824066       -4.92291195517583       -5.12953577859271
C           48.91975791501273       -3.83801840353246       -4.26955991167267
C           50.77255700722565       -2.18542165167451       -1.73848663917845
C           52.04460780458263       -2.62817655389179       -2.23262447492714
C           52.99401251958857       -1.87069707270071       -1.62513238278185
N           50.96571009455891       -1.15775614290443       -0.85393358209662
C           52.30790518678752       -0.95464007219883       -0.76610861735245
C           52.94745244438575       -0.00266381703918        0.04959843485653
C           52.28867219881863        0.95520677231382        0.84256856638433
C           52.95321047389518        1.87200181703543        1.71760964571222
C           51.99011222540690        2.64061168211007        2.28860943948781
C           50.73147459010774        2.20300974577975        1.75687297131377
N           50.94565699205399        1.16776444887806        0.88619039095473
C           49.48859735183904        2.74824186396617        2.09183683938512
C           49.48061754345872        3.93049710410953        2.98457733404525
C           48.80374714758587        3.90259533032546        4.20538913856008
C           48.79648951788569        5.00259930247953        5.04601612890780
C           49.47058417615941        6.17109501830492        4.67917964691263
N           49.44833060185411        7.32079069575987        5.45397980050916
C           49.20060025429041        7.22256823907429        6.88605739938837
C           50.14061663851413        6.20853416306372        3.44994840164842
C           50.14997851999770        5.10285969157017        2.62126187568439
C           48.25436363349111        2.26481110266003        1.64850905948810
C           46.98525854693568        2.87390474585962        1.92601545666156
C           46.03572797870429        2.10473641892670        1.33372883452185
C           46.71896206392826        1.02997476906992        0.68073028361221
N           48.05952277060621        1.14852960953194        0.87873600734193
H           44.99954573225472       -2.22444331557948       -1.45768906495469
H           46.90107646279635       -3.74245720482701       -2.59471134106050
H           50.67881476802199       -5.13774663727355       -1.68565843454818
H           50.71824716963199       -7.07686640895141       -3.20226518195058
H           50.35745034422587       -7.87238191098065       -5.32134611156707
H           48.38698702827490       -6.80023004402604       -7.20567795827786
H           50.10606044217681       -6.38775258923416       -7.43454007931497
H           49.57757883433342       -8.09058714395171       -7.44122890440738
H           48.44471812269664       -4.84625146692701       -6.08925839385173
H           48.42297085852513       -2.92416230310663       -4.57726419973168
H           52.19022340703364       -3.40579679380361       -2.96484918868077
H           54.06406077062474       -1.91416112789476       -1.75092839100420
H           54.01899777547848        1.90871693670885        1.87746719945123
H           52.11744998119499        3.42228675791390        3.01996163487349
H           48.29266468746210        2.99581737700228        4.51048743658857
H           48.26375510095441        4.94507124161726        5.98728298800309
H           50.20656131260742        7.95584006706827        5.23555846866720
H           49.87407173868829        6.50155334500779        7.36333697576652
H           49.35944131198011        8.20822310714224        7.32353013945264
H           48.16748913229187        6.92308979681220        7.06688756870980
H           50.65404422400328        7.11596838327386        3.14979173835610
H           50.66452269623632        5.15046342745119        1.66770749256116
H           46.84193967178524        3.78373934070785        2.48605428867927
H           44.96756079199368        2.25205634234983        1.32439324056889

          :  Hamiltonian                  GFN1-xTB          :
         :: total energy            -359.980023901666 Eh    ::
         :: gradient norm              0.000482344467 Eh/a0 ::
         :: HOMO-LUMO gap              0.003579602877 eV    ::
         :: SCC energy              -365.834438121890 Eh    ::
         :: repulsion energy           6.035018316041 Eh    ::

    * Orbital Energies and Occupations

         #    Occupation            Energy/Eh            Energy/eV
      -------------------------------------------------------------
         1        2.0000           -0.7777636             -21.1640
       ...           ...                  ...                  ...
       323        2.0000           -0.3925282             -10.6812
       324        2.0000           -0.3912622             -10.6468
       325        2.0000           -0.3905932             -10.6286
       326        2.0000           -0.3903977             -10.6233
       327        2.0000           -0.3901082             -10.6154
       328        2.0000           -0.3882515             -10.5649
       329        2.0000           -0.3882046             -10.5636
       330        2.0000           -0.3880671             -10.5598
       331        2.0000           -0.3790294             -10.3139
       332        2.0000           -0.3752622             -10.2114
       333        2.0000           -0.3694344             -10.0528
       334        1.0596           -0.3487584              -9.4902
       335        1.0009           -0.3486327              -9.4868 (HOMO)
       336        0.9395           -0.3485012              -9.4832 (LUMO)
       337        0.0000           -0.3345508              -9.1036
       338                         -0.3266511              -8.8886
       339                         -0.3209961              -8.7347
       340                         -0.3195572              -8.6956
       341                         -0.3194946              -8.6939
       342                         -0.3191574              -8.6847
       343                         -0.2995686              -8.1517
       344                         -0.2920107              -7.9460
       345                         -0.2918293              -7.9411
       346                         -0.2897251              -7.8838
       ...                                ...                  ...
       719                          1.6126781              43.8832
      -------------------------------------------------------------
                  HL-Gap            0.0001315 Eh            0.0036 eV

Wiberg/Mayer (AO) data.
largest (>0.10) Wiberg bond orders for each atom

     #   Z sym  total        # sym  WBO       # sym  WBO       # sym  WBO
 ---------------------------------------------------------------------------
     1  29 Cu   2.190 --     7 N    0.505    41 N    0.505    27 N    0.503
                            20 N    0.503
     2   6 C    3.926 --     3 C    1.361    40 C    1.361    42 H    0.971
     3   6 C    3.918 --     2 C    1.361     7 N    1.228     4 C    1.173
     4   6 C    3.954 --     5 C    1.651     3 C    1.173    43 H    0.976
     5   6 C    3.958 --     4 C    1.651     6 C    1.175    44 H    0.973
     6   6 C    3.911 --     8 C    1.313     7 N    1.241     5 C    1.175
     7   7 N    3.243 --     6 C    1.241     3 C    1.228     1 Cu   0.505
     8   6 C    3.933 --    17 C    1.325     6 C    1.313     9 C    1.035
     9   6 C    3.988 --    16 C    1.384    10 C    1.373     8 C    1.035
    10   6 C    3.987 --    11 C    1.477     9 C    1.373    45 H    0.973
    11   6 C    3.989 --    10 C    1.477    12 C    1.345    46 H    0.971
    12   6 C    3.952 --    15 C    1.353    11 C    1.345    13 N    1.110
    13   7 N    3.180 --    12 C    1.110    14 C    0.971    47 H    0.931
    14   6 C    3.968 --    50 H    0.990    49 H    0.986    48 H    0.984
                            13 N    0.971
    15   6 C    3.989 --    16 C    1.464    12 C    1.353    51 H    0.970
    16   6 C    3.987 --    15 C    1.464     9 C    1.384    52 H    0.973
    17   6 C    3.907 --     8 C    1.325    20 N    1.221    18 C    1.182
    18   6 C    3.954 --    19 C    1.639    17 C    1.182    53 H    0.973
    19   6 C    3.956 --    18 C    1.639    21 C    1.189    54 H    0.974
    20   7 N    3.246 --    21 C    1.258    17 C    1.221     1 Cu   0.503
    21   6 C    3.898 --    20 N    1.258    22 C    1.256    19 C    1.189
    22   6 C    3.935 --    21 C    1.256    23 C    1.255   133 C    1.192
    23   6 C    3.897 --    27 N    1.258    22 C    1.255    24 C    1.189
    24   6 C    3.956 --    25 C    1.639    23 C    1.189    55 H    0.974
    25   6 C    3.954 --    24 C    1.639    26 C    1.182    56 H    0.973
    26   6 C    3.907 --    28 C    1.325    27 N    1.221    25 C    1.182
    27   7 N    3.246 --    23 C    1.258    26 C    1.221     1 Cu   0.503
    28   6 C    3.933 --    26 C    1.325    37 C    1.313    29 C    1.036
    29   6 C    3.988 --    30 C    1.384    36 C    1.373    28 C    1.036
    30   6 C    3.987 --    31 C    1.464    29 C    1.384    57 H    0.973
    31   6 C    3.990 --    30 C    1.464    32 C    1.353    58 H    0.970
    32   6 C    3.952 --    31 C    1.353    35 C    1.345    33 N    1.109
    33   7 N    3.179 --    32 C    1.109    34 C    0.971    59 H    0.931
    34   6 C    3.968 --    61 H    0.990    60 H    0.986    62 H    0.984
                            33 N    0.971
    35   6 C    3.989 --    36 C    1.477    32 C    1.345    63 H    0.971
    36   6 C    3.987 --    35 C    1.477    29 C    1.373    64 H    0.973
    37   6 C    3.911 --    28 C    1.313    41 N    1.241    38 C    1.175
    38   6 C    3.958 --    39 C    1.651    37 C    1.175    65 H    0.973
    39   6 C    3.954 --    38 C    1.651    40 C    1.173    66 H    0.976
    40   6 C    3.918 --     2 C    1.361    41 N    1.228    39 C    1.173
    41   7 N    3.243 --    37 C    1.241    40 C    1.228     1 Cu   0.505
    42   1 H    1.002 --     2 C    0.971
    43   1 H    0.998 --     4 C    0.976
    44   1 H    1.005 --     5 C    0.973
    45   1 H    1.005 --    10 C    0.973
    46   1 H    0.999 --    11 C    0.971
    47   1 H    0.966 --    13 N    0.931
    48   1 H    1.003 --    14 C    0.984
    49   1 H    1.012 --    14 C    0.986
    50   1 H    1.007 --    14 C    0.990
    51   1 H    1.001 --    15 C    0.970
    52   1 H    1.005 --    16 C    0.973
    53   1 H    1.006 --    18 C    0.973
    54   1 H    1.002 --    19 C    0.974
    55   1 H    1.002 --    24 C    0.974
    56   1 H    1.006 --    25 C    0.973
    57   1 H    1.005 --    30 C    0.973
    58   1 H    1.001 --    31 C    0.970
    59   1 H    0.966 --    33 N    0.931
    60   1 H    1.012 --    34 C    0.986
    61   1 H    1.007 --    34 C    0.990
    62   1 H    1.003 --    34 C    0.984
    63   1 H    0.999 --    35 C    0.971
    64   1 H    1.005 --    36 C    0.973
    65   1 H    1.005 --    38 C    0.973
    66   1 H    0.998 --    39 C    0.976
    67  29 Cu   2.188 --    73 N    0.505   107 N    0.505    93 N    0.502
                            86 N    0.502
    68   6 C    3.926 --    69 C    1.361   106 C    1.360   108 H    0.971
    69   6 C    3.918 --    68 C    1.361    73 N    1.228    70 C    1.173
    70   6 C    3.954 --    71 C    1.652    69 C    1.173   109 H    0.976
    71   6 C    3.958 --    70 C    1.652    72 C    1.175   110 H    0.973
    72   6 C    3.911 --    74 C    1.313    73 N    1.241    71 C    1.175
    73   7 N    3.242 --    72 C    1.241    69 C    1.228    67 Cu   0.505
    74   6 C    3.933 --    83 C    1.325    72 C    1.313    75 C    1.035
    75   6 C    3.988 --    82 C    1.384    76 C    1.374    74 C    1.035
    76   6 C    3.987 --    77 C    1.476    75 C    1.374   111 H    0.973
    77   6 C    3.989 --    76 C    1.476    78 C    1.345   112 H    0.971
    78   6 C    3.952 --    81 C    1.353    77 C    1.345    79 N    1.109
    79   7 N    3.180 --    78 C    1.109    80 C    0.971   113 H    0.931
    80   6 C    3.968 --   116 H    0.990   115 H    0.986   114 H    0.984
                            79 N    0.971
    81   6 C    3.990 --    82 C    1.464    78 C    1.353   117 H    0.970
    82   6 C    3.987 --    81 C    1.464    75 C    1.384   118 H    0.973
    83   6 C    3.907 --    74 C    1.325    86 N    1.221    84 C    1.182
    84   6 C    3.954 --    85 C    1.639    83 C    1.182   119 H    0.973
    85   6 C    3.956 --    84 C    1.639    87 C    1.189   120 H    0.974
    86   7 N    3.246 --    87 C    1.258    83 C    1.221    67 Cu   0.502
    87   6 C    3.898 --    86 N    1.258    88 C    1.256    85 C    1.189
    88   6 C    3.935 --    87 C    1.256    89 C    1.255   148 C    1.193
    89   6 C    3.898 --    93 N    1.258    88 C    1.255    90 C    1.189
    90   6 C    3.956 --    91 C    1.639    89 C    1.189   121 H    0.974
    91   6 C    3.954 --    90 C    1.639    92 C    1.182   122 H    0.973
    92   6 C    3.907 --    94 C    1.324    93 N    1.221    91 C    1.182
    93   7 N    3.246 --    89 C    1.258    92 C    1.221    67 Cu   0.502
    94   6 C    3.933 --    92 C    1.324   103 C    1.313    95 C    1.036
    95   6 C    3.988 --    96 C    1.384   102 C    1.373    94 C    1.036
    96   6 C    3.987 --    97 C    1.464    95 C    1.384   123 H    0.973
    97   6 C    3.990 --    96 C    1.464    98 C    1.353   124 H    0.970
    98   6 C    3.952 --    97 C    1.353   101 C    1.345    99 N    1.109
    99   7 N    3.179 --    98 C    1.109   100 C    0.971   125 H    0.931
   100   6 C    3.968 --   127 H    0.990   126 H    0.986   128 H    0.984
                            99 N    0.971
   101   6 C    3.989 --   102 C    1.476    98 C    1.345   129 H    0.971
   102   6 C    3.987 --   101 C    1.476    95 C    1.373   130 H    0.973
   103   6 C    3.911 --    94 C    1.313   107 N    1.241   104 C    1.175
   104   6 C    3.958 --   105 C    1.651   103 C    1.175   131 H    0.973
   105   6 C    3.954 --   104 C    1.651   106 C    1.173   132 H    0.976
   106   6 C    3.918 --    68 C    1.360   107 N    1.228   105 C    1.173
   107   7 N    3.242 --   103 C    1.241   106 C    1.228    67 Cu   0.505
   108   1 H    1.002 --    68 C    0.971
   109   1 H    0.998 --    70 C    0.976
   110   1 H    1.005 --    71 C    0.973
   111   1 H    1.005 --    76 C    0.973
   112   1 H    0.999 --    77 C    0.971
   113   1 H    0.966 --    79 N    0.931
   114   1 H    1.003 --    80 C    0.984
   115   1 H    1.012 --    80 C    0.986
   116   1 H    1.007 --    80 C    0.990
   117   1 H    1.001 --    81 C    0.970
   118   1 H    1.005 --    82 C    0.973
   119   1 H    1.006 --    84 C    0.973
   120   1 H    1.002 --    85 C    0.974
   121   1 H    1.002 --    90 C    0.974
   122   1 H    1.006 --    91 C    0.973
   123   1 H    1.005 --    96 C    0.973
   124   1 H    1.001 --    97 C    0.970
   125   1 H    0.966 --    99 N    0.931
   126   1 H    1.012 --   100 C    0.986
   127   1 H    1.007 --   100 C    0.990
   128   1 H    1.003 --   100 C    0.984
   129   1 H    0.999 --   101 C    0.971
   130   1 H    1.005 --   102 C    0.973
   131   1 H    1.005 --   104 C    0.973
   132   1 H    0.998 --   105 C    0.976
   133   6 C    3.876 --   134 C    2.437    22 C    1.192   136 C    0.186
   134   6 C    3.934 --   133 C    2.437   135 C    1.346
   135   6 C    3.892 --   136 C    2.333   134 C    1.346   138 C    0.182
   136   6 C    3.925 --   135 C    2.333   137 C    1.371   133 C    0.186
   137   6 C    3.924 --   138 C    2.332   136 C    1.371   140 C    0.186
   138   6 C    3.892 --   137 C    2.332   139 C    1.347   135 C    0.182
   139   6 C    3.931 --   140 C    2.434   138 C    1.347
   140   6 C    3.876 --   139 C    2.434   150 C    1.196   137 C    0.186
   141   6 C    3.876 --   142 C    2.434   170 C    1.196   144 C    0.186
   142   6 C    3.931 --   141 C    2.434   143 C    1.347
   143   6 C    3.892 --   144 C    2.332   142 C    1.347   146 C    0.182
   144   6 C    3.924 --   143 C    2.332   145 C    1.371   141 C    0.186
   145   6 C    3.925 --   146 C    2.333   144 C    1.371   148 C    0.186
   146   6 C    3.892 --   145 C    2.333   147 C    1.346   143 C    0.182
   147   6 C    3.934 --   148 C    2.437   146 C    1.346
   148   6 C    3.876 --   147 C    2.437    88 C    1.193   145 C    0.186
   149  29 Cu   2.159 --   155 N    0.497   189 N    0.497   168 N    0.497
                           175 N    0.497
   150   6 C    3.923 --   151 C    1.253   188 C    1.252   140 C    1.196
   151   6 C    3.898 --   155 N    1.260   150 C    1.253   152 C    1.190
   152   6 C    3.954 --   153 C    1.637   151 C    1.190   190 H    0.974
   153   6 C    3.955 --   152 C    1.637   154 C    1.183   191 H    0.973
   154   6 C    3.904 --   156 C    1.320   155 N    1.223   153 C    1.183
   155   7 N    3.239 --   151 C    1.260   154 C    1.223   149 Cu   0.497
   156   6 C    3.929 --   154 C    1.320   165 C    1.318   157 C    1.036
   157   6 C    3.988 --   164 C    1.384   158 C    1.372   156 C    1.036
   158   6 C    3.987 --   159 C    1.477   157 C    1.372   192 H    0.973
   159   6 C    3.989 --   158 C    1.477   160 C    1.344   193 H    0.971
   160   6 C    3.952 --   163 C    1.353   159 C    1.344   161 N    1.110
   161   7 N    3.180 --   160 C    1.110   162 C    0.971   194 H    0.931
   162   6 C    3.968 --   197 H    0.990   195 H    0.986   196 H    0.984
                           161 N    0.971
   163   6 C    3.989 --   164 C    1.464   160 C    1.353   198 H    0.970
   164   6 C    3.987 --   163 C    1.464   157 C    1.384   199 H    0.973
   165   6 C    3.904 --   156 C    1.318   168 N    1.223   166 C    1.184
   166   6 C    3.955 --   167 C    1.636   165 C    1.184   200 H    0.973
   167   6 C    3.954 --   166 C    1.636   169 C    1.191   201 H    0.974
   168   7 N    3.239 --   169 C    1.260   165 C    1.223   149 Cu   0.497
   169   6 C    3.898 --   168 N    1.260   170 C    1.253   167 C    1.191
   170   6 C    3.924 --   171 C    1.253   169 C    1.253   141 C    1.196
   171   6 C    3.898 --   175 N    1.260   170 C    1.253   172 C    1.191
   172   6 C    3.954 --   173 C    1.636   171 C    1.191   202 H    0.974
   173   6 C    3.955 --   172 C    1.636   174 C    1.184   203 H    0.973
   174   6 C    3.904 --   176 C    1.318   175 N    1.224   173 C    1.184
   175   7 N    3.239 --   171 C    1.260   174 C    1.224   149 Cu   0.497
   176   6 C    3.929 --   185 C    1.319   174 C    1.318   177 C    1.037
   177   6 C    3.988 --   178 C    1.383   184 C    1.372   176 C    1.037
   178   6 C    3.987 --   179 C    1.465   177 C    1.383   204 H    0.972
   179   6 C    3.989 --   178 C    1.465   180 C    1.353   205 H    0.970
   180   6 C    3.952 --   179 C    1.353   183 C    1.344   181 N    1.110
   181   7 N    3.180 --   180 C    1.110   182 C    0.971   206 H    0.931
   182   6 C    3.968 --   208 H    0.990   209 H    0.986   207 H    0.984
                           181 N    0.971
   183   6 C    3.989 --   184 C    1.477   180 C    1.344   210 H    0.971
   184   6 C    3.987 --   183 C    1.477   177 C    1.372   211 H    0.973
   185   6 C    3.904 --   176 C    1.319   189 N    1.223   186 C    1.184
   186   6 C    3.955 --   187 C    1.637   185 C    1.184   212 H    0.973
   187   6 C    3.954 --   186 C    1.637   188 C    1.190   213 H    0.974
   188   6 C    3.898 --   189 N    1.260   150 C    1.252   187 C    1.190
   189   7 N    3.239 --   188 C    1.260   185 C    1.223   149 Cu   0.497
   190   1 H    1.002 --   152 C    0.974
   191   1 H    1.005 --   153 C    0.973
   192   1 H    1.005 --   158 C    0.973
   193   1 H    0.999 --   159 C    0.971
   194   1 H    0.966 --   161 N    0.931
   195   1 H    1.012 --   162 C    0.986
   196   1 H    1.003 --   162 C    0.984
   197   1 H    1.007 --   162 C    0.990
   198   1 H    1.001 --   163 C    0.970
   199   1 H    1.005 --   164 C    0.973
   200   1 H    1.006 --   166 C    0.973
   201   1 H    1.002 --   167 C    0.974
   202   1 H    1.002 --   172 C    0.974
   203   1 H    1.006 --   173 C    0.973
   204   1 H    1.006 --   178 C    0.972
   205   1 H    1.001 --   179 C    0.970
   206   1 H    0.966 --   181 N    0.931
   207   1 H    1.003 --   182 C    0.984
   208   1 H    1.007 --   182 C    0.990
   209   1 H    1.012 --   182 C    0.986
   210   1 H    0.999 --   183 C    0.971
   211   1 H    1.005 --   184 C    0.973
   212   1 H    1.005 --   186 C    0.973
   213   1 H    1.002 --   187 C    0.974
 ---------------------------------------------------------------------------

           -------------------------------------------------
          | TOTAL ENERGY             -359.980023901666 Eh   |
          | GRADIENT NORM               0.000482344467 Eh/α |
          | HOMO-LUMO GAP               0.003579602877 eV   |
           -------------------------------------------------

 * finished run on 2022/07/30 at 07:04:38.050
