   * xtb version 6.5.1 (b24c23e) compiled by 'conda@728c89f4b128' on 2022-07-12
          program call               : xtb Co_PhCN_C2_2.xyz --gfn 1 --opt -T 48

   ID    Z sym.   atoms
    1   27 Co     1, 59
    2    6 C      2-6, 8-13, 15-19, 21-26, 28-33, 35-40, 60-64, 66-71, 73-77,
                  79-84, 86-91, 93-98, 117, 118
    3    7 N      7, 14, 20, 27, 34, 41, 65, 72, 78, 85, 92, 99
    4    1 H      42-58, 100-116
########################################################################
[WARNING] Please study the warnings concerning your input carefully
-1- prog_main_parseArguments: Unknown option '-T' provided
########################################################################

          :  Hamiltonian                  GFN1-xTB          :
 * total energy  :  -211.2917583 Eh     change       -0.1831495E-08 Eh
 * total energy  :  -211.3598500 Eh     change       -0.6809171E-01 Eh
 * total energy  :  -211.4024063 Eh     change       -0.4255638E-01 Eh
 * total energy  :  -211.4147645 Eh     change       -0.1235812E-01 Eh
 * total energy  :  -211.4226714 Eh     change       -0.7906913E-02 Eh
 * total energy  :  -211.4272647 Eh     change       -0.4593272E-02 Eh
 * total energy  :  -211.4293500 Eh     change       -0.2085308E-02 Eh
 * total energy  :  -211.4300970 Eh     change       -0.7470591E-03 Eh
 * total energy  :  -211.4311335 Eh     change       -0.1036472E-02 Eh
 * total energy  :  -211.4316680 Eh     change       -0.5344988E-03 Eh
 * total energy  :  -211.4339880 Eh     change       -0.2765669E-05 Eh
 * total energy  :  -211.4339939 Eh     change       -0.5882962E-05 Eh
 * total energy  :  -211.4340015 Eh     change       -0.7562652E-05 Eh
 * total energy  :  -211.4340073 Eh     change       -0.5787601E-05 Eh
 * total energy  :  -211.4340141 Eh     change       -0.6824735E-05 Eh
 * total energy  :  -211.4340214 Eh     change       -0.7325487E-05 Eh
 * total energy  :  -211.4340289 Eh     change       -0.7466496E-05 Eh
 * total energy  :  -211.4340356 Eh     change       -0.6687034E-05 Eh
 * total energy  :  -211.4340404 Eh     change       -0.4877780E-05 Eh
   *** GEOMETRY OPTIMIZATION CONVERGED AFTER 61 ITERATIONS ***

 final structure:
================
118
 xtb: 6.5.1 (b24c23e)
Co          18.20190729437250        0.04734450631172        0.01101649907302
C           14.82664134605415        0.05480026706130        0.14342275569023
C           15.48272943963459        1.26345185345011        0.05361444416343
C           14.81716804612214        2.52728647098812       -0.03417141177558
C           15.77548565543182        3.47803886414773        0.06497707175310
C           17.02384395988049        2.79229325499434        0.22977405018775
N           16.84016397259414        1.43473793702359        0.16032533928135
C           18.22326859831272        3.42161554411690        0.53351334167154
C           18.23288783930447        4.88447423635171        0.75908567687567
C           17.45941090130392        5.44761686440481        1.77692273711830
C           17.47479707876950        6.81258659191805        2.00026205839784
C           18.26385269958247        7.64470355382183        1.20055580033517
C           18.28231498902329        9.04986506098878        1.42828540477233
N           18.29749616185066       10.18542334852572        1.61384207402425
C           19.03570161860226        7.08662990805087        0.17714193609358
C           19.02037466901390        5.72004972999505       -0.03648679479464
C           19.41295770417489        2.71710004079782        0.64583754845346
C           20.66270867759639        3.31018095133611        1.01677730601197
C           21.60923396171793        2.35356535583385        0.86477368573048
N           19.58435669804500        1.38787380799539        0.33590250452048
C           20.93413701100320        1.17800204426072        0.41326601557202
C           21.59701233780712        0.01905432760789        0.01369511896688
C           20.91233783325942       -1.12404084546827       -0.39656857989260
C           21.56277623063786       -2.29535805691644       -0.89230225236046
C           20.59815033677334       -3.22987346134530       -1.06841882840994
C           19.36345158292359       -2.63035372450315       -0.65969573914217
N           19.56176268123492       -1.31641488735997       -0.30300978745446
C           18.16785673957365       -3.32224293884182       -0.53503476821338
C           18.14530136557680       -4.77614175796786       -0.81192472943805
C           17.32479196974009       -5.28859430184619       -1.81970751402250
C           17.30549337069689       -6.64477248577195       -2.09091375973721
C           18.10593422452501       -7.51905975609082       -1.34958710616615
C           18.08709037866199       -8.91556470932918       -1.62550701316970
N           18.07160706842597      -10.04404351452093       -1.85016304931716
C           18.92452533933314       -7.01187448356860       -0.33611014155555
C           18.94383809078357       -5.65359593706356       -0.07474235726813
C           16.99107634806688       -2.69084642328754       -0.15571960425332
C           15.74882841330330       -3.37271800917748        0.06282653444773
C           14.80954196115174       -2.41947607588731        0.26442094101832
C           15.47952765443867       -1.15795219173984        0.17316399485846
N           16.82706866046821       -1.33590710424809       -0.02139291276983
H           13.74379283711559        0.05787831884314        0.18172000682639
H           13.75244503099375        2.64978871125022       -0.15291017617343
H           15.66189221399151        4.54947816846206        0.03310684112582
H           16.85676465104994        4.80407154670950        2.40783242659737
H           16.87790499415870        7.24143077004453        2.79663648356635
H           19.64544710614839        7.72922222361982       -0.44712238861781
H           19.61207041029225        5.29199410940247       -0.83775332150504
H           20.78807375738718        4.32745194127792        1.34989304717268
H           22.67173938452884        2.42242643519156        1.03401393535767
H           22.62187679866578       -2.37532863141095       -1.07745075401564
H           20.70234379288817       -4.23607428413906       -1.44024577465394
H           16.71182084187142       -4.61199234911741       -2.40439820339166
H           16.67212198475423       -7.03422058681723       -2.87931775034617
H           19.54268102607835       -7.68736150610751        0.24355724816082
H           19.57103136587273       -5.26550804295553        0.71985071699594
H           15.62687491344290       -4.44371958548371        0.06054268487422
H           13.75362101249483       -2.53804794910714        0.44798265367782
Co          29.02675202799437       -0.04645234112653        0.01431422580307
C           32.40190089917575       -0.04706910259206        0.14925729654074
C           31.74568057864075       -1.25873708862429        0.12432049034335
C           32.41106331794425       -2.52556220531385        0.10486999023973
C           31.45248196265060       -3.46950749723890        0.25396110738615
C           30.20415514793219       -2.77572686978328        0.38107536192173
N           30.38814554648026       -1.42386930795962        0.23904825170116
C           29.00451917789065       -3.38760865189659        0.71780659866405
C           28.99426395449245       -4.83630310372690        1.02125783387217
C           29.76755542748939       -5.34473257310241        2.06764582270538
C           29.75109905873141       -6.69576476282884        2.36381160520454
C           28.96112030982194       -7.56888886130234        1.61005848139873
C           28.94087614491563       -8.95969130874101        1.91328182745531
N           28.92373616677499      -10.08359103512063        2.15974349472986
C           28.18964774685391       -7.06586455521082        0.55821936529182
C           28.20607929932444       -5.71270581782311        0.27163689748446
C           27.81502963418264       -2.67773360771326        0.79226036647122
C           26.56517229855424       -3.24957513583822        1.19482973163296
C           25.61890484821571       -2.30222853631956        0.99170279130621
N           27.64395790977781       -1.36712047244482        0.41109646215835
C           26.29424315152716       -1.15299256325435        0.47718357391366
C           25.63164610058034       -0.01733680937023        0.01514816965534
C           26.31663302140227        1.10149585317666       -0.45681706708049
C           25.66654495578329        2.24410926571939       -1.01593449357065
C           26.63143297036049        3.16733944972263       -1.24280102358620
C           27.86593068626632        2.59078533012241       -0.80169327994078
N           27.66725097994487        1.29834805409852       -0.37378542128295
C           29.06160623566358        3.28827803569645       -0.71463497657213
C           29.08399388774209        4.72497191244433       -1.07020004597865
C           29.90405104508362        5.18219883243172       -2.10453553830717
C           29.92222858256882        6.52156211638341       -2.44947224641885
C           29.12119178975287        7.43442990593745       -1.75692650294817
C           29.13823843166066        8.81368594260032       -2.10916692542817
N           29.15294298332516        9.92823815999931       -2.39510365677040
C           28.30328939632532        6.98280510511019       -0.71694222767028
C           28.28507652411957        5.64084686448746       -0.38174357541543
C           30.23815472172912        2.67840433655287       -0.30098309931049
C           31.48039282329452        3.37103277916307       -0.11936310600465
C           32.41934572880059        2.43013787686889        0.13492826215007
C           31.74920240832594        1.16559206508284        0.11242548388273
N           30.40184095766413        1.33281899266595       -0.09263059120098
H           33.48471760786278       -0.04822363219335        0.18853839608241
H           33.47584500351171       -2.65441224331870       -0.00637953112474
H           31.56588402623582       -4.54113561117451        0.27950095931556
H           30.37080213578947       -4.66879990288647        2.66311829977543
H           30.34765285447718       -7.08181570122212        3.18203738892472
H           27.57937644670211       -7.74048542325131       -0.03074052837581
H           27.61479846263848       -5.32774373405552       -0.55150205453592
H           26.43956866768491       -4.24734303052438        1.58239710198010
H           24.55641987348185       -2.36151747359054        1.16466672896158
H           24.60748505933449        2.31410865696952       -1.20529899038225
H           26.52754065225227        4.15170739236696       -1.66915109114279
H           30.51749008791726        4.47515075501807       -2.65149248537126
H           30.55509393678638        6.86778408800666       -3.25818896971398
H           27.68472119044958        7.68851156486246       -0.17494319342687
H           27.65839575950045        5.29625333042731        0.43304772723590
H           31.60254966368698        4.44027524761201       -0.18039601569609
H           33.47516204636587        2.55843003536641        0.31246623645602
C           23.00667069924440        0.00583950579630        0.01346598023408
C           24.22199095555025       -0.00395663950111        0.01382016104224

          :  Hamiltonian                  GFN1-xTB          :
         :: total energy            -211.434040437934 Eh    ::
         :: gradient norm              0.000290863001 Eh/a0 ::
         :: HOMO-LUMO gap              0.007383590274 eV    ::
         :: SCC energy              -214.931905678189 Eh    ::
         :: repulsion energy           3.607658175302 Eh    ::

    * Orbital Energies and Occupations

         #    Occupation            Energy/Eh            Energy/eV
      -------------------------------------------------------------
         1        2.0000           -0.7842340             -21.3401
       ...           ...                  ...                  ...
       184        2.0000           -0.4410338             -12.0011
       185        2.0000           -0.4410166             -12.0007
       186        2.0000           -0.4107824             -11.1780
       187        2.0000           -0.4100372             -11.1577
       188        2.0000           -0.4099877             -11.1563
       189        2.0000           -0.4095623             -11.1448
       190        2.0000           -0.4094409             -11.1415
       191        1.9998           -0.4062017             -11.0533
       192        1.9998           -0.4061970             -11.0532
       193        1.9997           -0.4060445             -11.0490
       194        1.9997           -0.4060440             -11.0490
       195        1.9238           -0.4005933             -10.9007
       196        1.1097           -0.3977350             -10.8229 (HOMO)
       197        0.9674           -0.3974636             -10.8155 (LUMO)
       198                         -0.3496079              -9.5133
       199                         -0.3425229              -9.3205
       200                         -0.3425169              -9.3204
       201                         -0.3367566              -9.1636
       202                         -0.3154655              -8.5843
       203                         -0.3130379              -8.5182
       204                         -0.3085248              -8.3954
       205                         -0.3083385              -8.3903
       206                         -0.3055639              -8.3148
       207                         -0.3055512              -8.3145
       ...                                ...                  ...
       414                          1.3324254              36.2571
      -------------------------------------------------------------
                  HL-Gap            0.0002713 Eh            0.0074 eV

Wiberg/Mayer (AO) data.
largest (>0.10) Wiberg bond orders for each atom

     #   Z sym  total        # sym  WBO       # sym  WBO       # sym  WBO
 ---------------------------------------------------------------------------
     1  27 Co   3.046 --    41 N    0.642     7 N    0.639    20 N    0.636
                            27 N    0.634
     2   6 C    3.932 --    40 C    1.367     3 C    1.364    42 H    0.969
     3   6 C    3.923 --     2 C    1.364     7 N    1.201     4 C    1.175
     4   6 C    3.960 --     5 C    1.649     3 C    1.175    43 H    0.975
     5   6 C    3.963 --     4 C    1.649     6 C    1.176    44 H    0.973
     6   6 C    3.920 --     8 C    1.320     7 N    1.212     5 C    1.176
     7   7 N    3.348 --     6 C    1.212     3 C    1.201     1 Co   0.639
     8   6 C    3.934 --    17 C    1.328     6 C    1.320     9 C    1.032
     9   6 C    3.963 --    10 C    1.385    16 C    1.385     8 C    1.032
    10   6 C    3.987 --    11 C    1.464     9 C    1.385    45 H    0.971
                            15 C    0.102
    11   6 C    3.993 --    10 C    1.464    12 C    1.364    46 H    0.972
                            16 C    0.102
    12   6 C    3.984 --    15 C    1.364    11 C    1.364    13 C    1.098
    13   6 C    3.958 --    14 N    2.820    12 C    1.098
    14   7 N    2.973 --    13 C    2.820
    15   6 C    3.993 --    16 C    1.464    12 C    1.364    47 H    0.972
                            10 C    0.102
    16   6 C    3.987 --    15 C    1.464     9 C    1.385    48 H    0.971
                            11 C    0.102
    17   6 C    3.917 --     8 C    1.328    20 N    1.198    18 C    1.181
    18   6 C    3.960 --    19 C    1.639    17 C    1.181    49 H    0.973
    19   6 C    3.962 --    18 C    1.639    21 C    1.188    50 H    0.973
    20   7 N    3.348 --    21 C    1.224    17 C    1.198     1 Co   0.636
    21   6 C    3.911 --    22 C    1.274    20 N    1.224    19 C    1.188
    22   6 C    3.936 --    21 C    1.274    23 C    1.271   117 C    1.162
    23   6 C    3.911 --    22 C    1.271    27 N    1.226    24 C    1.189
    24   6 C    3.962 --    25 C    1.637    23 C    1.189    51 H    0.973
    25   6 C    3.959 --    24 C    1.637    26 C    1.181    52 H    0.973
    26   6 C    3.917 --    28 C    1.328    27 N    1.197    25 C    1.181
    27   7 N    3.349 --    23 C    1.226    26 C    1.197     1 Co   0.634
    28   6 C    3.933 --    26 C    1.328    37 C    1.319    29 C    1.032
    29   6 C    3.963 --    36 C    1.385    30 C    1.384    28 C    1.032
    30   6 C    3.987 --    31 C    1.464    29 C    1.384    53 H    0.971
                            35 C    0.102
    31   6 C    3.993 --    30 C    1.464    32 C    1.364    54 H    0.972
                            36 C    0.102
    32   6 C    3.984 --    35 C    1.364    31 C    1.364    33 C    1.098
    33   6 C    3.958 --    34 N    2.820    32 C    1.098
    34   7 N    2.973 --    33 C    2.820
    35   6 C    3.993 --    36 C    1.463    32 C    1.364    55 H    0.972
                            30 C    0.102
    36   6 C    3.987 --    35 C    1.463    29 C    1.385    56 H    0.971
                            31 C    0.102
    37   6 C    3.920 --    28 C    1.319    41 N    1.213    38 C    1.175
    38   6 C    3.963 --    39 C    1.650    37 C    1.175    57 H    0.973
    39   6 C    3.960 --    38 C    1.650    40 C    1.173    58 H    0.975
    40   6 C    3.923 --     2 C    1.367    41 N    1.199    39 C    1.173
    41   7 N    3.347 --    37 C    1.213    40 C    1.199     1 Co   0.642
    42   1 H    1.000 --     2 C    0.969
    43   1 H    0.997 --     4 C    0.975
    44   1 H    1.003 --     5 C    0.973
    45   1 H    1.003 --    10 C    0.971
    46   1 H    1.000 --    11 C    0.972
    47   1 H    1.000 --    15 C    0.972
    48   1 H    1.004 --    16 C    0.971
    49   1 H    1.003 --    18 C    0.973
    50   1 H    1.002 --    19 C    0.973
    51   1 H    1.002 --    24 C    0.973
    52   1 H    1.003 --    25 C    0.973
    53   1 H    1.003 --    30 C    0.971
    54   1 H    1.000 --    31 C    0.972
    55   1 H    1.000 --    35 C    0.972
    56   1 H    1.004 --    36 C    0.971
    57   1 H    1.003 --    38 C    0.973
    58   1 H    0.997 --    39 C    0.975
    59  27 Co   3.046 --    99 N    0.642    65 N    0.639    78 N    0.636
                            85 N    0.634
    60   6 C    3.932 --    98 C    1.367    61 C    1.364   100 H    0.969
    61   6 C    3.923 --    60 C    1.364    65 N    1.201    62 C    1.175
    62   6 C    3.960 --    63 C    1.649    61 C    1.175   101 H    0.975
    63   6 C    3.963 --    62 C    1.649    64 C    1.176   102 H    0.973
    64   6 C    3.920 --    66 C    1.320    65 N    1.212    63 C    1.176
    65   7 N    3.348 --    64 C    1.212    61 C    1.201    59 Co   0.639
    66   6 C    3.934 --    75 C    1.328    64 C    1.320    67 C    1.032
    67   6 C    3.963 --    68 C    1.385    74 C    1.385    66 C    1.032
    68   6 C    3.987 --    69 C    1.464    67 C    1.385   103 H    0.971
                            73 C    0.102
    69   6 C    3.993 --    68 C    1.464    70 C    1.364   104 H    0.972
                            74 C    0.102
    70   6 C    3.984 --    73 C    1.364    69 C    1.364    71 C    1.098
    71   6 C    3.958 --    72 N    2.820    70 C    1.098
    72   7 N    2.973 --    71 C    2.820
    73   6 C    3.993 --    74 C    1.464    70 C    1.364   105 H    0.972
                            68 C    0.102
    74   6 C    3.987 --    73 C    1.464    67 C    1.385   106 H    0.971
                            69 C    0.102
    75   6 C    3.917 --    66 C    1.328    78 N    1.198    76 C    1.181
    76   6 C    3.960 --    77 C    1.639    75 C    1.181   107 H    0.973
    77   6 C    3.962 --    76 C    1.639    79 C    1.188   108 H    0.973
    78   7 N    3.348 --    79 C    1.224    75 C    1.198    59 Co   0.636
    79   6 C    3.911 --    80 C    1.274    78 N    1.224    77 C    1.188
    80   6 C    3.936 --    79 C    1.274    81 C    1.271   118 C    1.162
    81   6 C    3.911 --    80 C    1.271    85 N    1.226    82 C    1.189
    82   6 C    3.962 --    83 C    1.637    81 C    1.189   109 H    0.973
    83   6 C    3.959 --    82 C    1.637    84 C    1.181   110 H    0.973
    84   6 C    3.917 --    86 C    1.328    85 N    1.197    83 C    1.181
    85   7 N    3.349 --    81 C    1.226    84 C    1.197    59 Co   0.634
    86   6 C    3.933 --    84 C    1.328    95 C    1.319    87 C    1.032
    87   6 C    3.963 --    94 C    1.385    88 C    1.385    86 C    1.032
    88   6 C    3.987 --    89 C    1.464    87 C    1.385   111 H    0.971
                            93 C    0.102
    89   6 C    3.993 --    88 C    1.464    90 C    1.364   112 H    0.972
                            94 C    0.102
    90   6 C    3.984 --    93 C    1.364    89 C    1.364    91 C    1.098
    91   6 C    3.958 --    92 N    2.820    90 C    1.098
    92   7 N    2.973 --    91 C    2.820
    93   6 C    3.993 --    94 C    1.464    90 C    1.364   113 H    0.972
                            88 C    0.102
    94   6 C    3.987 --    93 C    1.464    87 C    1.385   114 H    0.971
                            89 C    0.102
    95   6 C    3.920 --    86 C    1.319    99 N    1.213    96 C    1.175
    96   6 C    3.963 --    97 C    1.650    95 C    1.175   115 H    0.973
    97   6 C    3.960 --    96 C    1.650    98 C    1.173   116 H    0.975
    98   6 C    3.923 --    60 C    1.367    99 N    1.199    97 C    1.173
    99   7 N    3.347 --    95 C    1.213    98 C    1.199    59 Co   0.642
   100   1 H    1.000 --    60 C    0.969
   101   1 H    0.997 --    62 C    0.975
   102   1 H    1.003 --    63 C    0.973
   103   1 H    1.003 --    68 C    0.971
   104   1 H    1.000 --    69 C    0.972
   105   1 H    1.000 --    73 C    0.972
   106   1 H    1.004 --    74 C    0.971
   107   1 H    1.003 --    76 C    0.973
   108   1 H    1.002 --    77 C    0.973
   109   1 H    1.002 --    82 C    0.973
   110   1 H    1.004 --    83 C    0.973
   111   1 H    1.003 --    88 C    0.971
   112   1 H    1.000 --    89 C    0.972
   113   1 H    1.000 --    93 C    0.972
   114   1 H    1.004 --    94 C    0.971
   115   1 H    1.003 --    96 C    0.973
   116   1 H    0.997 --    97 C    0.975
   117   6 C    3.930 --   118 C    2.587    22 C    1.162
   118   6 C    3.930 --   117 C    2.587    80 C    1.162
 ---------------------------------------------------------------------------

           -------------------------------------------------
          | TOTAL ENERGY             -211.434040437934 Eh   |
          | GRADIENT NORM               0.000290863001 Eh/α |
          | HOMO-LUMO GAP               0.007383590274 eV   |
           -------------------------------------------------

 * finished run on 2022/07/30 at 08:12:22.536
