   * xtb version 6.5.1 (b24c23e) compiled by 'conda@728c89f4b128' on 2022-07-12
          program call               : xtb Co_Ph2Me_C2_3.xyz --gfn 1 --opt -T 48

   ID    Z sym.   atoms
    1   27 Co     1, 69, 141
    2    6 C      2-6, 8-11, 13-31, 34-41, 70-74, 76-79, 81-99, 102-109,
                  137-140, 142-146, 148-151, 153-171, 174-181
    3    7 N      7, 12, 32, 33, 75, 80, 100, 101, 147, 152, 172, 173
    4    1 H      42-68, 110-136, 182-207
########################################################################
[WARNING] Please study the warnings concerning your input carefully
-1- prog_main_parseArguments: Unknown option '-T' provided
########################################################################

          :  Hamiltonian                  GFN1-xTB          :
 * total energy  :  -327.9292234 Eh     change        0.5270124E-08 Eh
 * total energy  :  -328.5079436 Eh     change       -0.5787202E+00 Eh
 * total energy  :  -328.6488578 Eh     change       -0.1409142E+00 Eh
 * total energy  :  -328.7184440 Eh     change       -0.6958626E-01 Eh
 * total energy  :  -328.7433269 Eh     change       -0.2488290E-01 Eh
 * total energy  :  -328.7558321 Eh     change       -0.1250518E-01 Eh
 * total energy  :  -328.7621971 Eh     change       -0.6365012E-02 Eh
 * total energy  :  -328.7654940 Eh     change       -0.3296898E-02 Eh
 * total energy  :  -328.7669351 Eh     change       -0.1441047E-02 Eh
 * total energy  :  -328.7676201 Eh     change       -0.6850104E-03 Eh
 * total energy  :  -328.7730659 Eh     change       -0.1204403E-04 Eh
 * total energy  :  -328.7730712 Eh     change       -0.5326608E-05 Eh
 * total energy  :  -328.7730793 Eh     change       -0.8111259E-05 Eh
 * total energy  :  -328.7730857 Eh     change       -0.6453032E-05 Eh
 * total energy  :  -328.7730929 Eh     change       -0.7169374E-05 Eh
 * total energy  :  -328.7731020 Eh     change       -0.9108067E-05 Eh
 * total energy  :  -328.7731099 Eh     change       -0.7855805E-05 Eh
 * total energy  :  -328.7731156 Eh     change       -0.5710707E-05 Eh
 * total energy  :  -328.7731202 Eh     change       -0.4658869E-05 Eh
   *** GEOMETRY OPTIMIZATION CONVERGED AFTER 75 ITERATIONS ***

 final structure:
================
207
 xtb: 6.5.1 (b24c23e)
Co          33.63213042598707        0.11626749105655       -0.32723947740116
C           30.36410891441789        0.24865951314737       -1.09425535683166
C           30.90248752739068        1.29121685872358       -0.36765480480995
C           30.14373257234620        2.39125480695809        0.14403000915422
C           31.02427406777953        3.22291434611407        0.75015136430547
C           32.32758295036660        2.65527028928459        0.56076158411958
N           32.23029158077472        1.43413079927566       -0.05875796079794
C           33.51887718709160        3.32790802977871        0.79894901103532
C           34.74772190450474        2.76203826683327        0.48390024158765
C           35.98674053007522        3.47817941209429        0.48088851958411
C           36.95539049100900        2.58233848125438        0.17006501864147
N           34.95657821060750        1.44571080724444        0.15102749655207
C           36.31135535400851        1.31708745453876        0.01543766619382
C           36.99852060408992        0.10151098492410       -0.05603964487943
C           36.31925154130347       -1.12283820450439       -0.06960966305103
C           36.96204499461524       -2.39076417909727        0.06934869574320
C           36.00123873092806       -3.33458040827430       -0.07914183512002
C           34.77621591858217       -2.63890519042982       -0.33748379038175
C           33.63349368837302       -3.24820885758713       -0.82996228128575
C           33.62714626220315       -4.72088516966173       -1.00841853160782
C           33.60908391147275       -5.27341752088392       -2.28695524586394
C           33.60864252775880       -6.65436694131381       -2.45866142039681
C           33.57375442996965       -7.24426735927042       -3.84262854651340
C           33.62061369333266       -7.47959871060664       -1.33930946984973
C           33.64031080605882       -6.94089380316989       -0.05505231048989
C           33.66467889695942       -7.85297120598179        1.14165628103128
C           33.64785239568466       -5.56015952086495        0.10458622099754
C           32.52297595568516       -2.51133216766962       -1.22544957772416
C           31.36618928446775       -3.06379922810652       -1.86639668527379
C           30.47020238976738       -2.05676503842491       -1.99649611182694
C           31.06402683517622       -0.89970029070095       -1.39777625768047
N           32.33879417645932       -1.17825330148747       -0.97066308883163
N           34.97829548516241       -1.27763772640005       -0.26719722969676
C           33.49311372824994        4.71176432620620        1.32419631918882
C           32.81643506721312        5.72109271405503        0.64012256406568
C           32.80694413932899        7.02255830279811        1.12984890060300
C           32.09641320572903        8.11359665547935        0.37514307110403
C           33.48173736445789        7.31172600656105        2.31214947618088
C           34.16625067877884        6.31666426018896        3.00412060363873
C           34.87986856836493        6.64016329597137        4.28886974126241
C           34.16984579155660        5.01922444812189        2.50450683926243
H           29.31991632799255        0.30508688502686       -1.37889179801411
H           29.07345368516087        2.48952702197427        0.05461904701820
H           30.82350242275992        4.14633657541799        1.26867293222301
H           36.08891545503901        4.53364883090194        0.67411311930061
H           38.01573842007915        2.74701525862542        0.07158543120389
H           38.01343898202361       -2.52691434410329        0.26327025377998
H           36.10606692350025       -4.40704196009787       -0.05432186665261
H           33.61481848749303       -4.61943509815137       -3.15201568367898
H           34.04165794362918       -8.22872757087344       -3.85812951721914
H           32.53816136298968       -7.35444479535062       -4.17257615424715
H           34.08817670999411       -6.59690072361264       -4.55318239728405
H           33.61746110495040       -8.55729579972174       -1.46682462531449
H           33.52639423356047       -7.29075196080544        2.06492077133513
H           32.87618523657439       -8.60324752546568        1.06597425894544
H           34.62196114206723       -8.37557817878234        1.19497144001134
H           33.65588701265949       -5.12644784938667        1.09849073709405
H           31.26180582517960       -4.09365694408040       -2.16709512553815
H           29.47992543421005       -2.08430514681039       -2.42271740035246
H           32.31412941847926        5.49027975864517       -0.29287780655259
H           31.66503749673436        8.84204394089630        1.06225239879734
H           31.30233781620705        7.70222589145419       -0.24811021545557
H           32.80257910888254        8.63684231661184       -0.27363612846076
H           33.47746991620932        8.32628492061648        2.69727094512769
H           34.17572911679697        6.60871621602271        5.12340072322261
H           35.31279376820405        7.64015882122644        4.24952503644440
H           35.67337625730845        5.91915304274718        4.48545482705971
H           34.69028716520751        4.23258964364773        3.03979025308118
Co          55.20474940296422        0.13285479487946       -0.17431270582214
C           58.51938033852727        0.63823776565157       -0.49408940259016
C           57.91968735799085       -0.29581333710905       -1.31207841859277
C           58.62862174921099       -1.11637172251483       -2.24608506467282
C           57.69865796052250       -1.83814812411893       -2.91466390652803
C           56.41786454104039       -1.42648592568363       -2.41781049542848
N           56.57084264683704       -0.53232083995866       -1.38625426211325
C           55.20777265010932       -1.76223685691968       -3.00597130665879
C           54.00283860137263       -1.26948739723250       -2.52370363827381
C           52.74515224900968       -1.43107733508021       -3.18874519035478
C           51.80087628211663       -0.89640941277397       -2.37765939768463
N           53.83391766633361       -0.60440111028084       -1.33397417865250
C           52.48098052225791       -0.42695044596792       -1.21125880571801
C           51.82918051791277       -0.03548290923774       -0.04536218550211
C           52.52497236959151        0.31990682693334        1.10737256177684
C           51.89538218958040        0.60377137260470        2.35858729815694
C           52.86865564370218        1.03834568074904        3.19407849850180
C           54.08958529135981        1.03839090689386        2.44422598193191
C           55.25556613234997        1.65489724372353        2.87136302803227
C           55.28071590158383        2.28642673601059        4.21415563654327
C           55.36185262768566        3.67125808873135        4.33886245983800
C           55.37826279550299        4.26659914920614        5.59667313118320
C           55.48083220676509        5.76272801257595        5.72368651489342
C           55.31815674738456        3.46421435564494        6.73095896749473
C           55.23678749897559        2.07815213583887        6.62122429364042
C           55.15924017449844        1.22856854336070        7.86097181931711
C           55.21502533344849        1.49481955602423        5.35985886232891
C           56.37917536147174        1.73852594365819        2.06167421755733
C           57.57984082579191        2.43797271314944        2.41481568369689
C           58.48416002016389        2.18455020324116        1.44014309168212
C           57.84711979869554        1.30511697502814        0.50708599854560
N           56.54312931588601        1.07684651634200        0.87099916860424
N           53.87314716146985        0.54347982450394        1.17867881037542
C           55.19097465836122       -2.62694391686408       -4.20888713910121
C           55.85583212234533       -2.24145724726722       -5.37203381740811
C           55.83214007397904       -3.05339416144495       -6.50080409842906
C           56.52862364945815       -2.62124234862370       -7.76299395404943
C           55.13852412364650       -4.25928948993366       -6.45972608129109
C           54.46734025230140       -4.65656249353913       -5.30692956085514
C           53.73704714073368       -5.97190407387590       -5.26847871222462
C           54.49483057729807       -3.83495858963889       -4.18562090152097
H           59.58149386185354        0.81894190451452       -0.61049158343155
H           59.70163063762262       -1.13089619062060       -2.35409600682141
H           57.85094805788374       -2.57590000434064       -3.68575250395963
H           52.61582417660275       -1.88776527180097       -4.15656469070980
H           50.73507857073717       -0.83753373201516       -2.52980765436597
H           50.84123511361263        0.48582244139780        2.55236801534876
H           52.77671774253583        1.36320117491847        4.21773066691025
H           55.39431564313555        4.28729711571781        3.44689997527036
H           55.02911502462265        6.10642784130949        6.65439118931954
H           56.53095901537655        6.06393494557163        5.72340174249877
H           54.98683969307870        6.25752858610165        4.88710588278570
H           55.33233809959890        3.92275940427934        7.71446297148129
H           55.28835134956530        0.17349678620615        7.62035692425000
H           55.92900801598389        1.52290401889001        8.57579759189144
H           54.18706460896856        1.35639250611164        8.34172399368716
H           55.15963513906886        0.41644003144382        5.25933261162503
H           57.70484521413783        3.03441370986085        3.30401822413125
H           59.50388869766329        2.52618520381769        1.35859737018247
H           56.37801312788984       -1.29131841207306       -5.39869240896153
H           56.94061352315529       -3.48104728561904       -8.29204663708860
H           57.33538922857323       -1.92211993153982       -7.54252061147590
H           55.81822316357177       -2.12357978599593       -8.42712689779572
H           55.11867496715444       -4.89638776320535       -7.33803566140984
H           54.43363337051369       -6.77634848558944       -5.02142027690253
H           53.29161911641595       -6.19632017752813       -6.23808924126068
H           52.95115773494161       -5.95849080380512       -4.51316295609572
H           53.98415790523779       -4.13751972419291       -3.27791419703793
C           38.40242450501797        0.09915958754023       -0.04504687383178
C           39.62074910830404        0.08551833932554       -0.04284469605902
C           49.20018161064027       -0.03763704508666       -0.01478333431905
C           50.41450660129918       -0.03968412272313       -0.02036483555608
Co          44.40800055659786        0.01354322365316       -0.08053406379171
C           41.02393178736352        0.06610490975997       -0.03938199297918
C           41.72771240776883        1.25941495323090        0.15849750450473
C           41.11359860118998        2.52154406126418        0.42125999427503
C           42.08343811380362        3.46141907167496        0.30006133907858
C           43.28730558996110        2.76869476036876       -0.04623182357217
N           43.07068859988696        1.40950271645243       -0.04269959775366
C           44.45649989777569        3.38059976003286       -0.47674263982538
C           45.61093488585728        2.64806845319613       -0.73033769041032
C           46.83548254117908        3.19613348706559       -1.22975064765893
C           47.77944565578770        2.23130719579959       -1.09608805380071
N           45.78773284167016        1.33427142061223       -0.37321718901693
C           47.12576897829558        1.09448682499486       -0.52927162566764
C           47.78675687401083       -0.02222858969354       -0.01822584734336
C           47.09046653357663       -1.12309512451624        0.47809509414668
C           47.71249475511625       -2.28413249434761        1.03214413961107
C           46.74564856379684       -3.22850033159197        1.14129026945438
C           45.53737158451804       -2.64284360062747        0.64364919909886
C           44.36679842273738       -3.34502572973519        0.37848841015389
C           44.35686663473030       -4.81537082054728        0.54078771182848
C           43.42996498781118       -5.42683697693767        1.38472479943418
C           43.41790067218239       -6.80888346594793        1.53780661529605
C           42.43173579272244       -7.46161550833321        2.46842325686780
C           44.33954083933141       -7.58111379109121        0.83689465549677
C           45.26838432052068       -6.98670648093300       -0.01240854750799
C           46.26948348820657       -7.83064929272382       -0.75406295916174
C           45.27453613215346       -5.60367725972427       -0.15381545054026
C           43.21100110781956       -2.70055593207562       -0.04182289942044
C           41.98988354413917       -3.35708844929446       -0.39717605466222
C           41.04596411663745       -2.38988010345779       -0.51509245537112
C           41.69304954459844       -1.14755821841756       -0.23890978332451
N           43.02803968774249       -1.33726079863409       -0.02166283263945
N           45.74551135137479       -1.32440597868549        0.31972761193211
C           44.47434897295349        4.84690980432580       -0.67045738120955
C           45.40521078869806        5.63610304928091        0.00296045711420
C           45.42065874844299        7.01653864202910       -0.17223648252817
C           46.43693969379923        7.85423250716152        0.55577850194240
C           44.50101659591065        7.60451741511184       -1.03387071495417
C           43.56600683649147        6.82964680563900       -1.71616164212355
C           42.58992349135129        7.47811744760443       -2.66013343511494
C           43.55606409611512        5.45288078713083       -1.52915390625109
H           40.07211911647681        2.65810709241219        0.66201463277392
H           42.00061107971963        4.52845132366174        0.42785553469264
H           46.94909373021639        4.19246328463735       -1.62509267480488
H           48.82766965429647        2.27418821839038       -1.34478588097641
H           48.75833485633103       -2.35553258184614        1.28443871008198
H           46.83304610771074       -4.23450173467868        1.51835191675683
H           42.72636752329124       -4.81418867206848        1.93765737701789
H           42.14622790780199       -8.44766850165668        2.10110637623787
H           42.87999011283154       -7.58482739555942        3.45698317471239
H           41.53514505919134       -6.85093598909025        2.57564905092030
H           44.33162124702052       -8.66024589447710        0.95112032643065
H           46.60293212258681       -7.32998019127855       -1.66311653167163
H           45.84133216438687       -8.79758438766323       -1.01939124197041
H           47.14348830565148       -8.00853084037586       -0.12327569992176
H           45.98180686015887       -5.13081034281066       -0.82634551578364
H           41.87864245576046       -4.42009157207031       -0.53684396140039
H           40.00257798939860       -2.49597909148705       -0.76360613210861
H           46.10670490722704        5.16973619880399        0.68602348738228
H           46.15127697943427        8.90601073278449        0.55245517390697
H           47.41126771446001        7.76149031253679        0.07093255088644
H           46.54203732915726        7.52033864737662        1.58869263118843
H           44.50879709953168        8.68043597464583       -1.17503033608799
H           42.23844425103159        8.42924312970875       -2.25892888034595
H           41.73113680444533        6.83089798621375       -2.83793959875166
H           43.07479230625222        7.67439785515717       -3.61905040611035
H           42.84244101279756        4.83743566914025       -2.06589061031412

          :  Hamiltonian                  GFN1-xTB          :
         :: total energy            -328.773120248039 Eh    ::
         :: gradient norm              0.000495752427 Eh/a0 ::
         :: HOMO-LUMO gap              0.013544002348 eV    ::
         :: SCC energy              -333.993953116994 Eh    ::
         :: repulsion energy           5.403311839347 Eh    ::

    * Orbital Energies and Occupations

         #    Occupation            Energy/Eh            Energy/eV
      -------------------------------------------------------------
         1        2.0000           -0.7700693             -20.9547
       ...           ...                  ...                  ...
       296        2.0000           -0.3913883             -10.6502
       297        2.0000           -0.3908066             -10.6344
       298        2.0000           -0.3906315             -10.6296
       299        1.9999           -0.3882589             -10.5651
       300        1.9999           -0.3881583             -10.5623
       301        1.9998           -0.3879434             -10.5565
       302        1.9998           -0.3877929             -10.5524
       303        1.9997           -0.3874330             -10.5426
       304        1.9996           -0.3873145             -10.5394
       305        1.9957           -0.3849409             -10.4748
       306        1.8886           -0.3817843             -10.3889
       307        1.1997           -0.3793460             -10.3225
       308        1.0756           -0.3790787             -10.3153 (HOMO)
       309        0.8418           -0.3785810             -10.3017 (LUMO)
       310                         -0.3379808              -9.1969
       311                         -0.3258853              -8.8678
       312                         -0.3254232              -8.8552
       313                         -0.3247011              -8.8356
       314                         -0.3213312              -8.7439
       315                         -0.3208637              -8.7311
       316                         -0.2980333              -8.1099
       317                         -0.2879135              -7.8345
       318                         -0.2876451              -7.8272
       319                         -0.2872131              -7.8155
       ...                                ...                  ...
       683                          1.3468860              36.6506
      -------------------------------------------------------------
                  HL-Gap            0.0004977 Eh            0.0135 eV

Wiberg/Mayer (AO) data.
largest (>0.10) Wiberg bond orders for each atom

     #   Z sym  total        # sym  WBO       # sym  WBO       # sym  WBO
 ---------------------------------------------------------------------------
     1  27 Co   3.062 --     7 N    0.637    33 N    0.635    32 N    0.634
                            12 N    0.631
     2   6 C    3.923 --    31 C    1.368     3 C    1.357    42 H    0.970
     3   6 C    3.925 --     2 C    1.357     7 N    1.208     4 C    1.177
     4   6 C    3.959 --     5 C    1.647     3 C    1.177    43 H    0.975
     5   6 C    3.963 --     4 C    1.647     6 C    1.176    44 H    0.972
     6   6 C    3.921 --     8 C    1.322     7 N    1.209     5 C    1.176
     7   7 N    3.342 --     6 C    1.209     3 C    1.208     1 Co   0.637
     8   6 C    3.928 --     6 C    1.322     9 C    1.321    34 C    1.032
     9   6 C    3.917 --     8 C    1.321    12 N    1.201    10 C    1.185
    10   6 C    3.959 --    11 C    1.633     9 C    1.185    45 H    0.973
    11   6 C    3.961 --    10 C    1.633    13 C    1.192    46 H    0.968
    12   7 N    3.346 --    13 C    1.227     9 C    1.201     1 Co   0.631
    13   6 C    3.908 --    14 C    1.261    12 N    1.227    11 C    1.192
    14   6 C    3.928 --    13 C    1.261    15 C    1.250   137 C    1.193
    15   6 C    3.908 --    14 C    1.250    33 N    1.241    16 C    1.191
    16   6 C    3.963 --    17 C    1.637    15 C    1.191    47 H    0.970
    17   6 C    3.958 --    16 C    1.637    18 C    1.180    48 H    0.973
    18   6 C    3.917 --    19 C    1.342    33 N    1.186    17 C    1.180
    19   6 C    3.928 --    18 C    1.342    28 C    1.311    20 C    1.020
    20   6 C    3.988 --    21 C    1.402    27 C    1.395    19 C    1.020
                            24 C    0.104
    21   6 C    3.987 --    22 C    1.412    20 C    1.402    49 H    0.972
                            25 C    0.104
    22   6 C    3.988 --    24 C    1.421    21 C    1.412    23 C    1.020
                            27 C    0.103
    23   6 C    3.995 --    22 C    1.020    50 H    0.983    52 H    0.982
                            51 H    0.971
    24   6 C    3.989 --    22 C    1.421    25 C    1.411    53 H    0.973
                            20 C    0.104
    25   6 C    3.988 --    27 C    1.421    24 C    1.411    26 C    1.020
                            21 C    0.104
    26   6 C    3.995 --    25 C    1.020    54 H    0.985    55 H    0.978
                            56 H    0.973
    27   6 C    3.987 --    25 C    1.421    20 C    1.395    57 H    0.972
                            22 C    0.103
    28   6 C    3.920 --    19 C    1.311    32 N    1.220    29 C    1.179
    29   6 C    3.964 --    30 C    1.648    28 C    1.179    58 H    0.973
    30   6 C    3.959 --    29 C    1.648    31 C    1.173    59 H    0.975
    31   6 C    3.925 --     2 C    1.368    32 N    1.198    30 C    1.173
    32   7 N    3.344 --    28 C    1.220    31 C    1.198     1 Co   0.634
    33   7 N    3.344 --    15 C    1.241    18 C    1.186     1 Co   0.635
    34   6 C    3.988 --    35 C    1.394    41 C    1.393     8 C    1.032
                            38 C    0.102
    35   6 C    3.985 --    36 C    1.417    34 C    1.394    60 H    0.971
                            39 C    0.103
    36   6 C    3.988 --    35 C    1.417    38 C    1.415    37 C    1.020
                            41 C    0.103
    37   6 C    3.995 --    36 C    1.020    62 H    0.984    61 H    0.982
                            63 H    0.971
    38   6 C    3.987 --    36 C    1.415    39 C    1.414    64 H    0.972
                            34 C    0.102
    39   6 C    3.988 --    41 C    1.419    38 C    1.414    40 C    1.020
                            35 C    0.103
    40   6 C    3.995 --    39 C    1.020    67 H    0.984    66 H    0.981
                            65 H    0.971
    41   6 C    3.984 --    39 C    1.419    34 C    1.393    68 H    0.972
                            36 C    0.103
    42   1 H    1.000 --     2 C    0.970
    43   1 H    0.998 --     4 C    0.975
    44   1 H    1.005 --     5 C    0.972
    45   1 H    1.004 --    10 C    0.973
    46   1 H    1.005 --    11 C    0.968
    47   1 H    1.005 --    16 C    0.970
    48   1 H    1.004 --    17 C    0.973
    49   1 H    1.002 --    21 C    0.972
    50   1 H    1.004 --    23 C    0.983
    51   1 H    1.006 --    23 C    0.971
    52   1 H    1.004 --    23 C    0.982
    53   1 H    1.000 --    24 C    0.973
    54   1 H    1.004 --    26 C    0.985
    55   1 H    1.005 --    26 C    0.978
    56   1 H    1.006 --    26 C    0.973
    57   1 H    1.002 --    27 C    0.972
    58   1 H    1.005 --    29 C    0.973
    59   1 H    0.998 --    30 C    0.975
    60   1 H    1.004 --    35 C    0.971
    61   1 H    1.004 --    37 C    0.982
    62   1 H    1.004 --    37 C    0.984
    63   1 H    1.006 --    37 C    0.971
    64   1 H    1.000 --    38 C    0.972
    65   1 H    1.006 --    40 C    0.971
    66   1 H    1.004 --    40 C    0.981
    67   1 H    1.004 --    40 C    0.984
    68   1 H    1.003 --    41 C    0.972
    69  27 Co   3.056 --    75 N    0.645   100 N    0.644   101 N    0.642
                            80 N    0.640
    70   6 C    3.938 --    99 C    1.369    71 C    1.362   110 H    0.970
    71   6 C    3.925 --    70 C    1.362    75 N    1.204    72 C    1.175
    72   6 C    3.959 --    73 C    1.649    71 C    1.175   111 H    0.975
    73   6 C    3.963 --    72 C    1.649    74 C    1.175   112 H    0.973
    74   6 C    3.922 --    76 C    1.330    75 N    1.203    73 C    1.175
    75   7 N    3.353 --    71 C    1.204    74 C    1.203    69 Co   0.645
    76   6 C    3.942 --    74 C    1.330    77 C    1.322   102 C    1.027
    77   6 C    3.918 --    76 C    1.322    80 N    1.203    78 C    1.183
    78   6 C    3.963 --    79 C    1.639    77 C    1.183   113 H    0.973
    79   6 C    3.961 --    78 C    1.639    81 C    1.186   114 H    0.974
    80   7 N    3.356 --    81 C    1.213    77 C    1.203    69 Co   0.640
    81   6 C    3.917 --    82 C    1.286    80 N    1.213    79 C    1.186
    82   6 C    3.941 --    81 C    1.286    83 C    1.281   140 C    1.140
    83   6 C    3.917 --    82 C    1.281   101 N    1.220    84 C    1.187
    84   6 C    3.963 --    85 C    1.642    83 C    1.187   115 H    0.974
    85   6 C    3.962 --    84 C    1.642    86 C    1.179   116 H    0.973
    86   6 C    3.917 --    87 C    1.334   101 N    1.194    85 C    1.179
    87   6 C    3.941 --    86 C    1.334    96 C    1.325    88 C    1.018
    88   6 C    3.988 --    89 C    1.403    95 C    1.395    87 C    1.018
                            92 C    0.104
    89   6 C    3.987 --    90 C    1.412    88 C    1.403   117 H    0.972
                            93 C    0.104
    90   6 C    3.988 --    92 C    1.421    89 C    1.412    91 C    1.020
                            95 C    0.103
    91   6 C    3.996 --    90 C    1.020   118 H    0.983   120 H    0.982
                           119 H    0.971
    92   6 C    3.990 --    90 C    1.421    93 C    1.411   121 H    0.972
                            88 C    0.104
    93   6 C    3.988 --    95 C    1.421    92 C    1.411    94 C    1.020
                            89 C    0.104
    94   6 C    3.996 --    93 C    1.020   122 H    0.985   123 H    0.978
                           124 H    0.973
    95   6 C    3.987 --    93 C    1.421    88 C    1.395   125 H    0.972
                            90 C    0.103
    96   6 C    3.921 --    87 C    1.325   100 N    1.209    97 C    1.176
    97   6 C    3.963 --    98 C    1.651    96 C    1.176   126 H    0.973
    98   6 C    3.960 --    97 C    1.651    99 C    1.173   127 H    0.975
    99   6 C    3.925 --    70 C    1.369   100 N    1.198    98 C    1.173
   100   7 N    3.354 --    96 C    1.209    99 C    1.198    69 Co   0.644
   101   7 N    3.355 --    83 C    1.220    86 C    1.194    69 Co   0.642
   102   6 C    3.988 --   103 C    1.396   109 C    1.395    76 C    1.027
                           106 C    0.103
   103   6 C    3.987 --   104 C    1.417   102 C    1.396   128 H    0.971
                           107 C    0.103
   104   6 C    3.988 --   103 C    1.417   106 C    1.415   105 C    1.020
                           109 C    0.103
   105   6 C    3.996 --   104 C    1.020   130 H    0.984   129 H    0.982
                           131 H    0.971
   106   6 C    3.988 --   104 C    1.415   107 C    1.415   132 H    0.972
                           102 C    0.103
   107   6 C    3.988 --   109 C    1.419   106 C    1.415   108 C    1.020
                           103 C    0.103
   108   6 C    3.996 --   107 C    1.020   135 H    0.984   134 H    0.982
                           133 H    0.971
   109   6 C    3.985 --   107 C    1.419   102 C    1.395   136 H    0.972
                           104 C    0.103
   110   1 H    1.000 --    70 C    0.970
   111   1 H    0.998 --    72 C    0.975
   112   1 H    1.005 --    73 C    0.973
   113   1 H    1.004 --    78 C    0.973
   114   1 H    1.001 --    79 C    0.974
   115   1 H    1.001 --    84 C    0.974
   116   1 H    1.005 --    85 C    0.973
   117   1 H    1.002 --    89 C    0.972
   118   1 H    1.004 --    91 C    0.983
   119   1 H    1.006 --    91 C    0.971
   120   1 H    1.004 --    91 C    0.982
   121   1 H    1.000 --    92 C    0.972
   122   1 H    1.004 --    94 C    0.985
   123   1 H    1.005 --    94 C    0.978
   124   1 H    1.006 --    94 C    0.973
   125   1 H    1.002 --    95 C    0.972
   126   1 H    1.005 --    97 C    0.973
   127   1 H    0.998 --    98 C    0.975
   128   1 H    1.003 --   103 C    0.971
   129   1 H    1.004 --   105 C    0.982
   130   1 H    1.004 --   105 C    0.984
   131   1 H    1.006 --   105 C    0.971
   132   1 H    1.000 --   106 C    0.972
   133   1 H    1.006 --   108 C    0.971
   134   1 H    1.004 --   108 C    0.982
   135   1 H    1.004 --   108 C    0.984
   136   1 H    1.003 --   109 C    0.972
   137   6 C    3.927 --   138 C    2.556    14 C    1.193
   138   6 C    3.929 --   137 C    2.556   142 C    1.194
   139   6 C    3.930 --   140 C    2.600   154 C    1.146
   140   6 C    3.920 --   139 C    2.600    82 C    1.140
   141  27 Co   3.096 --   173 N    0.640   147 N    0.638   152 N    0.632
                           172 N    0.631
   142   6 C    3.923 --   143 C    1.255   171 C    1.252   138 C    1.194
   143   6 C    3.909 --   142 C    1.255   147 N    1.232   144 C    1.193
   144   6 C    3.960 --   145 C    1.632   143 C    1.193   182 H    0.969
   145   6 C    3.960 --   144 C    1.632   146 C    1.184   183 H    0.973
   146   6 C    3.917 --   148 C    1.328   147 N    1.191   145 C    1.184
   147   7 N    3.339 --   143 C    1.232   146 C    1.191   141 Co   0.638
   148   6 C    3.926 --   146 C    1.328   149 C    1.312   174 C    1.034
   149   6 C    3.916 --   148 C    1.312   152 N    1.204   150 C    1.185
   150   6 C    3.964 --   151 C    1.633   149 C    1.185   184 H    0.973
   151   6 C    3.960 --   150 C    1.633   153 C    1.191   185 H    0.974
   152   7 N    3.341 --   153 C    1.218   149 C    1.204   141 Co   0.632
   153   6 C    3.918 --   154 C    1.275   152 N    1.218   151 C    1.191
   154   6 C    3.921 --   155 C    1.280   153 C    1.275   139 C    1.146
   155   6 C    3.918 --   154 C    1.280   173 N    1.217   156 C    1.189
   156   6 C    3.960 --   157 C    1.636   155 C    1.189   186 H    0.974
   157   6 C    3.964 --   156 C    1.636   158 C    1.184   187 H    0.973
   158   6 C    3.916 --   159 C    1.314   173 N    1.204   157 C    1.184
   159   6 C    3.926 --   168 C    1.326   158 C    1.314   160 C    1.035
   160   6 C    3.988 --   161 C    1.393   167 C    1.392   159 C    1.035
                           164 C    0.102
   161   6 C    3.984 --   162 C    1.418   160 C    1.393   188 H    0.971
                           165 C    0.103
   162   6 C    3.988 --   161 C    1.418   164 C    1.415   163 C    1.020
                           167 C    0.103
   163   6 C    3.995 --   162 C    1.020   191 H    0.983   189 H    0.982
                           190 H    0.971
   164   6 C    3.986 --   162 C    1.415   165 C    1.414   192 H    0.972
                           160 C    0.102
   165   6 C    3.988 --   167 C    1.419   164 C    1.414   166 C    1.020
                           161 C    0.103
   166   6 C    3.995 --   165 C    1.020   193 H    0.983   194 H    0.982
                           195 H    0.971
   167   6 C    3.983 --   165 C    1.419   160 C    1.392   196 H    0.971
                           162 C    0.103
   168   6 C    3.917 --   159 C    1.326   172 N    1.192   169 C    1.186
   169   6 C    3.959 --   170 C    1.630   168 C    1.186   197 H    0.973
   170   6 C    3.960 --   169 C    1.630   171 C    1.195   198 H    0.970
   171   6 C    3.909 --   142 C    1.252   172 N    1.233   170 C    1.195
   172   7 N    3.340 --   171 C    1.233   168 C    1.192   141 Co   0.631
   173   7 N    3.340 --   155 C    1.217   158 C    1.204   141 Co   0.640
   174   6 C    3.988 --   175 C    1.398   181 C    1.387   148 C    1.034
                           178 C    0.101
   175   6 C    3.983 --   176 C    1.413   174 C    1.398   199 H    0.972
                           179 C    0.103
   176   6 C    3.988 --   178 C    1.420   175 C    1.413   177 C    1.020
                           181 C    0.102
   177   6 C    3.995 --   176 C    1.020   200 H    0.985   202 H    0.980
                           201 H    0.972
   178   6 C    3.986 --   176 C    1.420   179 C    1.408   203 H    0.972
                           174 C    0.101
   179   6 C    3.988 --   181 C    1.423   178 C    1.408   180 C    1.020
                           175 C    0.103
   180   6 C    3.995 --   179 C    1.020   205 H    0.984   204 H    0.981
                           206 H    0.971
   181   6 C    3.984 --   179 C    1.423   174 C    1.387   207 H    0.971
                           176 C    0.102
   182   1 H    1.005 --   144 C    0.969
   183   1 H    1.004 --   145 C    0.973
   184   1 H    1.004 --   150 C    0.973
   185   1 H    1.001 --   151 C    0.974
   186   1 H    1.001 --   156 C    0.974
   187   1 H    1.004 --   157 C    0.973
   188   1 H    1.004 --   161 C    0.971
   189   1 H    1.004 --   163 C    0.982
   190   1 H    1.006 --   163 C    0.971
   191   1 H    1.004 --   163 C    0.983
   192   1 H    1.000 --   164 C    0.972
   193   1 H    1.004 --   166 C    0.983
   194   1 H    1.004 --   166 C    0.982
   195   1 H    1.006 --   166 C    0.971
   196   1 H    1.004 --   167 C    0.971
   197   1 H    1.004 --   169 C    0.973
   198   1 H    1.004 --   170 C    0.970
   199   1 H    1.003 --   175 C    0.972
   200   1 H    1.004 --   177 C    0.985
   201   1 H    1.005 --   177 C    0.972
   202   1 H    1.004 --   177 C    0.980
   203   1 H    1.000 --   178 C    0.972
   204   1 H    1.004 --   180 C    0.981
   205   1 H    1.004 --   180 C    0.984
   206   1 H    1.006 --   180 C    0.971
   207   1 H    1.004 --   181 C    0.971
 ---------------------------------------------------------------------------

           -------------------------------------------------
          | TOTAL ENERGY             -328.773120248039 Eh   |
          | GRADIENT NORM               0.000495752427 Eh/α |
          | HOMO-LUMO GAP               0.013544002348 eV   |
           -------------------------------------------------

 * finished run on 2022/07/29 at 23:18:24.601
