   * xtb version 6.5.1 (b24c23e) compiled by 'conda@728c89f4b128' on 2022-07-12
          program call               : xtb Zn_PhNO2_C2_3.xyz --gfn 1 --opt -T 48

   ID    Z sym.   atoms
    1   30 Zn     1, 61, 125
    2    6 C      2-6, 8-12, 16-20, 22-27, 29-33, 37-42, 62-66, 68-72, 76-80,
                  82-87, 89-93, 97-102, 121-124, 126-130, 132-136, 140-144,
                  146-151, 153-157, 161-166
    3    7 N      7, 13, 21, 28, 34, 43, 67, 73, 81, 88, 94, 103, 131, 137,
                  145, 152, 158, 167
    4    8 O      14, 15, 35, 36, 74, 75, 95, 96, 138, 139, 159, 160
    5    1 H      44-60, 104-120, 168-183
########################################################################
[WARNING] Please study the warnings concerning your input carefully
-1- prog_main_parseArguments: Unknown option '-T' provided
########################################################################

          :  Hamiltonian                  GFN1-xTB          :
 * total energy  :  -353.1151301 Eh     change       -0.6022560E-09 Eh
 * total energy  :  -353.4768661 Eh     change       -0.3617360E+00 Eh
 * total energy  :  -353.6691163 Eh     change       -0.1922502E+00 Eh
 * total energy  :  -353.7309300 Eh     change       -0.6181369E-01 Eh
 * total energy  :  -353.7542798 Eh     change       -0.2334978E-01 Eh
 * total energy  :  -353.7678415 Eh     change       -0.1356173E-01 Eh
 * total energy  :  -353.7765168 Eh     change       -0.8675297E-02 Eh
 * total energy  :  -353.7823834 Eh     change       -0.5866577E-02 Eh
 * total energy  :  -353.7877411 Eh     change       -0.5357706E-02 Eh
 * total energy  :  -353.7910959 Eh     change       -0.3354820E-02 Eh
 * total energy  :  -353.8037339 Eh     change       -0.8148933E-05 Eh
 * total energy  :  -353.8037498 Eh     change       -0.1597336E-04 Eh
 * total energy  :  -353.8037672 Eh     change       -0.1732336E-04 Eh
 * total energy  :  -353.8037830 Eh     change       -0.1582991E-04 Eh
 * total energy  :  -353.8037989 Eh     change       -0.1585734E-04 Eh
 * total energy  :  -353.8037933 Eh     change        0.5573551E-05 Eh
 * total energy  :  -353.8038076 Eh     change       -0.1434288E-04 Eh
 * total energy  :  -353.8038148 Eh     change       -0.7173635E-05 Eh
 * total energy  :  -353.8038197 Eh     change       -0.4857972E-05 Eh
   *** GEOMETRY OPTIMIZATION CONVERGED AFTER 71 ITERATIONS ***

 final structure:
================
183
 xtb: 6.5.1 (b24c23e)
Zn          34.82641462309527       -0.02207628463828       -0.06445231086551
C           31.41662735693883       -0.03353161607585       -0.09250026590481
C           32.04143586895762       -1.25645874451642       -0.30307159898633
C           31.36238663187371       -2.50808790402386       -0.49101166104327
C           32.31678511412724       -3.45362787135321       -0.67456901945297
C           33.59170378043846       -2.78750530201414       -0.61396893450923
N           33.38986511065312       -1.46071066141077       -0.37380217987973
C           34.84171245394300       -3.40248470553976       -0.75977971945268
C           34.84922083669302       -4.85493840482113       -1.05228613038911
C           35.46885469510227       -5.74844432606228       -0.17251505524348
C           35.46997623247939       -7.10643329990391       -0.43297153135278
C           34.85087287002359       -7.57674978164324       -1.58780643529046
N           34.84738518424394       -9.00152927537640       -1.86576456344090
O           34.30093568203476       -9.37189242672835       -2.87336774677317
O           35.39060289652544       -9.72613469579134       -1.07175943067005
C           34.23365777040210       -6.70428683156833       -2.47993291086221
C           34.23347282236265       -5.34874038211534       -2.20687468663259
C           36.08468643103032       -2.76631013779736       -0.65319260853645
C           37.35743971674618       -3.39003046637327       -0.88837908811272
C           38.30827583536654       -2.44179004527354       -0.69147995631523
N           36.28608744214563       -1.45010938927195       -0.33713659508460
C           37.62920624592299       -1.23020840834899       -0.33823825423906
C           38.26759213184454       -0.01173217059869       -0.03148778667681
C           37.61589975129129        1.20313665217575        0.26109528082450
C           38.28040593400107        2.41941781852312        0.62574420888695
C           37.32024517353909        3.36202812377809        0.80307880562318
C           36.05598433010966        2.72997124487847        0.54501787422133
N           36.27156121438149        1.41492596951624        0.23400808198652
C           34.80733860677827        3.35835213040035        0.63036681029927
C           34.80125582253263        4.81049003704293        0.92455339717474
C           34.16648092096475        5.29878978768877        2.07113601033842
C           34.15796365209403        6.65352638622198        2.34813249066223
C           34.78479086416609        7.53085178168795        1.46755108857231
N           34.77445306707352        8.95452574020073        1.75094427175613
O           34.22080742196521        9.31901016744986        2.75675453049878
O           35.32111478217516        9.68398357793423        0.96376979675999
C           35.42096990302848        7.06626237320089        0.31970380999062
C           35.42894866810958        5.70898211812917        0.05563033333026
C           33.56401931641084        2.73509334997599        0.46427526720490
C           32.28374726483376        3.39243658826013        0.50497414698493
C           31.33895219432755        2.44044933760518        0.30574818480152
C           32.02955416991112        1.19356933313266        0.12809117902554
N           33.37522993411675        1.40712107411418        0.22042008999033
H           30.33117191554309       -0.03722415455507       -0.10114456722742
H           30.29162115631001       -2.63645452306599       -0.47385643403456
H           32.17428341828077       -4.51169517188885       -0.82491497181976
H           35.93561814111887       -5.37125728113979        0.73001520570915
H           35.94041252705701       -7.80642627916324        0.24704067139788
H           33.76377701244832       -7.09502894825933       -3.37448758149672
H           33.76725063215715       -4.65841381065421       -2.90019353475592
H           37.50389955839056       -4.41615155884521       -1.18470947258224
H           39.37634586300547       -2.54588954570250       -0.79145303357158
H           39.34564884577246        2.53038343591822        0.74601250819903
H           37.45453834254020        4.38948094565501        1.10051140245596
H           33.69289493615607        4.60485638181839        2.75581358303438
H           33.67425053161945        7.03987543129330        3.23720844064281
H           35.89809989325312        7.76991296893676       -0.35182103379940
H           35.90998810621650        5.33613274186944       -0.84118615996403
H           32.13155393237999        4.44936786816472        0.65386973089447
H           30.26771872969089        2.56133507750882        0.27163861264094
Zn          56.69387461036938        0.06783985227973       -0.03100980859684
C           60.10593596661887        0.09750787439356       -0.07565630538172
C           59.47987877470949        1.30779861267729        0.19527301132402
C           60.15801019179047        2.54237201960835        0.47688237973435
C           59.20233795709032        3.47781233630680        0.70076622182574
C           57.92731308175515        2.82683896048856        0.54827437744530
N           58.13079941862124        1.51284644496070        0.24744628579903
C           56.67727033943522        3.43120842347270        0.72926611238821
C           56.67155091505379        4.87709565036878        1.05821032789358
C           56.15173761192413        5.32422682743151        2.27676392491033
C           56.15130411604191        6.67132264426909        2.58950415801073
C           56.67036738993369        7.58141170313886        1.67287210142194
N           56.67199173998695        8.99683863545493        1.99590386704578
O           57.13546729114093        9.75416460076961        1.18208444997049
O           56.21229158090888        9.32673786733590        3.05920071127759
C           57.18956317313489        7.15766273002963        0.45272455727925
C           57.19041664018284        5.80772914344710        0.15264952366578
C           55.43496627207742        2.79366344508002        0.63028874199731
C           54.16026032071902        3.43595571433127        0.79199105780872
C           53.20946409167045        2.48867283133406        0.59297530424058
N           55.23267157056938        1.47459111877127        0.32476914481002
C           53.88828750638074        1.26309625230287        0.29197039603488
C           53.24805875376408        0.04053704105704        0.00325862978663
C           53.90170470270578       -1.17313496471136       -0.29199866794409
C           53.23650304427775       -2.41204178505782       -0.56758452775647
C           54.19796231423640       -3.34613686634519       -0.77713574436793
C           55.46544646921239       -2.68186871128089       -0.64990696126487
N           55.24851202514345       -1.36365872283096       -0.35151045211942
C           56.71574737663703       -3.29968943426790       -0.77317331682490
C           56.72658364855835       -4.74959030395719       -1.08262109465561
C           57.29057914098448       -5.65669984755591       -0.17998319713420
C           57.30193298974805       -7.01130941667930       -0.45759946824307
C           56.74934603803250       -7.46391320027178       -1.65247813509278
N           56.76118968506957       -8.88458991740411       -1.95086180291135
O           57.25932943914894       -9.62110143899615       -1.13839509352703
O           56.27196166986958       -9.23976664167303       -2.99265946970232
C           56.18670982644780       -6.57753652798815       -2.56665167756238
C           56.17579284430124       -5.22542440963105       -2.27649361760658
C           57.95929851148513       -2.67194240179444       -0.63012643840392
C           59.24109062244035       -3.30117945210893       -0.81459839002023
C           60.18575733061198       -2.34767550250000       -0.62269236879234
C           59.49385633715210       -1.12383476204117       -0.32778254731385
N           58.14763296694634       -1.35289198338560       -0.34226469475123
H           61.19127957076893        0.10688198597969       -0.09047182125317
H           61.22933719960834        2.66383987516310        0.50562791449206
H           59.34367660649887        4.51505974000999        0.95886820494975
H           55.76225545467257        4.60455726540114        2.98738777971426
H           55.75735142180141        7.02640537555624        3.53418006284391
H           57.58349606034620        7.88654335441225       -0.24531695505559
H           57.58160082504392        5.46598234918865       -0.79857183373740
H           54.01099591972263        4.47920562081291        1.01869896651958
H           52.14001683606961        2.60637479850672        0.64625911188660
H           52.16816976165764       -2.54762233028298       -0.59524592407312
H           54.06033869154808       -4.39397198851170       -0.98945504697922
H           57.70690441308440       -5.29294189929384        0.75222387624425
H           57.73039818841681       -7.72185334060717        0.23900132430879
H           55.76778268793726       -6.95467221260610       -3.49183376005902
H           55.75238255931461       -4.52425225331007       -2.98619605862510
H           59.39378507179797       -4.33708788706410       -1.07161198966155
H           61.25788127738328       -2.45017973140240       -0.68072996177950
C           39.67762341407128       -0.00842403660664       -0.01696591759110
C           40.89505129564901       -0.00913719632602       -0.00269986042944
C           50.61867484422456        0.02255068155138        0.01378532403274
C           51.83665822712634        0.03096232753696        0.01062657297474
Zn          45.75518027948475        0.00651715314174        0.01632274962281
C           42.30476623758829       -0.00499741830723        0.00646142389936
C           42.95562374055730       -1.24916754670240        0.12734370168010
C           42.28831031483026       -2.50658891489074        0.28998836093642
C           43.24917803613668       -3.46286522960970        0.35834870963489
C           44.51532736714422       -2.79640606086617        0.23616441713077
N           44.30143079932756       -1.45097899512272        0.10849084417497
C           45.76524234378506       -3.42402107662773        0.28459043191382
C           45.76660757985358       -4.90398187114830        0.38384999168935
C           46.31876264580849       -5.54245003251724        1.49823349690179
C           46.32166053210968       -6.92262842629408        1.58781687173408
C           45.77231255279512       -7.67170728054972        0.55116137852212
N           45.77716467972660       -9.12140226278462        0.63812507570240
O           45.28549465025485       -9.73610091602744       -0.27303727588278
O           46.27459067473949       -9.61923766735737        1.61548528100238
C           45.21785934031862       -7.05576246437515       -0.56726024979283
C           45.21458833477853       -5.67503803077966       -0.64382158164952
C           47.01132541667592       -2.78853249581301        0.24469237187761
C           48.28276367975935       -3.45508708235102        0.27459303199766
C           49.23732811919860       -2.49296222830508        0.20685381012027
N           47.21742441405977       -1.43894934924854        0.14349062180101
C           48.56268138407237       -1.23241053340541        0.11701920880114
C           49.20766139912894        0.01720332028994        0.01589762285769
C           48.55468132840642        1.26271888349650       -0.08381892264356
C           49.22153380624172        2.52749146899576       -0.17242105982666
C           48.26121307378718        3.48399208807897       -0.23697433528882
C           46.99384306106541        2.80962529859680       -0.20800174437666
N           47.20809863739599        1.46125244218138       -0.10895794957097
C           45.74388763927365        3.43754075729715       -0.24902817924740
C           45.73535157458764        4.91717717817561       -0.34849572580295
C           46.29309510226044        5.55934132335728       -1.45808068444560
C           46.28513834134515        6.93932932230125       -1.54931691547448
C           45.71893508561808        7.68491298314282       -0.51920509443342
N           45.71067898591095        9.13436151875497       -0.60880214897520
O           46.20408395309003        9.63497325153310       -1.58678035542080
O           45.21217549125046        9.74616588678534        0.30065044724740
C           45.15921517099041        7.06544161439232        0.59463472485607
C           45.16716196883110        5.68484254753457        0.67296526476875
C           44.49808455610768        2.80129903382691       -0.20526397737840
C           43.22813929692022        3.45932581759214       -0.33440431713411
C           42.27356814826719        2.49647520969272       -0.27324846056651
C           42.94831268910475        1.24342136253795       -0.10747874961417
N           44.29266531588548        1.45447651897049       -0.07973075729443
H           41.22053326385631       -2.63575492447881        0.35842026545371
H           43.11352875341015       -4.52337376726135        0.49644121174924
H           46.73281380263001       -4.94780104503600        2.30415073329148
H           46.74175845823363       -7.42664644247073        2.44990151765314
H           44.79962372378647       -7.66163655356659       -1.36206347195215
H           44.79589010786884       -5.18281094198583       -1.51393391028259
H           48.42782853315079       -4.52171560021733        0.33123318243164
H           50.30667170868352       -2.62260836639667        0.21677517254194
H           50.28998290256800        2.66371645611773       -0.18383483978865
H           48.40004947554122        4.55157118673551       -0.29079260427503
H           46.71966014851823        4.96745325300431       -2.25950023174185
H           46.70954092525244        7.44581235384210       -2.40783083812084
H           44.72774297384125        7.66854827118022        1.38445533832068
H           44.74431485635662        5.19026799571155        1.53973489861727
H           43.08587715440145        4.51890323521732       -0.47278194033571
H           41.20542057333829        2.61822381673109       -0.34812090632180

          :  Hamiltonian                  GFN1-xTB          :
         :: total energy            -353.803819662374 Eh    ::
         :: gradient norm              0.000811788765 Eh/a0 ::
         :: HOMO-LUMO gap              0.940621949582 eV    ::
         :: SCC energy              -358.623016082638 Eh    ::
         :: repulsion energy           4.990342883615 Eh    ::

    * Orbital Energies and Occupations

         #    Occupation            Energy/Eh            Energy/eV
      -------------------------------------------------------------
         1        2.0000           -0.9230921             -25.1186
       ...           ...                  ...                  ...
       297        2.0000           -0.4470782             -12.1656
       298        2.0000           -0.4467748             -12.1574
       299        2.0000           -0.4465138             -12.1503
       300        2.0000           -0.4462862             -12.1441
       301        2.0000           -0.4462274             -12.1425
       302        2.0000           -0.4460562             -12.1378
       303        2.0000           -0.4444812             -12.0949
       304        2.0000           -0.4208904             -11.4530
       305        2.0000           -0.4201369             -11.4325
       306        2.0000           -0.4190507             -11.4029
       307        2.0000           -0.4189848             -11.4012
       308        2.0000           -0.4104053             -11.1677
       309        2.0000           -0.4006884             -10.9033 (HOMO)
       310                         -0.3661212              -9.9627 (LUMO)
       311                         -0.3590774              -9.7710
       312                         -0.3583789              -9.7520
       313                         -0.3578562              -9.7378
       314                         -0.3549278              -9.6581
       315                         -0.3492243              -9.5029
       316                         -0.3491204              -9.5000
       317                         -0.3488454              -9.4926
       318                         -0.3440136              -9.3611
       319                         -0.3430100              -9.3338
       320                         -0.3429385              -9.3318
       ...                                ...                  ...
       632                          1.3128122              35.7234
      -------------------------------------------------------------
                  HL-Gap            0.0345672 Eh            0.9406 eV

Wiberg/Mayer (AO) data.
largest (>0.10) Wiberg bond orders for each atom

     #   Z sym  total        # sym  WBO       # sym  WBO       # sym  WBO
 ---------------------------------------------------------------------------
     1  30 Zn   1.989 --     7 N    0.459    43 N    0.459    28 N    0.454
                            21 N    0.453
     2   6 C    3.928 --    42 C    1.358     3 C    1.358    44 H    0.971
     3   6 C    3.919 --     2 C    1.358     7 N    1.232     4 C    1.169
     4   6 C    3.960 --     5 C    1.662     3 C    1.169    45 H    0.975
     5   6 C    3.963 --     4 C    1.662     6 C    1.169    46 H    0.973
     6   6 C    3.919 --     8 C    1.311     7 N    1.247     5 C    1.169
     7   7 N    3.293 --     6 C    1.247     3 C    1.232     1 Zn   0.459
     8   6 C    3.929 --    18 C    1.317     6 C    1.311     9 C    1.036
     9   6 C    3.984 --    17 C    1.382    10 C    1.382     8 C    1.036
    10   6 C    3.986 --    11 C    1.465     9 C    1.382    47 H    0.971
                            16 C    0.101
    11   6 C    3.987 --    10 C    1.465    12 C    1.386    48 H    0.965
                            17 C    0.101
    12   6 C    3.940 --    16 C    1.386    11 C    1.386    13 N    0.922
    13   7 N    3.865 --    15 O    1.454    14 O    1.453    12 C    0.922
    14   8 O    1.827 --    13 N    1.453    15 O    0.251
    15   8 O    1.828 --    13 N    1.454    14 O    0.251
    16   6 C    3.987 --    17 C    1.465    12 C    1.386    49 H    0.965
                            10 C    0.101
    17   6 C    3.986 --    16 C    1.465     9 C    1.382    50 H    0.971
                            11 C    0.101
    18   6 C    3.913 --     8 C    1.317    21 N    1.230    19 C    1.178
    19   6 C    3.959 --    20 C    1.645    18 C    1.178    51 H    0.973
    20   6 C    3.962 --    19 C    1.645    22 C    1.186    52 H    0.969
    21   7 N    3.294 --    22 C    1.260    18 C    1.230     1 Zn   0.453
    22   6 C    3.905 --    21 N    1.260    23 C    1.259    20 C    1.186
    23   6 C    3.939 --    24 C    1.259    22 C    1.259   121 C    1.179
    24   6 C    3.905 --    28 N    1.260    23 C    1.259    25 C    1.186
    25   6 C    3.962 --    26 C    1.645    24 C    1.186    53 H    0.969
    26   6 C    3.959 --    25 C    1.645    27 C    1.178    54 H    0.973
    27   6 C    3.913 --    29 C    1.317    28 N    1.231    26 C    1.178
    28   7 N    3.294 --    24 C    1.260    27 C    1.231     1 Zn   0.454
    29   6 C    3.929 --    27 C    1.317    39 C    1.311    30 C    1.036
    30   6 C    3.984 --    31 C    1.382    38 C    1.382    29 C    1.036
    31   6 C    3.986 --    32 C    1.465    30 C    1.382    55 H    0.971
                            37 C    0.101
    32   6 C    3.987 --    31 C    1.465    33 C    1.386    56 H    0.965
                            38 C    0.101
    33   6 C    3.940 --    32 C    1.386    37 C    1.386    34 N    0.922
    34   7 N    3.865 --    36 O    1.454    35 O    1.453    33 C    0.922
    35   8 O    1.827 --    34 N    1.453    36 O    0.251
    36   8 O    1.828 --    34 N    1.454    35 O    0.251
    37   6 C    3.987 --    38 C    1.465    33 C    1.386    57 H    0.965
                            31 C    0.101
    38   6 C    3.986 --    37 C    1.465    30 C    1.382    58 H    0.971
                            32 C    0.101
    39   6 C    3.919 --    29 C    1.311    43 N    1.247    40 C    1.169
    40   6 C    3.963 --    41 C    1.662    39 C    1.169    59 H    0.973
    41   6 C    3.960 --    40 C    1.662    42 C    1.169    60 H    0.975
    42   6 C    3.919 --     2 C    1.358    43 N    1.232    41 C    1.169
    43   7 N    3.293 --    39 C    1.247    42 C    1.232     1 Zn   0.459
    44   1 H    1.001 --     2 C    0.971
    45   1 H    0.997 --     4 C    0.975
    46   1 H    1.003 --     5 C    0.973
    47   1 H    1.004 --    10 C    0.971
    48   1 H    1.006 --    11 C    0.965
    49   1 H    1.006 --    16 C    0.965
    50   1 H    1.004 --    17 C    0.971
    51   1 H    1.003 --    19 C    0.973
    52   1 H    1.006 --    20 C    0.969
    53   1 H    1.006 --    25 C    0.969
    54   1 H    1.003 --    26 C    0.973
    55   1 H    1.004 --    31 C    0.971
    56   1 H    1.006 --    32 C    0.965
    57   1 H    1.006 --    37 C    0.965
    58   1 H    1.004 --    38 C    0.971
    59   1 H    1.003 --    40 C    0.973
    60   1 H    0.997 --    41 C    0.975
    61  30 Zn   1.990 --   103 N    0.459    67 N    0.458    81 N    0.454
                            88 N    0.454
    62   6 C    3.929 --   102 C    1.359    63 C    1.358   104 H    0.971
    63   6 C    3.919 --    62 C    1.358    67 N    1.232    64 C    1.169
    64   6 C    3.961 --    65 C    1.662    63 C    1.169   105 H    0.975
    65   6 C    3.963 --    64 C    1.662    66 C    1.169   106 H    0.973
    66   6 C    3.919 --    68 C    1.313    67 N    1.247    65 C    1.169
    67   7 N    3.293 --    66 C    1.247    63 C    1.232    61 Zn   0.458
    68   6 C    3.929 --    78 C    1.319    66 C    1.313    69 C    1.032
    69   6 C    3.984 --    70 C    1.384    77 C    1.383    68 C    1.032
    70   6 C    3.987 --    71 C    1.464    69 C    1.384   107 H    0.971
                            76 C    0.101
    71   6 C    3.987 --    70 C    1.464    72 C    1.387   108 H    0.965
                            77 C    0.101
    72   6 C    3.941 --    71 C    1.387    76 C    1.386    73 N    0.922
    73   7 N    3.865 --    74 O    1.454    75 O    1.454    72 C    0.922
    74   8 O    1.828 --    73 N    1.454    75 O    0.251
    75   8 O    1.828 --    73 N    1.454    74 O    0.251
    76   6 C    3.987 --    77 C    1.464    72 C    1.386   109 H    0.965
                            70 C    0.101
    77   6 C    3.986 --    76 C    1.464    69 C    1.383   110 H    0.971
                            71 C    0.101
    78   6 C    3.913 --    68 C    1.319    81 N    1.229    79 C    1.178
    79   6 C    3.959 --    80 C    1.646    78 C    1.178   111 H    0.973
    80   6 C    3.962 --    79 C    1.646    82 C    1.186   112 H    0.966
    81   7 N    3.295 --    82 C    1.260    78 C    1.229    61 Zn   0.454
    82   6 C    3.905 --    81 N    1.260    83 C    1.259    80 C    1.186
    83   6 C    3.940 --    84 C    1.259    82 C    1.259   124 C    1.179
    84   6 C    3.905 --    88 N    1.260    83 C    1.259    85 C    1.186
    85   6 C    3.962 --    86 C    1.646    84 C    1.186   113 H    0.967
    86   6 C    3.959 --    85 C    1.646    87 C    1.178   114 H    0.973
    87   6 C    3.913 --    89 C    1.319    88 N    1.230    86 C    1.178
    88   7 N    3.295 --    84 C    1.260    87 C    1.230    61 Zn   0.454
    89   6 C    3.929 --    87 C    1.319    99 C    1.312    90 C    1.033
    90   6 C    3.984 --    98 C    1.383    91 C    1.383    89 C    1.033
    91   6 C    3.986 --    92 C    1.464    90 C    1.383   115 H    0.971
                            97 C    0.101
    92   6 C    3.987 --    91 C    1.464    93 C    1.386   116 H    0.965
                            98 C    0.101
    93   6 C    3.941 --    97 C    1.386    92 C    1.386    94 N    0.922
    94   7 N    3.865 --    95 O    1.454    96 O    1.453    93 C    0.922
    95   8 O    1.828 --    94 N    1.454    96 O    0.251
    96   8 O    1.828 --    94 N    1.453    95 O    0.251
    97   6 C    3.987 --    98 C    1.464    93 C    1.386   117 H    0.965
                            91 C    0.101
    98   6 C    3.987 --    97 C    1.464    90 C    1.383   118 H    0.971
                            92 C    0.101
    99   6 C    3.919 --    89 C    1.312   103 N    1.247   100 C    1.169
   100   6 C    3.963 --   101 C    1.662    99 C    1.169   119 H    0.973
   101   6 C    3.961 --   100 C    1.662   102 C    1.168   120 H    0.975
   102   6 C    3.919 --    62 C    1.359   103 N    1.232   101 C    1.168
   103   7 N    3.293 --    99 C    1.247   102 C    1.232    61 Zn   0.459
   104   1 H    1.001 --    62 C    0.971
   105   1 H    0.997 --    64 C    0.975
   106   1 H    1.003 --    65 C    0.973
   107   1 H    1.004 --    70 C    0.971
   108   1 H    1.006 --    71 C    0.965
   109   1 H    1.006 --    76 C    0.965
   110   1 H    1.003 --    77 C    0.971
   111   1 H    1.004 --    79 C    0.973
   112   1 H    1.007 --    80 C    0.966
   113   1 H    1.007 --    85 C    0.967
   114   1 H    1.004 --    86 C    0.973
   115   1 H    1.003 --    91 C    0.971
   116   1 H    1.006 --    92 C    0.965
   117   1 H    1.006 --    97 C    0.965
   118   1 H    1.004 --    98 C    0.971
   119   1 H    1.003 --   100 C    0.973
   120   1 H    0.997 --   101 C    0.975
   121   6 C    3.931 --   122 C    2.575    23 C    1.179
   122   6 C    3.934 --   121 C    2.575   126 C    1.181
   123   6 C    3.934 --   124 C    2.576   147 C    1.180
   124   6 C    3.931 --   123 C    2.576    83 C    1.179
   125  30 Zn   1.988 --   152 N    0.456   145 N    0.455   167 N    0.455
                           131 N    0.455
   126   6 C    3.929 --   166 C    1.257   127 C    1.257   122 C    1.181
   127   6 C    3.905 --   131 N    1.260   126 C    1.257   128 C    1.187
   128   6 C    3.960 --   129 C    1.644   127 C    1.187   168 H    0.969
   129   6 C    3.960 --   128 C    1.644   130 C    1.180   169 H    0.973
   130   6 C    3.912 --   132 C    1.316   131 N    1.229   129 C    1.180
   131   7 N    3.290 --   127 C    1.260   130 C    1.229   125 Zn   0.455
   132   6 C    3.925 --   142 C    1.317   130 C    1.316   133 C    1.031
   133   6 C    3.984 --   134 C    1.384   141 C    1.384   132 C    1.031
   134   6 C    3.987 --   135 C    1.463   133 C    1.384   170 H    0.971
                           140 C    0.101
   135   6 C    3.987 --   134 C    1.463   136 C    1.387   171 H    0.965
                           141 C    0.102
   136   6 C    3.941 --   135 C    1.387   140 C    1.387   137 N    0.921
   137   7 N    3.866 --   138 O    1.455   139 O    1.454   136 C    0.921
   138   8 O    1.830 --   137 N    1.455   139 O    0.252
   139   8 O    1.829 --   137 N    1.454   138 O    0.252
   140   6 C    3.987 --   141 C    1.464   136 C    1.387   172 H    0.965
                           134 C    0.101
   141   6 C    3.986 --   140 C    1.464   133 C    1.384   173 H    0.971
                           135 C    0.102
   142   6 C    3.912 --   132 C    1.317   145 N    1.227   143 C    1.180
   143   6 C    3.960 --   144 C    1.644   142 C    1.180   174 H    0.973
   144   6 C    3.960 --   143 C    1.644   146 C    1.187   175 H    0.966
   145   7 N    3.290 --   146 C    1.260   142 C    1.227   125 Zn   0.455
   146   6 C    3.905 --   145 N    1.260   147 C    1.257   144 C    1.187
   147   6 C    3.929 --   148 C    1.257   146 C    1.257   123 C    1.180
   148   6 C    3.905 --   152 N    1.260   147 C    1.257   149 C    1.187
   149   6 C    3.960 --   150 C    1.644   148 C    1.187   176 H    0.966
   150   6 C    3.960 --   149 C    1.644   151 C    1.180   177 H    0.973
   151   6 C    3.912 --   153 C    1.317   152 N    1.228   150 C    1.180
   152   7 N    3.290 --   148 C    1.260   151 C    1.228   125 Zn   0.456
   153   6 C    3.925 --   151 C    1.317   163 C    1.316   154 C    1.032
   154   6 C    3.984 --   155 C    1.384   162 C    1.383   153 C    1.032
   155   6 C    3.987 --   156 C    1.463   154 C    1.384   178 H    0.971
                           161 C    0.101
   156   6 C    3.987 --   155 C    1.463   157 C    1.387   179 H    0.965
                           162 C    0.102
   157   6 C    3.941 --   156 C    1.387   161 C    1.387   158 N    0.921
   158   7 N    3.866 --   160 O    1.455   159 O    1.454   157 C    0.921
   159   8 O    1.829 --   158 N    1.454   160 O    0.252
   160   8 O    1.830 --   158 N    1.455   159 O    0.252
   161   6 C    3.987 --   162 C    1.464   157 C    1.387   180 H    0.965
                           155 C    0.101
   162   6 C    3.986 --   161 C    1.464   154 C    1.383   181 H    0.971
                           156 C    0.102
   163   6 C    3.912 --   153 C    1.316   167 N    1.229   164 C    1.180
   164   6 C    3.960 --   165 C    1.644   163 C    1.180   182 H    0.973
   165   6 C    3.960 --   164 C    1.644   166 C    1.187   183 H    0.969
   166   6 C    3.905 --   167 N    1.260   126 C    1.257   165 C    1.187
   167   7 N    3.290 --   166 C    1.260   163 C    1.229   125 Zn   0.455
   168   1 H    1.006 --   128 C    0.969
   169   1 H    1.003 --   129 C    0.973
   170   1 H    1.003 --   134 C    0.971
   171   1 H    1.006 --   135 C    0.965
   172   1 H    1.006 --   140 C    0.965
   173   1 H    1.003 --   141 C    0.971
   174   1 H    1.004 --   143 C    0.973
   175   1 H    1.007 --   144 C    0.966
   176   1 H    1.007 --   149 C    0.966
   177   1 H    1.004 --   150 C    0.973
   178   1 H    1.004 --   155 C    0.971
   179   1 H    1.006 --   156 C    0.965
   180   1 H    1.006 --   161 C    0.965
   181   1 H    1.003 --   162 C    0.971
   182   1 H    1.003 --   164 C    0.973
   183   1 H    1.006 --   165 C    0.969
 ---------------------------------------------------------------------------

           -------------------------------------------------
          | TOTAL ENERGY             -353.803819662374 Eh   |
          | GRADIENT NORM               0.000811788765 Eh/α |
          | HOMO-LUMO GAP               0.940621949582 eV   |
           -------------------------------------------------

 * finished run on 2022/07/30 at 10:00:27.170
