   * xtb version 6.5.1 (b24c23e) compiled by 'conda@728c89f4b128' on 2022-07-12
          program call               : xtb Co_Ph2OMe_C4_3.xyz --gfn 1 --opt -T 48

   ID    Z sym.   atoms
    1   27 Co     1, 73, 153
    2    6 C      2-6, 8-11, 13-21, 23-27, 29-33, 36, 37, 39-43, 45, 74-78,
                  80-83, 85-93, 95-99, 101-105, 108, 109, 111-115, 117,
                  145-152, 154-158, 160-163, 165-173, 175-179, 181-185, 188,
                  189, 191-195, 197
    3    7 N      7, 12, 34, 35, 79, 84, 106, 107, 159, 164, 186, 187
    4    8 O      22, 28, 38, 44, 94, 100, 110, 116, 174, 180, 190, 196
    5    1 H      46-72, 118-144, 198-223

          :  Hamiltonian                  GFN1-xTB          :
 * total energy  :  -392.6601628 Eh     change        0.1841653E-07 Eh
 * total energy  :  -392.8728315 Eh     change       -0.2126687E+00 Eh
 * total energy  :  -392.9501838 Eh     change       -0.7735228E-01 Eh
 * total energy  :  -392.9985862 Eh     change       -0.4840237E-01 Eh
 * total energy  :  -393.0237228 Eh     change       -0.2513661E-01 Eh
 * total energy  :  -393.0419749 Eh     change       -0.1825207E-01 Eh
 * total energy  :  -393.0545903 Eh     change       -0.1261542E-01 Eh
 * total energy  :  -393.0673286 Eh     change       -0.1273826E-01 Eh
 * total energy  :  -393.0853685 Eh     change       -0.1803990E-01 Eh
 * total energy  :  -393.1072824 Eh     change       -0.2191392E-01 Eh
 * total energy  :  -393.4722859 Eh     change       -0.1205568E-04 Eh
 * total energy  :  -393.4722982 Eh     change       -0.1231898E-04 Eh
 * total energy  :  -393.4723104 Eh     change       -0.1213055E-04 Eh
 * total energy  :  -393.4723208 Eh     change       -0.1039794E-04 Eh
 * total energy  :  -393.4723305 Eh     change       -0.9736000E-05 Eh
 * total energy  :  -393.4723408 Eh     change       -0.1024484E-04 Eh
 * total energy  :  -393.4723507 Eh     change       -0.9926645E-05 Eh
 * total energy  :  -393.4723599 Eh     change       -0.9226323E-05 Eh
 * total energy  :  -393.4723638 Eh     change       -0.3937683E-05 Eh
   *** GEOMETRY OPTIMIZATION CONVERGED AFTER 152 ITERATIONS ***

 final structure:
================
223
 xtb: 6.5.1 (b24c23e)
Co          31.22837280940336        0.00958946643204        0.06518187605089
C           27.84870109952263       -0.05656351206273        0.15741396398008
C           28.51853696037758        0.58959006573372        1.17327151919387
C           27.85868150305530        1.24152040572195        2.26365627018068
C           28.81447947339135        1.90688214103657        2.95244814438018
C           30.05845142749134        1.65422783529299        2.28675607451751
N           29.87188580381884        0.81214765825701        1.21934316946803
C           31.24813910677280        2.28967613711929        2.60721131293485
C           32.43205344263885        2.01322343856959        1.94450472674489
C           33.68563288650422        2.62198593886664        2.27346742564633
C           34.63520130763967        1.97349493291953        1.55902344889787
N           32.60927215323923        1.02511791628101        1.00200240712754
C           33.95950267352892        0.97351958494674        0.79345529722053
C           34.62816550224482        0.02766265539456        0.01633615954683
C           33.94706028726468       -0.91279522893655       -0.75582941416533
C           34.60906014548339       -1.89988650513485       -1.55014133934758
C           33.64743483621902       -2.53076976789460       -2.26423703583758
C           32.40135791575767       -1.92334894078925       -1.90645147252929
C           31.19770577610720       -2.21868366081757       -2.52365615230333
C           31.18820411551580       -3.19000296460220       -3.65124639712574
C           31.78659044796015       -2.86012094609928       -4.87470004717672
O           32.33897104877586       -1.62090722732491       -4.95005077211426
C           32.98271271932234       -1.19324118147827       -6.13291143324638
C           31.78336532418751       -3.77209915722471       -5.92969120154343
C           31.18675927846460       -5.01165854805634       -5.75510473478886
C           30.59023354185063       -5.36091623522785       -4.55301063087852
C           30.58862699230787       -4.44737682548637       -3.49931984602080
O           30.03830097037341       -4.69999693609698       -2.28272519269571
C           29.41508680775403       -5.94094949457049       -2.02145313683720
C           30.00320815637028       -1.64549285487565       -2.11751121853922
C           28.73903872852122       -1.91139292068525       -2.73823050828292
C           27.79531887903400       -1.30998819832598       -1.97755246101211
C           28.48569968247983       -0.66857850936203       -0.89964136677738
N           29.84197383093889       -0.83847408299045       -1.01958615232771
N           32.59305478048517       -0.96176061815345       -0.94073039365923
C           31.25358485188490        3.30060814060121        3.70021468037656
C           31.09635657827158        2.90533275093618        5.03486631600805
O           30.95049270843270        1.57025833515054        5.24528234563745
C           30.77164143066673        1.06696090909873        6.55352610870326
C           31.10330292668038        3.85437959279328        6.05667081107959
C           31.26227355804386        5.19475555370849        5.73874697368207
C           31.41611051386996        5.60976554848874        4.42458228961175
C           31.41392973546652        4.66035039382039        3.40317789639089
O           31.55206050588556        4.96736966887903        2.08633807308144
C           31.70657141156326        6.31076641899640        1.67619379516599
H           26.76547363272854       -0.07605456355801        0.18678066211385
H           26.79696838376019        1.19703853717528        2.44893669281798
H           28.70155630259321        2.52567083522877        3.82767403929068
H           33.81072280512012        3.43079923228819        2.97465868712287
H           35.70104499428353        2.13637219999563        1.54630418271194
H           35.67416329519499       -2.06779287806642       -1.55401673802978
H           33.75769088003403       -3.33027561779284       -2.97876841578216
H           32.28826560089455       -1.16544293292106       -6.98142967206572
H           33.34488796700499       -0.18306105222231       -5.93307580991548
H           33.83414301342953       -1.83810675485211       -6.38248492102666
H           32.23953591284562       -3.52591267964751       -6.87921213610407
H           31.18692588761714       -5.72197119939307       -6.57463361436162
H           30.13446381101836       -6.33599669527666       -4.44451272231677
H           29.05718666235278       -5.88998899238252       -0.99144881461715
H           28.56283083691196       -6.11171111447308       -2.69044043567892
H           30.12252508549697       -6.77376391814584       -2.11601764868046
H           28.60777524517118       -2.49716865940697       -3.63369951967699
H           26.72508782853674       -1.29462582669282       -2.11150428176525
H           30.66971842822009       -0.01504883257271        6.45143771580292
H           29.86458331088679        1.47155575734934        7.01903265025310
H           31.63592181034871        1.28857495842107        7.19136195346280
H           30.98664510931712        3.55930062780565        7.09088288048745
H           31.26606310355449        5.93281247899335        6.53336434704631
H           31.53614791995886        6.66231671261987        4.20551226593900
H           32.61402774743772        6.75856012298771        2.09930188848692
H           31.79209132686998        6.28809661998284        0.58820976948637
H           30.83786972133993        6.91883643489293        1.95651556774967
Co          58.00107179266420       -0.16690385489847        0.05689874906056
C           61.34923644757585       -0.49312602983590        0.26718609686187
C           60.66397481086318       -1.30776867222710       -0.60871460471218
C           61.29576111983853       -2.28069191597647       -1.44780512723398
C           60.35752827633550       -2.69993206706209       -2.32903256845528
C           59.14836902968176       -1.99797053429181       -2.01475589427801
N           59.33635205387839       -1.17891353978393       -0.93142220974874
C           57.99557568109038       -2.04189189052685       -2.78733495560240
C           56.83365010290223       -1.39071685670379       -2.40826889477651
C           55.59820801418044       -1.47987121352779       -3.12693710771750
C           54.64068401320112       -0.95337921989687       -2.32644860405947
N           56.64018972896807       -0.75294092160166       -1.20254857702258
C           55.29579957443968       -0.52987400211251       -1.12935509668111
C           54.61485469518402       -0.05035083939483       -0.00584436911654
C           55.29237523798734        0.45855341993403        1.10529287709696
C           54.63053800593205        1.01778568587348        2.24199091336058
C           55.58789299310232        1.61393637328142        2.99269720698903
C           56.83261432520332        1.40647127734536        2.31711205375737
C           58.03750004894994        1.96084150360012        2.71910275610599
C           58.04347041051463        2.90525670745848        3.86803126106158
C           57.41713392307805        4.15456530144573        3.75630933847116
O           56.84639463736791        4.42700704219455        2.55409191459521
C           56.16021759299487        5.64460389467756        2.34474850588752
C           57.41535129371460        5.04159276544694        4.83226563414787
C           58.03363186539505        4.67419608443733        6.01775454992365
C           58.65523433865754        3.44218294261035        6.15351349449917
C           58.66167536562777        2.55622153303531        5.07667415599079
O           59.23251687972115        1.32357776085433        5.11945859298259
C           59.88810530470406        0.87680029986736        6.28887589579825
C           59.23625261355186        1.63169288929390        2.10328408674344
C           60.51404855008878        2.13992720728635        2.50781112617810
C           61.44949045098442        1.41998173580118        1.84527811010599
C           60.74150415399692        0.49267153062299        1.01545143370442
N           59.38686454668669        0.66805445008871        1.13825375035768
N           56.64280560688034        0.65042227340528        1.18373267964038
C           57.99488921155112       -2.83641655136352       -4.04551616626156
C           58.04333828596600       -4.23594433996690       -4.00375358434306
O           58.08929897559710       -4.79206982090039       -2.76421664421115
C           58.12153892585668       -6.19654176986155       -2.60988386517961
C           58.03194015210937       -4.97692195952456       -5.18502784148027
C           57.97584140560241       -4.31545518337656       -6.40244849900230
C           57.92781489818160       -2.93112956965506       -6.46829788582271
C           57.93366843235298       -2.19008932196618       -5.28712459820086
O           57.89131312263478       -0.83220490925674       -5.24673077838969
C           57.81646559899160       -0.08195512084998       -6.44193687429535
H           62.42383945865048       -0.61060931977830        0.34557845132411
H           62.33170675929549       -2.57162240007722       -1.37254836987396
H           60.46273082038591       -3.41426065304924       -3.12913306838985
H           55.48697984939373       -1.91395327188495       -4.10708347312377
H           53.58257119142151       -0.85880648900746       -2.51125567684945
H           53.56750617975162        0.96931800146931        2.41620558428374
H           55.47485208161760        2.15202309236510        3.91991745954992
H           56.82888327269931        6.50720501358192        2.45286533216830
H           55.78440697536816        5.60865687867543        1.32055427499196
H           55.31482486735249        5.75236980782975        3.03509558914958
H           56.93897540540729        6.00964912771553        4.75399377933072
H           58.03026799788442        5.36318362293861        6.85524211759698
H           59.12632859491240        3.18042544320690        7.09148217024288
H           60.26165241914166       -0.12389716623306        6.06376850316748
H           60.73292461753685        1.52617843398666        6.54886407577483
H           59.19865045812707        0.82073166794110        7.13997270346067
H           60.65983949980384        2.93094523503439        3.22548652391738
H           62.52428413272210        1.49390360168755        1.89911070462330
H           58.15143620820073       -6.38320318414945       -1.53480541500845
H           59.01406654165355       -6.63187621217138       -3.07560423915109
H           57.22583096927832       -6.66755065718073       -3.03252401252298
H           58.06545906977929       -6.05795510544937       -5.16367085994015
H           57.96852337496533       -4.89204404353440       -7.32091061097548
H           57.88517806514600       -2.44156534529894       -7.43199817035740
H           56.90990198686873       -0.32201852049021       -7.01072012495487
H           57.78315839859845        0.96664284928763       -6.14050156330137
H           58.69624895696320       -0.24670268569871       -7.07575578803513
C           37.25640765153295        0.02669009254924       -0.01969134236373
C           36.03531203070480        0.02906970747157        0.00138189224718
C           38.60784442579476        0.02484879540379       -0.03650104422522
C           39.82928858231807        0.01920549477911       -0.04825735827498
C           50.64252289867393       -0.04746195478156       -0.03585073447949
C           49.41936648346816       -0.04405443576392       -0.04814608068253
C           51.99006957285119       -0.04894096543004       -0.02474828534143
C           53.21312334822554       -0.04631950784265       -0.01342773410304
Co          44.62689279884254        0.03707734312096       -0.05552188453664
C           41.23478071031084        0.01231542600977       -0.05203344939647
C           41.91355417396904       -0.18921153773539        1.15190230943122
C           41.25999146692529       -0.42948095241002        2.39991612883879
C           42.21783035633702       -0.37009082039204        3.35647666871704
C           43.45061479091630       -0.08274803874683        2.68890004340710
N           43.26141974073902       -0.04545266807539        1.32714096451563
C           44.62995570578807        0.25292052163363        3.33749813094583
C           45.80668218707255        0.49127954735027        2.64357622303716
C           47.03748543660725        0.89183812509731        3.25315829683716
C           47.99303963226776        0.81042500202546        2.29503181473456
N           45.99680669062373        0.23129377584876        1.30640047342494
C           47.33993370205015        0.36774433415117        1.10405423779038
C           48.01856375320800       -0.03484407915973       -0.05119351814797
C           47.33378609915792       -0.42423855935394       -1.20683571628986
C           47.98226704996880       -0.86765450487216       -2.40042055941081
C           47.02586590253694       -0.93586001176013       -3.35825178423927
C           45.79914158462159       -0.52471129192036       -2.74672368509869
C           44.62733642505165       -0.26655876887314       -3.44093488906683
C           44.62915700317365       -0.36903478401161       -4.92414982147114
C           43.86583460000654       -1.35255749468122       -5.56909913029380
O           43.16345509288376       -2.18618399519632       -4.75887741250916
C           42.34779195402960       -3.20205242202796       -5.30677701755275
C           43.86797382089471       -1.44698428784466       -6.96036613127509
C           44.62819912510036       -0.55552872944200       -7.70195882578976
C           45.38908301804504        0.42682239825824       -7.08665742589066
C           45.39220672825019        0.51928781124508       -5.69525732618663
O           46.09474979985484        1.45449023828117       -5.00459090957565
C           46.91285268763443        2.38507814943962       -5.68454047916869
C           43.45234277150809        0.08737570714704       -2.79247887443869
C           42.22597168240666        0.40260967804485       -3.45871239854409
C           41.26779444666550        0.47117194536052       -2.50228326210329
C           41.91527859297303        0.20932400655540       -1.25598166524658
N           43.25867023503331        0.03222145036615       -1.43275512188163
N           45.99012338091430       -0.28358916149592       -1.40508734775728
C           44.63407164668367        0.36078207193637        4.82016961637797
C           45.38508905700080       -0.53701518475773        5.59234857830815
O           46.06928719948234       -1.48600087187123        4.90260984937099
C           46.87152277120844       -2.43046568987421        5.58243168745801
C           45.38858270452487       -0.43855208740426        6.98324593207788
C           44.64605467435850        0.55892923686982        7.59674912174356
C           43.89790640279258        1.45957131672874        6.85399912875382
C           43.88948253864436        1.35959327397577        5.46311461875989
O           43.19895184219160        2.20210552554697        4.65156422568885
C           42.39793415022491        3.23010643174692        5.19864790873167
H           40.20236816109566       -0.60626047376421        2.51263876773376
H           42.10979798442371       -0.48986989971746        4.42218294483899
H           47.14581274399601        1.18190464124789        4.28565269351909
H           49.04867684057857        1.01527576096431        2.37460995827683
H           49.03623560570466       -1.08068343017072       -2.48095221045840
H           47.13156854818072       -1.21946453706301       -4.39280002891836
H           41.56048550565284       -2.78378586058273       -5.94558249340922
H           41.88780163307394       -3.71193068774153       -4.45832483556996
H           42.93801752997892       -3.92387165416291       -5.88419194299887
H           43.28569305148860       -2.20508085633566       -7.46674338969348
H           44.62758425298445       -0.62787151697546       -8.78402403664068
H           45.97043509360832        1.11082898991534       -7.69026975387028
H           47.37517373899501        3.00306210698631       -4.91263970683623
H           46.32420995500409        3.02458653102425       -6.35338566865738
H           47.69829203588338        1.88236453466138       -6.26175769518376
H           42.12178201711818        0.53622823313869       -4.52322745111865
H           40.21404664722814        0.67068631921790       -2.61410334159745
H           46.27344233969777       -3.05411818747574        6.25778298173863
H           47.31597778523126       -3.06170863261606        4.81077875194218
H           47.67082292685386       -1.94164163912491        6.15248315111110
H           45.96127892807574       -1.12904791343403        7.58772445400513
H           44.65056236900926        0.63607533389177        8.67846009982780
H           43.33010116477782        2.22938284801743        7.35913367312339
H           42.99893851491571        3.94551955855004        5.77291692002290
H           41.60667893866395        2.82378211159902        5.84018723784762
H           41.94285965477478        3.74398544917367        4.34994119988089

          :  Hamiltonian                  GFN1-xTB          :
         :: total energy            -393.472363857830 Eh    ::
         :: gradient norm              0.000432612782 Eh/a0 ::
         :: HOMO-LUMO gap              0.009698600290 eV    ::
         :: SCC energy              -398.983618090138 Eh    ::
         :: repulsion energy           5.708763266949 Eh    ::

    * Orbital Energies and Occupations

         #    Occupation            Energy/Eh            Energy/eV
      -------------------------------------------------------------
         1        2.0000           -0.8070544             -21.9611
       ...           ...                  ...                  ...
       340        2.0000           -0.3790948             -10.3157
       341        2.0000           -0.3786220             -10.3028
       342        2.0000           -0.3785536             -10.3010
       343        1.9999           -0.3759006             -10.2288
       344        1.9998           -0.3756233             -10.2212
       345        1.9998           -0.3756226             -10.2212
       346        1.9998           -0.3755897             -10.2203
       347        1.9997           -0.3753351             -10.2134
       348        1.9997           -0.3753270             -10.2132
       349        1.9982           -0.3735195             -10.1640
       350        1.8414           -0.3691506             -10.0451
       351        1.1458           -0.3669727              -9.9858
       352        1.0926           -0.3668596              -9.9828 (HOMO)
       353        0.9233           -0.3665032              -9.9731 (LUMO)
       354                         -0.3264166              -8.8822
       355                         -0.3156805              -8.5901
       356                         -0.3129136              -8.5148
       357                         -0.3114775              -8.4757
       358                         -0.3106866              -8.4542
       359                         -0.3092159              -8.4142
       360                         -0.2881743              -7.8416
       361                         -0.2782133              -7.5706
       362                         -0.2779711              -7.5640
       363                         -0.2773154              -7.5461
       ...                                ...                  ...
       747                          1.5288528              41.6022
      -------------------------------------------------------------
                  HL-Gap            0.0003564 Eh            0.0097 eV

Wiberg/Mayer (AO) data.
largest (>0.10) Wiberg bond orders for each atom

     #   Z sym  total        # sym  WBO       # sym  WBO       # sym  WBO
 ---------------------------------------------------------------------------
     1  27 Co   3.026 --     7 N    0.640    34 N    0.639    12 N    0.636
                            35 N    0.636
     2   6 C    3.934 --    33 C    1.366     3 C    1.366    46 H    0.970
     3   6 C    3.926 --     2 C    1.366     7 N    1.203     4 C    1.173
     4   6 C    3.960 --     5 C    1.651     3 C    1.173    47 H    0.976
     5   6 C    3.963 --     4 C    1.651     6 C    1.176    48 H    0.974
     6   6 C    3.919 --     8 C    1.327     7 N    1.209     5 C    1.176
     7   7 N    3.351 --     6 C    1.209     3 C    1.203     1 Co   0.640
     8   6 C    3.938 --     9 C    1.339     6 C    1.327    36 C    1.013
     9   6 C    3.916 --     8 C    1.339    12 N    1.192    10 C    1.180
    10   6 C    3.960 --    11 C    1.641     9 C    1.180    49 H    0.974
    11   6 C    3.962 --    10 C    1.641    13 C    1.187    50 H    0.974
    12   7 N    3.353 --    13 C    1.229     9 C    1.192     1 Co   0.636
    13   6 C    3.909 --    14 C    1.268    12 N    1.229    11 C    1.187
    14   6 C    3.940 --    15 C    1.269    13 C    1.268   146 C    1.173
    15   6 C    3.909 --    14 C    1.269    35 N    1.228    16 C    1.186
    16   6 C    3.962 --    17 C    1.641    15 C    1.186    51 H    0.974
    17   6 C    3.960 --    16 C    1.641    18 C    1.180    52 H    0.974
    18   6 C    3.916 --    19 C    1.337    35 N    1.194    17 C    1.180
    19   6 C    3.938 --    18 C    1.337    30 C    1.327    20 C    1.015
    20   6 C    3.977 --    27 C    1.343    21 C    1.342    19 C    1.015
                            25 C    0.101
    21   6 C    3.903 --    24 C    1.362    20 C    1.342    22 O    1.032
    22   8 O    2.146 --    21 C    1.032    23 C    0.936
    23   6 C    3.908 --    54 H    0.983    55 H    0.980    53 H    0.980
                            22 O    0.936
    24   6 C    3.983 --    25 C    1.442    21 C    1.362    56 H    0.969
    25   6 C    3.993 --    26 C    1.442    24 C    1.442    57 H    0.974
                            20 C    0.101
    26   6 C    3.983 --    25 C    1.442    27 C    1.362    58 H    0.969
    27   6 C    3.903 --    26 C    1.362    20 C    1.343    28 O    1.032
    28   8 O    2.146 --    27 C    1.032    29 C    0.936
    29   6 C    3.908 --    59 H    0.983    60 H    0.980    61 H    0.980
                            28 O    0.936
    30   6 C    3.920 --    19 C    1.327    34 N    1.209    31 C    1.176
    31   6 C    3.963 --    32 C    1.651    30 C    1.176    62 H    0.974
    32   6 C    3.960 --    31 C    1.651    33 C    1.173    63 H    0.976
    33   6 C    3.926 --     2 C    1.366    34 N    1.203    32 C    1.173
    34   7 N    3.351 --    30 C    1.209    33 C    1.203     1 Co   0.639
    35   7 N    3.353 --    15 C    1.228    18 C    1.194     1 Co   0.636
    36   6 C    3.977 --    37 C    1.344    43 C    1.343     8 C    1.013
                            41 C    0.101
    37   6 C    3.903 --    40 C    1.362    36 C    1.344    38 O    1.031
    38   8 O    2.145 --    37 C    1.031    39 C    0.936
    39   6 C    3.908 --    64 H    0.983    65 H    0.980    66 H    0.980
                            38 O    0.936
    40   6 C    3.983 --    41 C    1.442    37 C    1.362    67 H    0.969
    41   6 C    3.993 --    40 C    1.442    42 C    1.442    68 H    0.974
                            36 C    0.101
    42   6 C    3.983 --    41 C    1.442    43 C    1.362    69 H    0.969
    43   6 C    3.903 --    42 C    1.362    36 C    1.343    44 O    1.031
    44   8 O    2.146 --    43 C    1.031    45 C    0.935
    45   6 C    3.908 --    71 H    0.983    70 H    0.980    72 H    0.980
                            44 O    0.935
    46   1 H    1.001 --     2 C    0.970
    47   1 H    0.998 --     4 C    0.976
    48   1 H    1.002 --     5 C    0.974
    49   1 H    1.002 --    10 C    0.974
    50   1 H    1.002 --    11 C    0.974
    51   1 H    1.002 --    16 C    0.974
    52   1 H    1.002 --    17 C    0.974
    53   1 H    1.009 --    23 C    0.980
    54   1 H    1.015 --    23 C    0.983
    55   1 H    1.009 --    23 C    0.980
    56   1 H    1.000 --    24 C    0.969
    57   1 H    1.003 --    25 C    0.974
    58   1 H    1.000 --    26 C    0.969
    59   1 H    1.015 --    29 C    0.983
    60   1 H    1.009 --    29 C    0.980
    61   1 H    1.009 --    29 C    0.980
    62   1 H    1.002 --    31 C    0.974
    63   1 H    0.998 --    32 C    0.976
    64   1 H    1.015 --    39 C    0.983
    65   1 H    1.009 --    39 C    0.980
    66   1 H    1.009 --    39 C    0.980
    67   1 H    1.000 --    40 C    0.969
    68   1 H    1.003 --    41 C    0.974
    69   1 H    1.000 --    42 C    0.969
    70   1 H    1.009 --    45 C    0.980
    71   1 H    1.015 --    45 C    0.983
    72   1 H    1.009 --    45 C    0.980
    73  27 Co   3.032 --   106 N    0.637    79 N    0.636    84 N    0.633
                           107 N    0.632
    74   6 C    3.925 --    75 C    1.366   105 C    1.363   118 H    0.970
    75   6 C    3.926 --    74 C    1.366    79 N    1.201    76 C    1.173
    76   6 C    3.959 --    77 C    1.649    75 C    1.173   119 H    0.976
    77   6 C    3.963 --    76 C    1.649    78 C    1.178   120 H    0.974
    78   6 C    3.918 --    80 C    1.318    79 N    1.214    77 C    1.178
    79   7 N    3.345 --    78 C    1.214    75 C    1.201    73 Co   0.636
    80   6 C    3.929 --    81 C    1.343    78 C    1.318   108 C    1.015
    81   6 C    3.916 --    80 C    1.343    84 N    1.187    82 C    1.180
    82   6 C    3.958 --    83 C    1.639    81 C    1.180   121 H    0.974
    83   6 C    3.962 --    82 C    1.639    85 C    1.190   122 H    0.974
    84   7 N    3.346 --    85 C    1.239    81 C    1.187    73 Co   0.633
    85   6 C    3.905 --    86 C    1.252    84 N    1.239    83 C    1.190
    86   6 C    3.928 --    87 C    1.258    85 C    1.252   152 C    1.196
    87   6 C    3.905 --    86 C    1.258   107 N    1.232    88 C    1.188
    88   6 C    3.961 --    89 C    1.638    87 C    1.188   123 H    0.974
    89   6 C    3.959 --    88 C    1.638    90 C    1.182   124 H    0.974
    90   6 C    3.916 --    91 C    1.334   107 N    1.194    89 C    1.182
    91   6 C    3.929 --    90 C    1.334   102 C    1.324    92 C    1.018
    92   6 C    3.976 --    99 C    1.341    93 C    1.340    91 C    1.018
                            97 C    0.100
    93   6 C    3.903 --    96 C    1.362    92 C    1.340    94 O    1.033
    94   8 O    2.146 --    93 C    1.033    95 C    0.935
    95   6 C    3.907 --   126 H    0.983   127 H    0.980   125 H    0.980
                            94 O    0.935
    96   6 C    3.983 --    97 C    1.442    93 C    1.362   128 H    0.969
    97   6 C    3.992 --    96 C    1.442    98 C    1.442   129 H    0.974
                            92 C    0.100
    98   6 C    3.983 --    97 C    1.442    99 C    1.362   130 H    0.969
    99   6 C    3.903 --    98 C    1.362    92 C    1.341   100 O    1.032
   100   8 O    2.146 --    99 C    1.032   101 C    0.935
   101   6 C    3.907 --   131 H    0.983   132 H    0.980   133 H    0.980
                           100 O    0.935
   102   6 C    3.919 --    91 C    1.324   106 N    1.210   103 C    1.176
   103   6 C    3.963 --   104 C    1.650   102 C    1.176   134 H    0.974
   104   6 C    3.960 --   103 C    1.650   105 C    1.174   135 H    0.976
   105   6 C    3.926 --    74 C    1.363   106 N    1.205   104 C    1.174
   106   7 N    3.344 --   102 C    1.210   105 C    1.205    73 Co   0.637
   107   7 N    3.346 --    87 C    1.232    90 C    1.194    73 Co   0.632
   108   6 C    3.977 --   109 C    1.343   115 C    1.342    80 C    1.015
                           113 C    0.101
   109   6 C    3.903 --   112 C    1.362   108 C    1.343   110 O    1.031
   110   8 O    2.146 --   109 C    1.031   111 C    0.935
   111   6 C    3.907 --   136 H    0.983   137 H    0.980   138 H    0.980
                           110 O    0.935
   112   6 C    3.983 --   113 C    1.442   109 C    1.362   139 H    0.969
   113   6 C    3.992 --   112 C    1.442   114 C    1.442   140 H    0.974
                           108 C    0.101
   114   6 C    3.983 --   113 C    1.442   115 C    1.362   141 H    0.969
   115   6 C    3.903 --   114 C    1.362   108 C    1.342   116 O    1.031
   116   8 O    2.145 --   115 C    1.031   117 C    0.935
   117   6 C    3.907 --   143 H    0.983   142 H    0.980   144 H    0.980
                           116 O    0.935
   118   1 H    1.001 --    74 C    0.970
   119   1 H    0.998 --    76 C    0.976
   120   1 H    1.002 --    77 C    0.974
   121   1 H    1.002 --    82 C    0.974
   122   1 H    1.002 --    83 C    0.974
   123   1 H    1.002 --    88 C    0.974
   124   1 H    1.002 --    89 C    0.974
   125   1 H    1.009 --    95 C    0.980
   126   1 H    1.015 --    95 C    0.983
   127   1 H    1.009 --    95 C    0.980
   128   1 H    1.000 --    96 C    0.969
   129   1 H    1.003 --    97 C    0.974
   130   1 H    1.000 --    98 C    0.969
   131   1 H    1.015 --   101 C    0.983
   132   1 H    1.009 --   101 C    0.980
   133   1 H    1.009 --   101 C    0.980
   134   1 H    1.002 --   103 C    0.974
   135   1 H    0.998 --   104 C    0.976
   136   1 H    1.015 --   111 C    0.983
   137   1 H    1.009 --   111 C    0.980
   138   1 H    1.009 --   111 C    0.980
   139   1 H    1.000 --   112 C    0.969
   140   1 H    1.003 --   113 C    0.974
   141   1 H    1.000 --   114 C    0.969
   142   1 H    1.009 --   117 C    0.980
   143   1 H    1.015 --   117 C    0.983
   144   1 H    1.009 --   117 C    0.980
   145   6 C    3.934 --   146 C    2.485   147 C    1.299
   146   6 C    3.914 --   145 C    2.485    14 C    1.173   148 C    0.196
   147   6 C    3.926 --   148 C    2.482   145 C    1.299
   148   6 C    3.920 --   147 C    2.482   154 C    1.180   146 C    0.196
   149   6 C    3.925 --   150 C    2.458   151 C    1.319
   150   6 C    3.921 --   149 C    2.458   166 C    1.200   152 C    0.197
   151   6 C    3.929 --   152 C    2.460   149 C    1.319
   152   6 C    3.917 --   151 C    2.460    86 C    1.196   150 C    0.197
   153  27 Co   3.074 --   159 N    0.636   187 N    0.635   186 N    0.631
                           164 N    0.630
   154   6 C    3.923 --   155 C    1.263   185 C    1.261   148 C    1.180
   155   6 C    3.909 --   154 C    1.263   159 N    1.230   156 C    1.189
   156   6 C    3.961 --   157 C    1.638   155 C    1.189   198 H    0.974
   157   6 C    3.962 --   156 C    1.638   158 C    1.184   199 H    0.974
   158   6 C    3.914 --   160 C    1.326   159 N    1.197   157 C    1.184
   159   7 N    3.341 --   155 C    1.230   158 C    1.197   153 Co   0.636
   160   6 C    3.927 --   161 C    1.328   158 C    1.326   188 C    1.020
   161   6 C    3.914 --   160 C    1.328   164 N    1.193   162 C    1.185
   162   6 C    3.960 --   163 C    1.634   161 C    1.185   200 H    0.975
   163   6 C    3.960 --   162 C    1.634   165 C    1.192   201 H    0.974
   164   7 N    3.342 --   165 C    1.236   161 C    1.193   153 Co   0.630
   165   6 C    3.906 --   166 C    1.251   164 N    1.236   163 C    1.192
   166   6 C    3.922 --   167 C    1.254   165 C    1.251   150 C    1.200
   167   6 C    3.907 --   166 C    1.254   187 N    1.236   168 C    1.190
   168   6 C    3.961 --   169 C    1.636   167 C    1.190   202 H    0.974
   169   6 C    3.960 --   168 C    1.636   170 C    1.184   203 H    0.975
   170   6 C    3.914 --   171 C    1.333   187 N    1.191   169 C    1.184
   171   6 C    3.927 --   170 C    1.333   182 C    1.322   172 C    1.020
   172   6 C    3.976 --   179 C    1.340   173 C    1.339   171 C    1.020
   173   6 C    3.903 --   176 C    1.362   172 C    1.339   174 O    1.034
   174   8 O    2.147 --   173 C    1.034   175 C    0.934
   175   6 C    3.907 --   205 H    0.983   204 H    0.980   206 H    0.980
                           174 O    0.934
   176   6 C    3.983 --   177 C    1.442   173 C    1.362   207 H    0.969
   177   6 C    3.992 --   176 C    1.442   178 C    1.442   208 H    0.974
   178   6 C    3.983 --   177 C    1.442   179 C    1.362   209 H    0.969
   179   6 C    3.903 --   178 C    1.362   172 C    1.340   180 O    1.034
   180   8 O    2.146 --   179 C    1.034   181 C    0.934
   181   6 C    3.907 --   210 H    0.983   212 H    0.980   211 H    0.980
                           180 O    0.934
   182   6 C    3.914 --   171 C    1.322   186 N    1.198   183 C    1.185
   183   6 C    3.961 --   184 C    1.635   182 C    1.185   213 H    0.975
   184   6 C    3.961 --   183 C    1.635   185 C    1.191   214 H    0.974
   185   6 C    3.909 --   154 C    1.261   186 N    1.230   184 C    1.191
   186   7 N    3.343 --   185 C    1.230   182 C    1.198   153 Co   0.631
   187   7 N    3.340 --   167 C    1.236   170 C    1.191   153 Co   0.635
   188   6 C    3.976 --   195 C    1.340   189 C    1.339   160 C    1.020
   189   6 C    3.903 --   192 C    1.362   188 C    1.339   190 O    1.034
   190   8 O    2.147 --   189 C    1.034   191 C    0.934
   191   6 C    3.906 --   216 H    0.983   217 H    0.980   215 H    0.980
                           190 O    0.934
   192   6 C    3.983 --   193 C    1.442   189 C    1.362   218 H    0.969
   193   6 C    3.992 --   194 C    1.442   192 C    1.442   219 H    0.973
   194   6 C    3.983 --   193 C    1.442   195 C    1.362   220 H    0.969
   195   6 C    3.903 --   194 C    1.362   188 C    1.340   196 O    1.033
   196   8 O    2.146 --   195 C    1.033   197 C    0.934
   197   6 C    3.907 --   223 H    0.983   222 H    0.980   221 H    0.980
                           196 O    0.934
   198   1 H    1.002 --   156 C    0.974
   199   1 H    1.002 --   157 C    0.974
   200   1 H    1.002 --   162 C    0.975
   201   1 H    1.002 --   163 C    0.974
   202   1 H    1.002 --   168 C    0.974
   203   1 H    1.002 --   169 C    0.975
   204   1 H    1.009 --   175 C    0.980
   205   1 H    1.015 --   175 C    0.983
   206   1 H    1.009 --   175 C    0.980
   207   1 H    1.000 --   176 C    0.969
   208   1 H    1.003 --   177 C    0.974
   209   1 H    1.000 --   178 C    0.969
   210   1 H    1.015 --   181 C    0.983
   211   1 H    1.009 --   181 C    0.980
   212   1 H    1.009 --   181 C    0.980
   213   1 H    1.002 --   183 C    0.975
   214   1 H    1.002 --   184 C    0.974
   215   1 H    1.009 --   191 C    0.980
   216   1 H    1.015 --   191 C    0.983
   217   1 H    1.009 --   191 C    0.980
   218   1 H    1.000 --   192 C    0.969
   219   1 H    1.003 --   193 C    0.973
   220   1 H    1.000 --   194 C    0.969
   221   1 H    1.009 --   197 C    0.980
   222   1 H    1.009 --   197 C    0.980
   223   1 H    1.015 --   197 C    0.983
 ---------------------------------------------------------------------------

           -------------------------------------------------
          | TOTAL ENERGY             -393.472363857830 Eh   |
          | GRADIENT NORM               0.000432612782 Eh/α |
          | HOMO-LUMO GAP               0.009698600290 eV   |
           -------------------------------------------------

 * finished run on 2022/07/30 at 03:38:25.440
