   * xtb version 6.5.1 (b24c23e) compiled by 'conda@728c89f4b128' on 2022-07-12
          program call               : xtb Co_Py_C8_2.xyz --gfn 1 --opt -T 48

   ID    Z sym.   atoms
    1   27 Co     1, 55
    2    6 C      2-6, 8-11, 13-17, 19-24, 26-29, 31-36, 56-60, 62-65, 67-71,
                  73-78, 80-83, 85-90, 109-116
    3    7 N      7, 12, 18, 25, 30, 37, 61, 66, 72, 79, 84, 91
    4    1 H      38-54, 92-108
########################################################################
[WARNING] Please study the warnings concerning your input carefully
-1- prog_main_parseArguments: Unknown option '-T' provided
########################################################################

          :  Hamiltonian                  GFN1-xTB          :
 * total energy  :  -206.7515542 Eh     change       -0.1872309E-08 Eh
 * total energy  :  -207.0047771 Eh     change       -0.2532229E+00 Eh
 * total energy  :  -207.0788824 Eh     change       -0.7410523E-01 Eh
 * total energy  :  -207.1073478 Eh     change       -0.2846545E-01 Eh
 * total energy  :  -207.1185998 Eh     change       -0.1125200E-01 Eh
 * total energy  :  -207.1245357 Eh     change       -0.5935914E-02 Eh
 * total energy  :  -207.1263961 Eh     change       -0.1860350E-02 Eh
 * total energy  :  -207.1283587 Eh     change       -0.1962672E-02 Eh
 * total energy  :  -207.1292996 Eh     change       -0.9408381E-03 Eh
 * total energy  :  -207.1301501 Eh     change       -0.8505404E-03 Eh
 * total energy  :  -207.1324782 Eh     change       -0.9137479E-05 Eh
 * total energy  :  -207.1324882 Eh     change       -0.9962132E-05 Eh
 * total energy  :  -207.1324977 Eh     change       -0.9511976E-05 Eh
 * total energy  :  -207.1325056 Eh     change       -0.7936137E-05 Eh
 * total energy  :  -207.1325131 Eh     change       -0.7509327E-05 Eh
 * total energy  :  -207.1325214 Eh     change       -0.8305610E-05 Eh
 * total energy  :  -207.1325304 Eh     change       -0.8947852E-05 Eh
 * total energy  :  -207.1325368 Eh     change       -0.6364831E-05 Eh
 * total energy  :  -207.1325412 Eh     change       -0.4419941E-05 Eh
   *** GEOMETRY OPTIMIZATION CONVERGED AFTER 42 ITERATIONS ***

 final structure:
================
116
 xtb: 6.5.1 (b24c23e)
Co           9.83984529837116       -0.03722606986055       -0.05687570469783
C            6.46654600662114       -0.06736570600508       -0.12170967997283
C            7.13594814838281       -1.26620395613910       -0.24051844118597
C            6.48136786509691       -2.53070089509278       -0.38704785161978
C            7.43523989418485       -3.48018499639193       -0.24417002379270
C            8.67474647658170       -2.79403911815697       -0.02325461340523
N            8.48662248325371       -1.43628909091633       -0.06579362533711
C            9.85674415540553       -3.41992064757797        0.34974650823194
C            9.86184803948375       -4.88943223084289        0.53895663515540
C           10.07700702931438       -5.45376449603126        1.79518453441418
C           10.07012859199576       -6.83376336644681        1.92475831436668
N            9.87049629517499       -7.65628074835893        0.90005349714439
C            9.66761193455241       -7.12542765432736       -0.30134800898034
C            9.65233118126676       -5.75841073228353       -0.53049788189693
C           11.03438396955628       -2.71513881976828        0.54303870370836
C           12.28559810694098       -3.32671858564740        0.87740596952773
C           13.23605699856645       -2.37123774246143        0.74381663683829
N           11.21473472754877       -1.37988811112516        0.25760102010710
C           12.56422744715107       -1.17976990809395        0.33152685932753
C           13.23350750254987       -0.01692768023573       -0.06003415813586
C           12.54496945678344        1.14727824955405       -0.41098480500719
C           13.19322480037660        2.35189548324719       -0.82211576217121
C           12.23456539242660        3.30751950602512       -0.88221011565546
C           11.00386490433357        2.68208218600416       -0.50257632602680
N           11.19891775079501        1.33972805513768       -0.27236653024443
C            9.81200923150707        3.36350873369712       -0.30409038586778
C            9.80269344348247        4.83842911945143       -0.41911542929529
C            8.99595009415977        5.48785596352272       -1.35307325818494
C            9.02725010550618        6.87142136407321       -1.42677324086050
N            9.79217421759454        7.62163514415591       -0.64025935521448
C           10.56259618612364        7.01075065159656        0.25413633570339
C           10.60446790945059        5.63316389093745        0.39957361725526
C            8.62641255301082        2.69947733585106       -0.01944963594017
C            7.37168751844383        3.35355968000438        0.21244618061018
C            6.42616664758911        2.38533838211391        0.24470183853879
C            7.10641200430249        1.14088029351886        0.05262367483193
N            8.46108002547038        1.33791344926658       -0.04410703327911
H            5.38335152502025       -0.07735693041975       -0.14986248736168
H            5.42316786314195       -2.65483707007217       -0.55357479421510
H            7.31997646762188       -4.55164629886817       -0.26484033641351
H           10.23302959539341       -4.82092809481425        2.66065619094701
H           10.23154617716984       -7.29769296118603        2.89344077878139
H            9.51028713147613       -7.82336191701077       -1.11849683857834
H            9.49509047981683       -5.37047045689617       -1.52983570318428
H           12.41199891207701       -4.36140936045351        1.15099965356004
H           14.30064411155950       -2.45267991621247        0.89268034458869
H           14.24845604214172        2.44066688379984       -1.02419781699260
H           12.33966745958675        4.34376780332310       -1.15919595294002
H            8.36635224798238        4.91644727668182       -2.02468106875450
H            8.41161471737248        7.39933903774336       -2.14920403476677
H           11.17459270725746        7.65067492681107        0.88298747323691
H           11.23973251561144        5.17900581776544        1.15065224892344
H            7.24482580866547        4.41761517385603        0.32874964534937
H            5.36110000390563        2.48423799065514        0.38151727508229
Co          28.36375094273722        0.01523074476069       -0.06769697582788
C           31.73702948198153        0.02802046733446       -0.13033443819688
C           31.06759164318741        1.13981884231757       -0.59434396588230
C           31.72185975144113        2.30692051365435       -1.10293270315913
C           30.76756974474805        3.25633381391585       -1.24372164700533
C           29.52819279513352        2.66385843806771       -0.83282038818666
N           29.71684568943011        1.35294154465065       -0.47721088458002
C           28.34576883536964        3.37062400810611       -0.65834741223587
C           28.33975941651950        4.83143956608156       -0.90578933220510
C           28.12410001423504        5.73764672555599        0.13108781693800
C           28.12992308025699        7.09539225317579       -0.14778685267832
N           28.32888634974791        7.58315593172725       -1.36799259655248
C           28.53225721132945        6.72493428051969       -2.36219275895830
C           28.54868537478259        5.35058333414059       -2.18234773086103
C           27.16829001388595        2.75194629491493       -0.26892132536958
C           25.91662252103920        3.43368639515041       -0.12770886460779
C           24.96646927315937        2.48012903510854        0.02086303798000
N           26.98856042667861        1.39128123506484       -0.15398395050431
C           25.63896428220118        1.22058167694011       -0.02704447406236
C           24.97040749385254       -0.00626018986331       -0.06554089554710
C           25.65967426481860       -1.22187691132669       -0.06376690272289
C           25.01250160793942       -2.49441227367765       -0.11012014070641
C           25.97136831503265       -3.42584462302363        0.11130040798552
C           27.20111275626656       -2.71638544433264        0.29630719230123
N           27.00534478231111       -1.36501830088117        0.12790037891203
C           28.39268467741582       -3.30988911504584        0.68652276284188
C           28.40366990658839       -4.75470606361710        1.00442571969844
C           29.21408560878938       -5.64546175381224        0.30105812132829
C           29.18656265130165       -6.99060775034850        0.63336342011838
N           28.42192217155619       -7.48163345135103        1.60331519417177
C           27.64753776563652       -6.63929184818033        2.27962423398012
C           27.60159414619850       -5.27918682951395        2.01745448817858
C           29.57749968478526       -2.59077373157979        0.76873935392929
C           30.83194194803857       -3.14835201416033        1.18291925407762
C           31.77721788053550       -2.21190965866400        0.93399155569496
C           31.09708638709314       -1.07747356290540        0.38734157096196
N           29.74254944283581       -1.29482480155090        0.35035529992881
H           32.82025943020169        0.02988323409179       -0.15881323727233
H           32.78008432069549        2.37757919787399       -1.29807745573144
H           30.88252740452063        4.27520261680561       -1.57603068330389
H           27.96845684087264        5.38486148095394        1.14359984217057
H           27.96799073798805        7.82173065754968        0.64330041958690
H           28.68903457759287        7.15407923310619       -3.34750785413771
H           28.70630036872928        4.68792639039479       -3.02492616420913
H           25.78978659478331        4.50317859040547       -0.16662829643185
H           23.90169930681370        2.60084525748878        0.13845620128080
H           23.95777459635617       -2.63863656963748       -0.28040888545081
H           25.86709579863335       -4.49800627695407        0.14589169219745
H           29.84393042685532       -5.29229022733710       -0.50674976569351
H           29.80549971409507       -7.70399552949598        0.09707694241612
H           27.03576393951336       -7.07033616838247        3.06669662552661
H           26.96329046707917       -4.62806444280173        2.60272132848559
H           30.95885458413542       -4.13257662993611        1.60366100964433
H           32.84207600202614       -2.26613270702046        1.09524041513896
C           14.63553870509347       -0.01501609245279       -0.08767716318551
C           15.86067812351863       -0.01338139135222       -0.10945957613154
C           17.20209554528126       -0.01427062204685       -0.12524182564946
C           18.43363543675472       -0.01589937950376       -0.13314370485840
C           19.77027684200466       -0.01790798697929       -0.13536561367360
C           21.00186926957166       -0.02067737679658       -0.12687283444075
C           22.34329032701678       -0.01948295505335       -0.11240319980674
C           23.56844114128882       -0.01618891744558       -0.09249382133897

          :  Hamiltonian                  GFN1-xTB          :
         :: total energy            -207.132541181454 Eh    ::
         :: gradient norm              0.000433240683 Eh/a0 ::
         :: HOMO-LUMO gap              0.005701404865 eV    ::
         :: SCC energy              -210.517421051931 Eh    ::
         :: repulsion energy           3.487868073894 Eh    ::

    * Orbital Energies and Occupations

         #    Occupation            Energy/Eh            Energy/eV
      -------------------------------------------------------------
         1        2.0000           -0.7780176             -21.1709
       ...           ...                  ...                  ...
       180        2.0000           -0.4219984             -11.4832
       181        2.0000           -0.4162945             -11.3280
       182        2.0000           -0.4035050             -10.9799
       183        2.0000           -0.4034222             -10.9777
       184        2.0000           -0.4025805             -10.9548
       185        2.0000           -0.4023699             -10.9490
       186        2.0000           -0.4011814             -10.9167
       187        1.9998           -0.3989700             -10.8565
       188        1.9998           -0.3989433             -10.8558
       189        1.9998           -0.3988623             -10.8536
       190        1.9998           -0.3988383             -10.8529
       191        1.8717           -0.3928168             -10.6891
       192        1.1195           -0.3904987             -10.6260 (HOMO)
       193        1.0098           -0.3902892             -10.6203 (LUMO)
       194                         -0.3458265              -9.4104
       195                         -0.3355521              -9.1308
       196                         -0.3353353              -9.1249
       197                         -0.3352468              -9.1225
       198                         -0.3101348              -8.4392
       199                         -0.3090704              -8.4102
       200                         -0.3016612              -8.2086
       201                         -0.3006436              -8.1809
       202                         -0.3005909              -8.1795
       203                         -0.2880203              -7.8374
       ...                                ...                  ...
       406                          1.5960201              43.4299
      -------------------------------------------------------------
                  HL-Gap            0.0002095 Eh            0.0057 eV

Wiberg/Mayer (AO) data.
largest (>0.10) Wiberg bond orders for each atom

     #   Z sym  total        # sym  WBO       # sym  WBO       # sym  WBO
 ---------------------------------------------------------------------------
     1  27 Co   3.043 --    37 N    0.640     7 N    0.638    18 N    0.636
                            25 N    0.633
     2   6 C    3.929 --     3 C    1.366    36 C    1.365    38 H    0.970
     3   6 C    3.923 --     2 C    1.366     7 N    1.200     4 C    1.173
     4   6 C    3.960 --     5 C    1.650     3 C    1.173    39 H    0.975
     5   6 C    3.963 --     4 C    1.650     6 C    1.176    40 H    0.972
     6   6 C    3.920 --     8 C    1.318     7 N    1.213     5 C    1.176
     7   7 N    3.348 --     6 C    1.213     3 C    1.200     1 Co   0.638
     8   6 C    3.933 --    15 C    1.336     6 C    1.318     9 C    1.023
     9   6 C    3.986 --    14 C    1.395    10 C    1.395     8 C    1.023
                            12 N    0.107
    10   6 C    3.987 --    11 C    1.441     9 C    1.395    41 H    0.973
                            13 C    0.109
    11   6 C    3.972 --    10 C    1.441    12 N    1.416    42 H    0.972
                            14 C    0.109
    12   7 N    3.031 --    13 C    1.416    11 C    1.416     9 C    0.107
    13   6 C    3.972 --    14 C    1.441    12 N    1.416    43 H    0.972
                            10 C    0.109
    14   6 C    3.987 --    13 C    1.441     9 C    1.395    44 H    0.973
                            11 C    0.109
    15   6 C    3.916 --     8 C    1.336    18 N    1.190    16 C    1.180
    16   6 C    3.958 --    17 C    1.640    15 C    1.180    45 H    0.973
    17   6 C    3.962 --    16 C    1.640    19 C    1.189    46 H    0.973
    18   7 N    3.348 --    19 C    1.232    15 C    1.190     1 Co   0.636
    19   6 C    3.902 --    20 C    1.257    18 N    1.232    17 C    1.189
    20   6 C    3.934 --    21 C    1.258    19 C    1.257   109 C    1.195
    21   6 C    3.902 --    20 C    1.258    25 N    1.229    22 C    1.190
    22   6 C    3.961 --    23 C    1.636    21 C    1.190    47 H    0.973
    23   6 C    3.958 --    22 C    1.636    24 C    1.182    48 H    0.973
    24   6 C    3.917 --    26 C    1.328    25 N    1.195    23 C    1.182
    25   7 N    3.349 --    21 C    1.229    24 C    1.195     1 Co   0.633
    26   6 C    3.933 --    24 C    1.328    33 C    1.319    27 C    1.031
    27   6 C    3.986 --    32 C    1.391    28 C    1.391    26 C    1.031
                            30 N    0.106
    28   6 C    3.986 --    29 C    1.442    27 C    1.391    49 H    0.973
                            31 C    0.108
    29   6 C    3.972 --    28 C    1.442    30 N    1.415    50 H    0.972
                            32 C    0.108
    30   7 N    3.030 --    29 C    1.415    31 C    1.415    27 C    0.106
    31   6 C    3.972 --    32 C    1.442    30 N    1.415    51 H    0.972
                            28 C    0.108
    32   6 C    3.985 --    31 C    1.442    27 C    1.391    52 H    0.973
                            29 C    0.108
    33   6 C    3.921 --    26 C    1.319    37 N    1.211    34 C    1.176
    34   6 C    3.963 --    35 C    1.649    33 C    1.176    53 H    0.973
    35   6 C    3.958 --    34 C    1.649    36 C    1.174    54 H    0.975
    36   6 C    3.924 --     2 C    1.365    37 N    1.201    35 C    1.174
    37   7 N    3.346 --    33 C    1.211    36 C    1.201     1 Co   0.640
    38   1 H    1.000 --     2 C    0.970
    39   1 H    0.997 --     4 C    0.975
    40   1 H    1.004 --     5 C    0.972
    41   1 H    1.003 --    10 C    0.973
    42   1 H    1.013 --    11 C    0.972
    43   1 H    1.013 --    13 C    0.972
    44   1 H    1.003 --    14 C    0.973
    45   1 H    1.004 --    16 C    0.973
    46   1 H    1.001 --    17 C    0.973
    47   1 H    1.001 --    22 C    0.973
    48   1 H    1.003 --    23 C    0.973
    49   1 H    1.004 --    28 C    0.973
    50   1 H    1.013 --    29 C    0.972
    51   1 H    1.013 --    31 C    0.972
    52   1 H    1.004 --    32 C    0.973
    53   1 H    1.004 --    34 C    0.973
    54   1 H    0.997 --    35 C    0.975
    55  27 Co   3.047 --    91 N    0.641    61 N    0.638    72 N    0.636
                            79 N    0.633
    56   6 C    3.929 --    57 C    1.366    90 C    1.365    92 H    0.970
    57   6 C    3.923 --    56 C    1.366    61 N    1.200    58 C    1.173
    58   6 C    3.960 --    59 C    1.650    57 C    1.173    93 H    0.975
    59   6 C    3.963 --    58 C    1.650    60 C    1.176    94 H    0.972
    60   6 C    3.920 --    62 C    1.318    61 N    1.213    59 C    1.176
    61   7 N    3.348 --    60 C    1.213    57 C    1.200    55 Co   0.638
    62   6 C    3.933 --    69 C    1.336    60 C    1.318    63 C    1.023
    63   6 C    3.986 --    68 C    1.395    64 C    1.395    62 C    1.023
                            66 N    0.107
    64   6 C    3.987 --    65 C    1.441    63 C    1.395    95 H    0.973
                            67 C    0.109
    65   6 C    3.972 --    64 C    1.441    66 N    1.416    96 H    0.972
                            68 C    0.109
    66   7 N    3.031 --    67 C    1.416    65 C    1.416    63 C    0.107
    67   6 C    3.972 --    68 C    1.441    66 N    1.416    97 H    0.972
                            64 C    0.109
    68   6 C    3.987 --    67 C    1.441    63 C    1.395    98 H    0.973
                            65 C    0.109
    69   6 C    3.916 --    62 C    1.336    72 N    1.190    70 C    1.180
    70   6 C    3.958 --    71 C    1.640    69 C    1.180    99 H    0.973
    71   6 C    3.962 --    70 C    1.640    73 C    1.189   100 H    0.973
    72   7 N    3.348 --    73 C    1.233    69 C    1.190    55 Co   0.636
    73   6 C    3.902 --    74 C    1.257    72 N    1.233    71 C    1.189
    74   6 C    3.934 --    75 C    1.258    73 C    1.257   116 C    1.195
    75   6 C    3.902 --    74 C    1.258    79 N    1.229    76 C    1.191
    76   6 C    3.961 --    77 C    1.636    75 C    1.191   101 H    0.973
    77   6 C    3.958 --    76 C    1.636    78 C    1.182   102 H    0.973
    78   6 C    3.917 --    80 C    1.328    79 N    1.195    77 C    1.182
    79   7 N    3.349 --    75 C    1.229    78 C    1.195    55 Co   0.633
    80   6 C    3.933 --    78 C    1.328    87 C    1.319    81 C    1.031
    81   6 C    3.986 --    86 C    1.392    82 C    1.391    80 C    1.031
                            84 N    0.106
    82   6 C    3.986 --    83 C    1.442    81 C    1.391   103 H    0.972
                            85 C    0.108
    83   6 C    3.972 --    82 C    1.442    84 N    1.415   104 H    0.972
                            86 C    0.108
    84   7 N    3.030 --    85 C    1.415    83 C    1.415    81 C    0.106
    85   6 C    3.972 --    86 C    1.442    84 N    1.415   105 H    0.972
                            82 C    0.108
    86   6 C    3.985 --    85 C    1.442    81 C    1.392   106 H    0.973
                            83 C    0.108
    87   6 C    3.921 --    80 C    1.319    91 N    1.212    88 C    1.176
    88   6 C    3.963 --    89 C    1.649    87 C    1.176   107 H    0.973
    89   6 C    3.958 --    88 C    1.649    90 C    1.174   108 H    0.975
    90   6 C    3.924 --    56 C    1.365    91 N    1.201    89 C    1.174
    91   7 N    3.346 --    87 C    1.212    90 C    1.201    55 Co   0.641
    92   1 H    1.000 --    56 C    0.970
    93   1 H    0.997 --    58 C    0.975
    94   1 H    1.004 --    59 C    0.972
    95   1 H    1.003 --    64 C    0.973
    96   1 H    1.013 --    65 C    0.972
    97   1 H    1.013 --    67 C    0.972
    98   1 H    1.003 --    68 C    0.973
    99   1 H    1.004 --    70 C    0.973
   100   1 H    1.001 --    71 C    0.973
   101   1 H    1.001 --    76 C    0.973
   102   1 H    1.003 --    77 C    0.973
   103   1 H    1.004 --    82 C    0.972
   104   1 H    1.013 --    83 C    0.972
   105   1 H    1.013 --    85 C    0.972
   106   1 H    1.004 --    86 C    0.973
   107   1 H    1.004 --    88 C    0.973
   108   1 H    0.997 --    89 C    0.975
   109   6 C    3.870 --   110 C    2.430    20 C    1.195   112 C    0.185
   110   6 C    3.931 --   109 C    2.430   111 C    1.351
   111   6 C    3.886 --   112 C    2.324   110 C    1.351   114 C    0.180
   112   6 C    3.920 --   111 C    2.324   113 C    1.377   109 C    0.185
   113   6 C    3.920 --   114 C    2.324   112 C    1.377   116 C    0.185
   114   6 C    3.886 --   113 C    2.324   115 C    1.351   111 C    0.180
   115   6 C    3.931 --   116 C    2.430   114 C    1.351
   116   6 C    3.871 --   115 C    2.430    74 C    1.195   113 C    0.185
 ---------------------------------------------------------------------------

           -------------------------------------------------
          | TOTAL ENERGY             -207.132541181454 Eh   |
          | GRADIENT NORM               0.000433240683 Eh/α |
          | HOMO-LUMO GAP               0.005701404865 eV   |
           -------------------------------------------------

 * finished run on 2022/07/29 at 23:08:33.185
