   * xtb version 6.5.1 (b24c23e) compiled by 'conda@728c89f4b128' on 2022-07-12
          program call               : xtb Cu_PhNH2_C4_2.xyz --gfn 1 --opt -T 48

   ID    Z sym.   atoms
    1   29 Cu     1, 61
    2    6 C      2-6, 8-12, 14-18, 20-25, 27-31, 33-38, 62-66, 68-72, 74-78,
                  80-85, 87-91, 93-98, 121-124
    3    7 N      7, 13, 19, 26, 32, 39, 67, 73, 79, 86, 92, 99
    4    1 H      40-60, 100-120
########################################################################
[WARNING] Please study the warnings concerning your input carefully
-1- prog_main_parseArguments: Unknown option '-T' provided
########################################################################

          :  Hamiltonian                  GFN1-xTB          :
 * total energy  :  -212.6099213 Eh     change       -0.2123102E-08 Eh
 * total energy  :  -213.4863487 Eh     change       -0.8764274E+00 Eh
 * total energy  :  -213.5977651 Eh     change       -0.1114164E+00 Eh
 * total energy  :  -213.6546129 Eh     change       -0.5684785E-01 Eh
 * total energy  :  -213.6703580 Eh     change       -0.1574514E-01 Eh
 * total energy  :  -213.6791468 Eh     change       -0.8788746E-02 Eh
 * total energy  :  -213.6847329 Eh     change       -0.5586147E-02 Eh
 * total energy  :  -213.6887587 Eh     change       -0.4025780E-02 Eh
 * total energy  :  -213.6917976 Eh     change       -0.3038861E-02 Eh
 * total energy  :  -213.6941310 Eh     change       -0.2333431E-02 Eh
 * total energy  :  -213.7060577 Eh     change       -0.2409538E-04 Eh
 * total energy  :  -213.7060989 Eh     change       -0.4121089E-04 Eh
 * total energy  :  -213.7061305 Eh     change       -0.3164322E-04 Eh
 * total energy  :  -213.7061413 Eh     change       -0.1078439E-04 Eh
 * total energy  :  -213.7061575 Eh     change       -0.1619386E-04 Eh
 * total energy  :  -213.7061645 Eh     change       -0.6945838E-05 Eh
 * total energy  :  -213.7061747 Eh     change       -0.1021827E-04 Eh
 * total energy  :  -213.7061798 Eh     change       -0.5120952E-05 Eh
 * total energy  :  -213.7061845 Eh     change       -0.4674349E-05 Eh
   *** GEOMETRY OPTIMIZATION CONVERGED AFTER 43 ITERATIONS ***

 final structure:
================
124
 xtb: 6.5.1 (b24c23e)
Cu          15.37547615173441        0.05052792617737       -0.02858411157351
C           11.97276631679999        0.14267537501919        0.07855215737359
C           12.61000234295697        1.25019767143961       -0.46116963408242
C           11.93748901550669        2.38855012177737       -1.01754925470601
C           12.89891146509351        3.24874879549548       -1.43722655976901
C           14.16811022805065        2.64847682596329       -1.12894986383269
N           13.96120482349852        1.43273518830024       -0.54376948174346
C           15.41427070146681        3.21911093908060       -1.40494442746717
C           15.43029579320377        4.58421393772790       -1.98340522311004
C           16.01165201779209        4.82672592621998       -3.23018386704254
C           16.02551349793754        6.10032691662388       -3.77107611184924
C           15.45799410856206        7.16654975822839       -3.06888540407139
N           15.51448281603549        8.45106871763573       -3.58335852154843
C           14.88579464118115        6.93478858593550       -1.81560487608731
C           14.86699023301457        5.65628693110735       -1.28695079810935
C           16.64458486983873        2.60136149868574       -1.16856672113288
C           17.92511941658918        3.21393060703931       -1.38140102072566
C           18.86709051506925        2.30418545083183       -1.02398209346095
N           16.82754957996988        1.33576180937284       -0.67640223175493
C           18.16998454207582        1.13414692575440       -0.58228443532638
C           18.80004099204816       -0.03560679846574       -0.12175165789089
C           18.13746925132105       -1.17596630031273        0.36631078981862
C           18.79770087338371       -2.38097392890873        0.76853138854817
C           17.83178555506848       -3.24317435807589        1.17689169893974
C           16.57431404093283       -2.56537985791221        1.03715522443891
N           16.79369375365131       -1.31032482934028        0.53296290313642
C           15.32969865249678       -3.11640339267599        1.35173714911138
C           15.30766350753506       -4.47584214485392        1.94284775462586
C           15.95424363151770       -4.73939149648670        3.15284292825418
C           15.92722143104059       -6.00516223725750        3.71111633012407
C           15.26133522954506       -7.04555704741128        3.05823512082372
N           15.19697716399767       -8.30326983330770        3.63372953157511
C           14.61021148913114       -6.79006143979562        1.84877673387392
C           14.63400579848714       -5.51906033021894        1.30263642844789
C           14.10107952268702       -2.47950213478593        1.15188644552710
C           12.82329609237051       -3.00839832381192        1.54451666351531
C           11.88541851517728       -2.09756318965702        1.18281770492801
C           12.58191570091800       -0.99857211460727        0.57881224942456
N           13.92369708072715       -1.25516119517277        0.57488241594287
H           10.88844738234592        0.17258284697468        0.11395908179055
H           10.86628436375802        2.49753480265050       -1.08432102630993
H           12.76682336509926        4.20040089419294       -1.92667218360990
H           16.43928304470192        4.00139376219533       -3.78901352188985
H           16.47388651461950        6.27487128824678       -4.74308944357971
H           15.62530647224692        8.50309184003567       -4.58345231689246
H           14.82182527335000        9.08510615019246       -3.21824676180941
H           14.45642094944339        7.76106525436611       -1.25950487267021
H           14.42913569869870        5.48582980701541       -0.30944196238978
H           18.08063733536266        4.21842811296227       -1.74046741777766
H           19.93993127513037        2.41097282177031       -1.04518133629943
H           19.86331999095385       -2.54182446891984        0.72933896756975
H           17.95563612525323       -4.25558970757203        1.52604519328955
H           16.46511990193520       -3.93511927498948        3.67102030415562
H           16.42290459727619       -6.19423574578427        4.65711967411624
H           15.93227927906577       -8.50738750169919        4.29162850300023
H           15.00701400349018       -9.05546714946133        2.99064366656714
H           14.08929646315558       -7.59307249985966        1.33864306408093
H           14.14108349352732       -5.33284386535784        0.35464943939931
H           12.67060141631046       -3.94986670289881        2.04729182992975
H           10.81646197722231       -2.14726787647467        1.31941522949664
Cu          28.82993890844254       -0.05157405005609        0.02581798030706
C           32.23284466902169       -0.01441544964966        0.15861033608378
C           31.59586629237500       -1.07555264931366        0.78489179039391
C           32.26857089100512       -2.16776824334949        1.42693847376252
C           31.30729416424060       -2.99216514587234        1.91347607879983
C           30.03799861915110       -2.40372359977912        1.58351297474501
N           30.24470810013533       -1.24487105144912        0.89244512528147
C           28.79192197579636       -2.94895801539301        1.90706157811926
C           28.77605473471852       -4.18503464494870        2.72579774165404
C           28.19512371846272       -5.35855551203146        2.23936017861338
C           28.18126257709926       -6.51275011501606        3.00255593338714
C           28.74845686352977       -6.51590546464999        4.27936548629572
N           28.69211144837161       -7.65420865462444        5.06624386099411
C           29.32013839755311       -5.34290677442991        4.77838016774653
C           29.33890483639027       -4.19617421655890        4.00436076647908
C           27.56149684724390       -2.41102437621164        1.52256705899091
C           26.28109149444682       -2.92739058433264        1.91530458934572
C           25.33891474144122       -2.12702285459794        1.35460302959927
N           27.37824395203673       -1.30143297317812        0.73981320697297
C           26.03576705591301       -1.11187535018311        0.62388637629371
C           25.40522547014596       -0.08151919103678       -0.09598260099356
C           26.06737661705279        0.95579159088613       -0.77653668298064
C           25.40688771273068        1.95717311138452       -1.55799680085427
C           26.37263888208179        2.77410227023223       -2.05104784220524
C           27.63029780735701        2.28271668966188       -1.56418361749637
N           27.41117924808441        1.16879491629465       -0.79700628694738
C           28.87485627229549        2.84912797227647       -1.85036618595494
C           28.89661278981664        4.09327109542829       -2.65634878906649
C           28.25115596134706        5.24755029704426       -2.20624951862718
C           28.27804006297578        6.41255994280730       -2.95231837452564
C           28.94261511362355        6.44338777174280       -4.18091257708260
N           29.00685099783047        7.61823028719109       -4.91082363876126
C           29.59259017511721        5.29398001293402       -4.63743601026388
C           29.56896340839554        4.13620086787762       -3.88030725499477
C           30.10368282141689        2.33001714324310       -1.43135524283622
C           31.38149081792844        2.94895330393512       -1.65665582684921
C           32.31967268584698        2.14357841082806       -1.09877373781936
C           31.62335258846919        1.03316683895421       -0.51580804599559
N           30.28136289101062        1.17233389186407       -0.73020327082512
H           33.31721925914972       -0.00181555074723        0.20189001098205
H           33.33979097854790       -2.28375166926303        1.48038970161347
H           31.43951625413370       -3.92534953014146        2.43724462645357
H           27.76784518305325       -5.36882012480268        1.24253280414626
H           27.73314892590909       -7.41962382369379        2.61129263495319
H           28.58091587070479       -8.51649146478949        4.55699456484480
H           29.38595108656803       -7.70045566500841        5.79529011718160
H           29.74915309386505       -5.33539815336402        5.77448486083236
H           29.77635077387672       -3.28694782659949        4.40213865236068
H           26.12576125651495       -3.78194335756375        2.55383062371809
H           24.26608562802385       -2.20404748794629        1.43177690715630
H           24.34120438297513        2.01361317271171       -1.71320062991919
H           26.24862232446197        3.62481400448074       -2.70155748983104
H           27.74127292263810        5.23488770104339       -1.24906153480329
H           27.78328239359735        7.30563940565723       -2.58629177071920
H           28.27211382554827        8.27969696819390       -4.71651093534784
H           29.19595762930063        7.49813538208076       -5.89329983239128
H           30.11248985699569        5.31262227201589       -5.58915038734974
H           30.06098106313398        3.24304200054518       -4.24976348203252
H           31.53401875888473        3.88829012570121       -2.16345301081695
H           33.38874628468491        2.28433992968535       -1.06608620460648
C           21.42770426714915       -0.07460204961253       -0.14800870486168
C           20.20585170535233       -0.06218972276366       -0.14177767620599
C           22.77763362523109       -0.08106196404271       -0.14366391353949
C           23.99943675750524       -0.08469881287360       -0.12964879385087

          :  Hamiltonian                  GFN1-xTB          :
         :: total energy            -213.706184483099 Eh    ::
         :: gradient norm              0.000549217972 Eh/a0 ::
         :: HOMO-LUMO gap              0.005402548610 eV    ::
         :: SCC energy              -217.033157880996 Eh    ::
         :: repulsion energy           3.436012983237 Eh    ::

    * Orbital Energies and Occupations

         #    Occupation            Energy/Eh            Energy/eV
      -------------------------------------------------------------
         1        2.0000           -0.7771098             -21.1462
       ...           ...                  ...                  ...
       186        2.0000           -0.3994828             -10.8705
       187        2.0000           -0.3994542             -10.8697
       188        2.0000           -0.3994431             -10.8694
       189        2.0000           -0.3994201             -10.8688
       190        2.0000           -0.3991568             -10.8616
       191        2.0000           -0.3963189             -10.7844
       192        2.0000           -0.3947131             -10.7407
       193        2.0000           -0.3947064             -10.7405
       194        2.0000           -0.3865680             -10.5191
       195        2.0000           -0.3865656             -10.5190
       196        2.0000           -0.3804114             -10.3515
       197        2.0000           -0.3701762             -10.0730
       198        1.0522           -0.3469788              -9.4418 (HOMO)
       199        0.9478           -0.3467803              -9.4364 (LUMO)
       200                         -0.3289879              -8.9522
       201                         -0.3179740              -8.6525
       202                         -0.3179711              -8.6524
       203                         -0.3153713              -8.5817
       204                         -0.2880541              -7.8384
       205                         -0.2804948              -7.6327
       206                         -0.2552011              -6.9444
       207                         -0.2551968              -6.9443
       208                         -0.2549590              -6.9378
       209                         -0.2549551              -6.9377
       ...                                ...                  ...
       422                          1.5275181              41.5659
      -------------------------------------------------------------
                  HL-Gap            0.0001985 Eh            0.0054 eV

Wiberg/Mayer (AO) data.
largest (>0.10) Wiberg bond orders for each atom

     #   Z sym  total        # sym  WBO       # sym  WBO       # sym  WBO
 ---------------------------------------------------------------------------
     1  29 Cu   2.184 --    39 N    0.504     7 N    0.504    26 N    0.502
                            19 N    0.502
     2   6 C    3.926 --    38 C    1.361     3 C    1.360    40 H    0.971
     3   6 C    3.919 --     2 C    1.360     7 N    1.229     4 C    1.173
     4   6 C    3.954 --     5 C    1.652     3 C    1.173    41 H    0.976
     5   6 C    3.958 --     4 C    1.652     6 C    1.175    42 H    0.973
     6   6 C    3.912 --     8 C    1.315     7 N    1.241     5 C    1.175
     7   7 N    3.242 --     6 C    1.241     3 C    1.229     1 Cu   0.504
     8   6 C    3.934 --    16 C    1.325     6 C    1.315     9 C    1.033
     9   6 C    3.988 --    10 C    1.382    15 C    1.381     8 C    1.033
    10   6 C    3.988 --    11 C    1.468     9 C    1.382    43 H    0.973
    11   6 C    3.990 --    10 C    1.468    12 C    1.355    44 H    0.972
    12   6 C    3.952 --    11 C    1.355    14 C    1.355    13 N    1.114
    13   7 N    3.132 --    12 C    1.114    45 H    0.934    46 H    0.934
    14   6 C    3.990 --    15 C    1.468    12 C    1.355    47 H    0.972
    15   6 C    3.988 --    14 C    1.468     9 C    1.381    48 H    0.973
    16   6 C    3.907 --     8 C    1.325    19 N    1.222    17 C    1.181
    17   6 C    3.955 --    18 C    1.640    16 C    1.181    49 H    0.973
    18   6 C    3.956 --    17 C    1.640    20 C    1.188    50 H    0.974
    19   7 N    3.246 --    20 C    1.257    16 C    1.222     1 Cu   0.502
    20   6 C    3.899 --    21 C    1.259    19 N    1.257    18 C    1.188
    21   6 C    3.935 --    20 C    1.259    22 C    1.258   122 C    1.187
    22   6 C    3.899 --    21 C    1.258    26 N    1.257    23 C    1.189
    23   6 C    3.956 --    24 C    1.639    22 C    1.189    51 H    0.974
    24   6 C    3.955 --    23 C    1.639    25 C    1.182    52 H    0.973
    25   6 C    3.907 --    27 C    1.325    26 N    1.222    24 C    1.182
    26   7 N    3.247 --    22 C    1.257    25 C    1.222     1 Cu   0.502
    27   6 C    3.934 --    25 C    1.325    35 C    1.315    28 C    1.033
    28   6 C    3.988 --    29 C    1.381    34 C    1.381    27 C    1.033
    29   6 C    3.988 --    30 C    1.468    28 C    1.381    53 H    0.973
    30   6 C    3.990 --    29 C    1.468    31 C    1.355    54 H    0.972
    31   6 C    3.952 --    30 C    1.355    33 C    1.354    32 N    1.114
    32   7 N    3.133 --    31 C    1.114    56 H    0.934    55 H    0.934
    33   6 C    3.989 --    34 C    1.468    31 C    1.354    57 H    0.972
    34   6 C    3.988 --    33 C    1.468    28 C    1.381    58 H    0.973
    35   6 C    3.912 --    27 C    1.315    39 N    1.241    36 C    1.175
    36   6 C    3.958 --    37 C    1.652    35 C    1.175    59 H    0.973
    37   6 C    3.954 --    36 C    1.652    38 C    1.173    60 H    0.976
    38   6 C    3.919 --     2 C    1.361    39 N    1.229    37 C    1.173
    39   7 N    3.242 --    35 C    1.241    38 C    1.229     1 Cu   0.504
    40   1 H    1.002 --     2 C    0.971
    41   1 H    0.998 --     4 C    0.976
    42   1 H    1.006 --     5 C    0.973
    43   1 H    1.005 --    10 C    0.973
    44   1 H    0.999 --    11 C    0.972
    45   1 H    0.961 --    13 N    0.934
    46   1 H    0.961 --    13 N    0.934
    47   1 H    0.999 --    14 C    0.972
    48   1 H    1.005 --    15 C    0.973
    49   1 H    1.005 --    17 C    0.973
    50   1 H    1.003 --    18 C    0.974
    51   1 H    1.002 --    23 C    0.974
    52   1 H    1.006 --    24 C    0.973
    53   1 H    1.005 --    29 C    0.973
    54   1 H    0.999 --    30 C    0.972
    55   1 H    0.961 --    32 N    0.934
    56   1 H    0.961 --    32 N    0.934
    57   1 H    0.999 --    33 C    0.972
    58   1 H    1.005 --    34 C    0.973
    59   1 H    1.005 --    36 C    0.973
    60   1 H    0.998 --    37 C    0.976
    61  29 Cu   2.184 --    99 N    0.504    67 N    0.504    79 N    0.502
                            86 N    0.502
    62   6 C    3.927 --    98 C    1.361    63 C    1.360   100 H    0.971
    63   6 C    3.919 --    62 C    1.360    67 N    1.229    64 C    1.173
    64   6 C    3.954 --    65 C    1.652    63 C    1.173   101 H    0.976
    65   6 C    3.958 --    64 C    1.652    66 C    1.175   102 H    0.973
    66   6 C    3.912 --    68 C    1.315    67 N    1.241    65 C    1.175
    67   7 N    3.242 --    66 C    1.241    63 C    1.229    61 Cu   0.504
    68   6 C    3.934 --    76 C    1.325    66 C    1.315    69 C    1.032
    69   6 C    3.988 --    70 C    1.382    75 C    1.381    68 C    1.032
    70   6 C    3.988 --    71 C    1.468    69 C    1.382   103 H    0.973
    71   6 C    3.990 --    70 C    1.468    72 C    1.355   104 H    0.972
    72   6 C    3.952 --    71 C    1.355    74 C    1.355    73 N    1.114
    73   7 N    3.132 --    72 C    1.114   105 H    0.934   106 H    0.934
    74   6 C    3.990 --    75 C    1.468    72 C    1.355   107 H    0.972
    75   6 C    3.988 --    74 C    1.468    69 C    1.381   108 H    0.973
    76   6 C    3.907 --    68 C    1.325    79 N    1.222    77 C    1.181
    77   6 C    3.955 --    78 C    1.640    76 C    1.181   109 H    0.973
    78   6 C    3.956 --    77 C    1.640    80 C    1.188   110 H    0.974
    79   7 N    3.246 --    80 C    1.257    76 C    1.222    61 Cu   0.502
    80   6 C    3.899 --    81 C    1.259    79 N    1.257    78 C    1.188
    81   6 C    3.935 --    80 C    1.259    82 C    1.258   124 C    1.187
    82   6 C    3.899 --    81 C    1.258    86 N    1.257    83 C    1.189
    83   6 C    3.956 --    84 C    1.639    82 C    1.189   111 H    0.974
    84   6 C    3.955 --    83 C    1.639    85 C    1.182   112 H    0.973
    85   6 C    3.907 --    87 C    1.325    86 N    1.222    84 C    1.182
    86   7 N    3.246 --    82 C    1.257    85 C    1.222    61 Cu   0.502
    87   6 C    3.934 --    85 C    1.325    95 C    1.315    88 C    1.033
    88   6 C    3.988 --    89 C    1.381    94 C    1.381    87 C    1.033
    89   6 C    3.988 --    90 C    1.468    88 C    1.381   113 H    0.973
    90   6 C    3.990 --    89 C    1.468    91 C    1.355   114 H    0.972
    91   6 C    3.952 --    90 C    1.355    93 C    1.354    92 N    1.114
    92   7 N    3.133 --    91 C    1.114   116 H    0.934   115 H    0.934
    93   6 C    3.989 --    94 C    1.468    91 C    1.354   117 H    0.972
    94   6 C    3.988 --    93 C    1.468    88 C    1.381   118 H    0.973
    95   6 C    3.912 --    87 C    1.315    99 N    1.241    96 C    1.175
    96   6 C    3.958 --    97 C    1.652    95 C    1.175   119 H    0.973
    97   6 C    3.954 --    96 C    1.652    98 C    1.173   120 H    0.976
    98   6 C    3.919 --    62 C    1.361    99 N    1.229    97 C    1.173
    99   7 N    3.242 --    95 C    1.241    98 C    1.229    61 Cu   0.504
   100   1 H    1.002 --    62 C    0.971
   101   1 H    0.998 --    64 C    0.976
   102   1 H    1.006 --    65 C    0.973
   103   1 H    1.005 --    70 C    0.973
   104   1 H    0.999 --    71 C    0.972
   105   1 H    0.961 --    73 N    0.934
   106   1 H    0.961 --    73 N    0.934
   107   1 H    0.999 --    74 C    0.972
   108   1 H    1.005 --    75 C    0.973
   109   1 H    1.005 --    77 C    0.973
   110   1 H    1.003 --    78 C    0.974
   111   1 H    1.002 --    83 C    0.974
   112   1 H    1.006 --    84 C    0.973
   113   1 H    1.005 --    89 C    0.973
   114   1 H    0.999 --    90 C    0.972
   115   1 H    0.961 --    92 N    0.934
   116   1 H    0.961 --    92 N    0.934
   117   1 H    0.999 --    93 C    0.972
   118   1 H    1.005 --    94 C    0.973
   119   1 H    1.005 --    96 C    0.973
   120   1 H    0.998 --    97 C    0.976
   121   6 C    3.935 --   122 C    2.478   123 C    1.307
   122   6 C    3.926 --   121 C    2.478    21 C    1.187   124 C    0.200
   123   6 C    3.935 --   124 C    2.478   121 C    1.307
   124   6 C    3.926 --   123 C    2.478    81 C    1.187   122 C    0.200
 ---------------------------------------------------------------------------

           -------------------------------------------------
          | TOTAL ENERGY             -213.706184483099 Eh   |
          | GRADIENT NORM               0.000549217972 Eh/α |
          | HOMO-LUMO GAP               0.005402548610 eV   |
           -------------------------------------------------

 * finished run on 2022/07/30 at 07:26:46.996
