   * xtb version 6.5.1 (b24c23e) compiled by 'conda@728c89f4b128' on 2022-07-12
          program call               : xtb Zn_H_C6_4.xyz --gfn 1 --opt -T 48

   ID    Z sym.   atoms
    1   30 Zn     1, 37, 91, 126
    2    6 C      2-6, 8-11, 13-18, 20-24, 38-42, 44-47, 49-54, 56-60, 73-90,
                  92-96, 98-101, 103-108, 110-114, 127-131, 133-136, 138-143,
                  145-149
    3    7 N      7, 12, 19, 25, 43, 48, 55, 61, 97, 102, 109, 115, 132, 137,
                  144, 150
    4    1 H      26-36, 62-72, 116-125, 151-160

          :  Hamiltonian                  GFN1-xTB          :
 * total energy  :  -282.5123455 Eh     change        0.7528342E-09 Eh
 * total energy  :  -282.9311250 Eh     change       -0.4187795E+00 Eh
 * total energy  :  -283.0683361 Eh     change       -0.1372111E+00 Eh
 * total energy  :  -283.1214195 Eh     change       -0.5308339E-01 Eh
 * total energy  :  -283.1442814 Eh     change       -0.2286193E-01 Eh
 * total energy  :  -283.1644794 Eh     change       -0.2019802E-01 Eh
 * total energy  :  -283.1895667 Eh     change       -0.2508726E-01 Eh
 * total energy  :  -283.2207981 Eh     change       -0.3123144E-01 Eh
 * total energy  :  -283.2605724 Eh     change       -0.3977429E-01 Eh
 * total energy  :  -283.3078424 Eh     change       -0.4726997E-01 Eh
 * total energy  :  -283.5832789 Eh     change       -0.1925158E-04 Eh
 * total energy  :  -283.5832887 Eh     change       -0.9817209E-05 Eh
 * total energy  :  -283.5832984 Eh     change       -0.9700579E-05 Eh
 * total energy  :  -283.5833076 Eh     change       -0.9249910E-05 Eh
 * total energy  :  -283.5833157 Eh     change       -0.8039083E-05 Eh
 * total energy  :  -283.5833226 Eh     change       -0.6898307E-05 Eh
 * total energy  :  -283.5833298 Eh     change       -0.7227305E-05 Eh
 * total energy  :  -283.5833362 Eh     change       -0.6380401E-05 Eh
 * total energy  :  -283.5833404 Eh     change       -0.4233100E-05 Eh
   *** GEOMETRY OPTIMIZATION CONVERGED AFTER 89 ITERATIONS ***

 final structure:
================
160
 xtb: 6.5.1 (b24c23e)
Zn          20.32336478885218       -0.02302711037615       -0.02140155493878
C           16.89568432894725       -0.03512626978002       -0.03444538557889
C           17.52617792421530       -0.91252400495000       -0.91000820252732
C           16.86017397742483       -1.81495809929093       -1.81106860432645
C           17.82534772873639       -2.49004687178023       -2.48431516692159
C           19.09196210525933       -2.00788308581657       -2.00236417432539
N           18.87546977549415       -1.05484938136337       -1.05136635973879
C           20.33971377273876       -2.44340651285126       -2.43596119309367
C           21.58037943293342       -2.00104083582613       -1.99360485060873
C           22.84899591720404       -2.47856961244940       -2.46882256945926
C           23.80883575218361       -1.79902316778700       -1.79050210132963
N           21.79233807896243       -1.04349303262066       -1.03847552027026
C           23.13545439356044       -0.90070542315070       -0.89514452160761
C           23.77671554852443       -0.01086560178196       -0.00828940226258
C           23.12254396737100        0.87437600653318        0.87367760949733
C           23.78276039154359        1.77735850951709        1.77412225609208
C           22.81302431891313        2.45002176391818        2.44519840944911
C           21.55144016260768        1.96370533429004        1.96024332025690
N           21.77739424864744        1.00777458905806        1.00671460853774
C           20.30434291776926        2.39735239832311        2.39306456785982
C           19.06302290450623        1.95307197864885        1.94997718514074
C           17.78941183218555        2.42632669547302        2.42222685486669
C           16.83416117055783        1.74443088026425        1.74172592933051
C           17.51332937221948        0.84667266027328        0.84584024286880
N           18.86047519474441        0.99847803778120        0.99746984362273
H           15.81010545405908       -0.03895722907975       -0.03855259870757
H           15.78952329488899       -1.90939701313289       -1.90593899351012
H           17.70462170432872       -3.24889789843959       -3.24179932781465
H           20.34546360585260       -3.21203013049066       -3.20280429144720
H           22.97690761951477       -3.23713341379335       -3.22518589777916
H           24.87979277284477       -1.89012855963150       -1.88059893311817
H           24.85234327301936        1.87589986902593        1.87237631680481
H           22.92982493870949        3.20933377218190        3.20260724352240
H           20.29882277658943        3.16598511368665        3.15989993160710
H           17.65757977595506        3.18437250359431        3.17866419441110
H           15.76218117022416        1.83135338896368        1.82841745016909
Zn          68.58789932416730        0.00433262488997       -0.01167382888226
C           72.01533491295044        0.03083221105010       -0.00490897928950
C           71.38174703790084        1.26840295082791       -0.03499952114771
C           72.04455494632276        2.54504263142459       -0.06382212993873
C           71.07701832402408        3.49577091460911       -0.08604413779030
C           69.81206715803060        2.81103383029811       -0.07086724411205
N           70.03196133917646        1.46555873163784       -0.04063489295444
C           68.56283062391621        3.42234029010902       -0.08295488320888
C           67.32376785794749        2.79363157653098       -0.06800002374502
C           66.05336440725635        3.46404063787055       -0.07993919434737
C           65.09599728144794        2.50173069131746       -0.05996258417326
N           67.11537391212501        1.44106137730729       -0.04076839581349
C           65.77258141077105        1.23520772621627       -0.03619163236636
C           65.13490437259789       -0.02231562745431       -0.01765114238054
C           65.79171634087992       -1.26985416098367        0.00277790453949
C           65.13468073444966       -2.54664448368940        0.02420879074592
C           66.10673243447155       -3.49407611524016        0.04680677983902
C           67.36668565229117       -2.80413658258735        0.03928661913529
N           67.13752199826784       -1.45493895190287        0.01186918649378
C           68.61527699663732       -3.41361286125838        0.05833892234015
C           69.85496786277632       -2.78308064008328        0.05120837948497
C           71.13028063411124       -3.44820017022229        0.07122137396929
C           72.08310196757880       -2.48263311284751        0.05339497739009
C           71.40078768209858       -1.21636920137267        0.02238941462001
N           70.05419119034654       -1.43435272906695        0.02252041051326
H           73.10089405741212        0.03920791517142       -0.00260564822876
H           73.11486907193007        2.68156166376186       -0.06640349910509
H           71.19505222743173        4.56800773646915       -0.11053429982716
H           68.55426938140756        4.50781087152025       -0.10613686745665
H           65.92276607516385        4.53472759928777       -0.10114432855628
H           64.02471461810373        2.62712638190505       -0.06176012259625
H           64.06544543793814       -2.68848071585343        0.02245928971265
H           65.99262447603645       -4.56666528707513        0.06716538400794
H           68.62342746267448       -4.49909670454665        0.08110327765235
H           71.26478247383010       -4.51849602792141        0.09562973739896
H           73.15537937193035       -2.60259865276843        0.06026446493018
C           28.97863351746819        0.00085487784513        0.00421970492077
C           27.75005445513820       -0.00007873194139        0.00272029536727
C           26.40575682729280       -0.00282723162896        0.00006250879797
C           25.18159962581408       -0.00627143460858       -0.00323389807645
C           30.32281438241010        0.00148327346533        0.00409129985438
C           31.54715533829306        0.00053322484616        0.00361359462124
C           45.06927855663120       -0.02961682310826       -0.02259551409615
C           43.84052460500434       -0.02531166066847       -0.02086576906055
C           42.49656970162533       -0.02206752177964       -0.01833703622546
C           41.27211774457491       -0.01837089095125       -0.01514806047672
C           46.41325046251954       -0.03256276971838       -0.02452354320270
C           47.63768847903123       -0.03804452571623       -0.02480253502117
C           61.16023783189472       -0.04559944056293       -0.02216946117567
C           59.93204479325891       -0.04974419500881       -0.02388640780315
C           58.58714425607239       -0.05238157427850       -0.02425160260133
C           57.36314479749185       -0.05301637480465       -0.02480239807499
C           62.50525853455168       -0.03940435093787       -0.02206104275792
C           63.72912195341412       -0.03242172308270       -0.01949483347147
Zn          36.40970424765896       -0.00824335202314       -0.00566154863103
C           32.95145351186922       -0.00185605445001        0.00135757899944
C           33.60396170291723        0.92969332862338        0.83593731397444
C           32.94193065031849        1.87821717492556        1.68578343857384
C           33.91058881704370        2.58774346858872        2.32027507507775
C           35.17205377410013        2.07790019255660        1.86256952530670
N           34.94896622608722        1.07170465607881        0.96196683548079
C           36.41907299433728        2.53571445514784        2.27082720907682
C           37.66255710072870        2.07426356668794        1.85653214817818
C           38.92780226248824        2.58043202939812        2.30797963549581
C           39.89122894118228        1.86736715983176        1.66957534861754
N           37.87840352795072        1.06682895397365        0.95531895731011
C           39.22223443188713        0.92039124490131        0.82335525381337
C           39.86800990310314       -0.01479507078047       -0.01261956197535
C           39.21531991530649       -0.94741987034197       -0.84606549214402
C           39.87740379748888       -1.89679562953406       -1.69502785114131
C           38.90878619846262       -2.60616319690090       -2.32966294085257
C           37.64727557259422       -2.09540728207954       -1.87298960640355
N           37.87045677833750       -1.08882732657814       -0.97261094936991
C           36.40044393080470       -2.55231269357142       -2.28215316571712
C           35.15683897001205       -2.08989755082014       -1.86876043816822
C           33.89167585784770       -2.59514222776039       -2.32126723571410
C           32.92823923154211       -1.88190612212725       -1.68301251714088
C           33.59720669077132       -0.93586445045398       -0.83581477389346
N           34.94114368129768       -1.08281799045387       -0.96733127246638
H           31.87215934639053        1.98019028551080        1.77799799741496
H           33.79233408333562        3.38654084553666        3.03563162938443
H           36.42199893332936        3.34493657791627        2.99489510267820
H           39.05188349384521        3.37934437722251        3.02222136879674
H           40.96172863095845        1.96596367828303        1.75684414990325
H           40.94716667766796       -1.99935374671653       -1.78664962292667
H           39.02702586700688       -3.40538712565966       -3.04454351318909
H           36.39741002105578       -3.36151954729138       -3.00623401673615
H           33.76757345518263       -3.39360908774781       -3.03600067506946
H           31.85775042248196       -1.97998325988323       -1.77094025983073
Zn          52.50000694531366       -0.04601762622466       -0.02522081508792
C           49.04185566552015       -0.04014674769577       -0.02589185456141
C           49.69257617794689        0.91537845929666        0.78275979588349
C           49.02852170492913        1.88749718460102        1.60405435604573
C           49.99563679317507        2.61648312512041        2.21837839388884
C           51.25825038911781        2.09521141074120        1.77676758780967
N           51.03716433888181        1.06243803737382        0.90604769961928
C           52.50408576079202        2.56769848922821        2.17094605256096
C           53.74862110998669        2.09624442776194        1.77065652613886
C           55.01285095050370        2.61917400642561        2.20570607604805
C           55.97769955421336        1.88770406877066        1.59083185768617
N           53.96625457864872        1.06118337325388        0.90224345014668
C           55.31067209678138        0.91261153605624        0.77543012522334
C           55.95792788942354       -0.05131081600994       -0.02514028811697
C           55.30781486523522       -1.01350954839119       -0.82538158696214
C           55.97186919892193       -1.99106656483327       -1.64025228508203
C           55.00478465879195       -2.71926625280387       -2.25550448574501
C           53.74212826680477       -2.19249666263929       -1.82045233604952
N           53.96293856473126       -1.15810291727833       -0.95205772316803
C           52.49613159002639       -2.65984587014885       -2.22108266934149
C           51.25169939218618       -2.18317158547754       -1.82743494400050
C           49.98748883437072       -2.70023751704152       -2.26948111210911
C           49.02257229808312       -1.96785280378746       -1.65572074984153
C           49.68955704807176       -0.99790590224637       -0.83425996749158
N           51.03371750161033       -1.14944733980784       -0.95706113232642
H           47.95854958001851        1.99076602071353        1.69236028853213
H           49.87573112085791        3.43567717565985        2.91000081803965
H           52.50547068462108        3.39870357165486        2.86990098443851
H           55.13526785039254        3.44075104172568        2.89406052318233
H           57.04799174241934        1.99081297668557        1.67536794780680
H           57.04185884292104       -2.09751384557865       -1.72455775766279
H           55.12470786159347       -3.54112826409074       -2.94395689099467
H           52.49498484415744       -3.49078240909047       -2.92012394768993
H           49.86510450185252       -3.51916330502279       -2.96099252036789
H           47.95228183896548       -2.06748504874396       -1.74439671627209

          :  Hamiltonian                  GFN1-xTB          :
         :: total energy            -283.583340426376 Eh    ::
         :: gradient norm              0.000364225483 Eh/a0 ::
         :: HOMO-LUMO gap              0.908500253532 eV    ::
         :: SCC energy              -288.468171693085 Eh    ::
         :: repulsion energy           5.021616277459 Eh    ::

    * Orbital Energies and Occupations

         #    Occupation            Energy/Eh            Energy/eV
      -------------------------------------------------------------
         1        2.0000           -0.7602992             -20.6888
       ...           ...                  ...                  ...
       249        2.0000           -0.4153945             -11.3035
       250        2.0000           -0.4121428             -11.2150
       251        2.0000           -0.4103008             -11.1649
       252        2.0000           -0.4098438             -11.1524
       253        2.0000           -0.4085551             -11.1173
       254        2.0000           -0.3936953             -10.7130
       255        2.0000           -0.3936675             -10.7122
       256        2.0000           -0.3923840             -10.6773
       257        2.0000           -0.3922887             -10.6747
       258        2.0000           -0.3896564             -10.6031
       259        2.0000           -0.3847387             -10.4693
       260        2.0000           -0.3796286             -10.3302
       261        2.0000           -0.3743892             -10.1876 (HOMO)
       262                         -0.3410024              -9.2791 (LUMO)
       263                         -0.3343761              -9.0988
       264                         -0.3283159              -8.9339
       265                         -0.3258608              -8.8671
       266                         -0.3258351              -8.8664
       267                         -0.3247962              -8.8382
       268                         -0.3246978              -8.8355
       269                         -0.3243065              -8.8248
       270                         -0.3037383              -8.2651
       271                         -0.2962667              -8.0618
       272                         -0.2918388              -7.9413
       ...                                ...                  ...
       556                          1.5820348              43.0494
      -------------------------------------------------------------
                  HL-Gap            0.0333868 Eh            0.9085 eV

Wiberg/Mayer (AO) data.
largest (>0.10) Wiberg bond orders for each atom

     #   Z sym  total        # sym  WBO       # sym  WBO       # sym  WBO
 ---------------------------------------------------------------------------
     1  30 Zn   1.997 --    25 N    0.460     7 N    0.460    12 N    0.456
                            19 N    0.456
     2   6 C    3.932 --    24 C    1.358     3 C    1.358    26 H    0.972
     3   6 C    3.922 --     2 C    1.358     7 N    1.238     4 C    1.166
     4   6 C    3.960 --     5 C    1.665     3 C    1.166    27 H    0.976
     5   6 C    3.963 --     4 C    1.665     6 C    1.167    28 H    0.976
     6   6 C    3.919 --     8 C    1.354     7 N    1.239     5 C    1.167
     7   7 N    3.297 --     6 C    1.239     3 C    1.238     1 Zn   0.460
     8   6 C    3.939 --     9 C    1.366     6 C    1.354    29 H    0.971
     9   6 C    3.914 --     8 C    1.366    12 N    1.219    10 C    1.173
    10   6 C    3.959 --    11 C    1.653     9 C    1.173    30 H    0.976
    11   6 C    3.962 --    10 C    1.653    13 C    1.180    31 H    0.974
    12   7 N    3.300 --    13 C    1.269     9 C    1.219     1 Zn   0.456
    13   6 C    3.902 --    12 N    1.269    14 C    1.253    11 C    1.180
    14   6 C    3.943 --    15 C    1.253    13 C    1.253    76 C    1.193
    15   6 C    3.902 --    19 N    1.269    14 C    1.253    16 C    1.180
    16   6 C    3.962 --    17 C    1.653    15 C    1.180    32 H    0.974
    17   6 C    3.959 --    16 C    1.653    18 C    1.173    33 H    0.976
    18   6 C    3.914 --    20 C    1.366    19 N    1.219    17 C    1.173
    19   7 N    3.300 --    15 C    1.269    18 C    1.219     1 Zn   0.456
    20   6 C    3.939 --    18 C    1.366    21 C    1.354    34 H    0.971
    21   6 C    3.919 --    20 C    1.354    25 N    1.239    22 C    1.167
    22   6 C    3.963 --    23 C    1.665    21 C    1.167    35 H    0.976
    23   6 C    3.960 --    22 C    1.665    24 C    1.166    36 H    0.976
    24   6 C    3.922 --     2 C    1.358    25 N    1.238    23 C    1.166
    25   7 N    3.297 --    21 C    1.239    24 C    1.238     1 Zn   0.460
    26   1 H    1.001 --     2 C    0.972
    27   1 H    0.998 --     4 C    0.976
    28   1 H    0.998 --     5 C    0.976
    29   1 H    1.002 --     8 C    0.971
    30   1 H    0.998 --    10 C    0.976
    31   1 H    1.002 --    11 C    0.974
    32   1 H    1.002 --    16 C    0.974
    33   1 H    0.998 --    17 C    0.976
    34   1 H    1.002 --    20 C    0.971
    35   1 H    0.998 --    22 C    0.976
    36   1 H    0.998 --    23 C    0.976
    37  30 Zn   1.997 --    61 N    0.461    43 N    0.461    48 N    0.456
                            55 N    0.456
    38   6 C    3.933 --    60 C    1.358    39 C    1.358    62 H    0.972
    39   6 C    3.922 --    38 C    1.358    43 N    1.238    40 C    1.166
    40   6 C    3.960 --    41 C    1.665    39 C    1.166    63 H    0.976
    41   6 C    3.963 --    40 C    1.665    42 C    1.167    64 H    0.976
    42   6 C    3.919 --    44 C    1.354    43 N    1.239    41 C    1.167
    43   7 N    3.298 --    42 C    1.239    39 C    1.238    37 Zn   0.461
    44   6 C    3.939 --    45 C    1.365    42 C    1.354    65 H    0.971
    45   6 C    3.914 --    44 C    1.365    48 N    1.220    46 C    1.172
    46   6 C    3.959 --    47 C    1.654    45 C    1.172    66 H    0.976
    47   6 C    3.962 --    46 C    1.654    49 C    1.180    67 H    0.974
    48   7 N    3.300 --    49 C    1.268    45 C    1.220    37 Zn   0.456
    49   6 C    3.903 --    48 N    1.268    50 C    1.255    47 C    1.180
    50   6 C    3.944 --    51 C    1.255    49 C    1.255    90 C    1.189
    51   6 C    3.903 --    55 N    1.268    50 C    1.255    52 C    1.180
    52   6 C    3.962 --    53 C    1.654    51 C    1.180    68 H    0.974
    53   6 C    3.959 --    52 C    1.654    54 C    1.172    69 H    0.976
    54   6 C    3.914 --    56 C    1.365    55 N    1.220    53 C    1.172
    55   7 N    3.300 --    51 C    1.268    54 C    1.220    37 Zn   0.456
    56   6 C    3.939 --    54 C    1.365    57 C    1.354    70 H    0.971
    57   6 C    3.919 --    56 C    1.354    61 N    1.239    58 C    1.167
    58   6 C    3.963 --    59 C    1.665    57 C    1.167    71 H    0.976
    59   6 C    3.960 --    58 C    1.665    60 C    1.166    72 H    0.976
    60   6 C    3.922 --    38 C    1.358    61 N    1.238    59 C    1.166
    61   7 N    3.298 --    57 C    1.239    60 C    1.238    37 Zn   0.461
    62   1 H    1.001 --    38 C    0.972
    63   1 H    0.998 --    40 C    0.976
    64   1 H    0.998 --    41 C    0.976
    65   1 H    1.002 --    44 C    0.971
    66   1 H    0.998 --    46 C    0.976
    67   1 H    1.002 --    47 C    0.974
    68   1 H    1.002 --    52 C    0.974
    69   1 H    0.998 --    53 C    0.976
    70   1 H    1.002 --    56 C    0.971
    71   1 H    0.998 --    58 C    0.976
    72   1 H    0.998 --    59 C    0.976
    73   6 C    3.926 --    74 C    2.366    77 C    1.337    76 C    0.190
    74   6 C    3.924 --    73 C    2.366    75 C    1.336    78 C    0.190
    75   6 C    3.934 --    76 C    2.447    74 C    1.336
    76   6 C    3.890 --    75 C    2.447    14 C    1.193    73 C    0.190
    77   6 C    3.931 --    78 C    2.445    73 C    1.337
    78   6 C    3.891 --    77 C    2.445    92 C    1.196    74 C    0.190
    79   6 C    3.924 --    80 C    2.364    83 C    1.338    82 C    0.190
    80   6 C    3.924 --    79 C    2.364    81 C    1.338    84 C    0.190
    81   6 C    3.931 --    82 C    2.444    80 C    1.338
    82   6 C    3.890 --    81 C    2.444   104 C    1.196    79 C    0.190
    83   6 C    3.932 --    84 C    2.444    79 C    1.338
    84   6 C    3.889 --    83 C    2.444   127 C    1.196    80 C    0.190
    85   6 C    3.923 --    86 C    2.371    89 C    1.332    88 C    0.190
    86   6 C    3.925 --    85 C    2.371    87 C    1.333    90 C    0.190
    87   6 C    3.932 --    88 C    2.449    86 C    1.333
    88   6 C    3.890 --    87 C    2.449   139 C    1.192    85 C    0.190
    89   6 C    3.935 --    90 C    2.452    85 C    1.332
    90   6 C    3.889 --    89 C    2.452    50 C    1.189    86 C    0.190
    91  30 Zn   1.993 --   102 N    0.456   115 N    0.456    97 N    0.456
                           109 N    0.456
    92   6 C    3.930 --    93 C    1.251   114 C    1.251    78 C    1.196
    93   6 C    3.902 --    97 N    1.269    92 C    1.251    94 C    1.183
    94   6 C    3.960 --    95 C    1.649    93 C    1.183   116 H    0.974
    95   6 C    3.959 --    94 C    1.649    96 C    1.176   117 H    0.976
    96   6 C    3.911 --    98 C    1.360    97 N    1.219    95 C    1.176
    97   7 N    3.294 --    93 C    1.269    96 C    1.219    91 Zn   0.456
    98   6 C    3.934 --    99 C    1.361    96 C    1.360   118 H    0.971
    99   6 C    3.911 --    98 C    1.361   102 N    1.219   100 C    1.176
   100   6 C    3.959 --   101 C    1.650    99 C    1.176   119 H    0.976
   101   6 C    3.960 --   100 C    1.650   103 C    1.183   120 H    0.974
   102   7 N    3.294 --   103 C    1.270    99 C    1.219    91 Zn   0.456
   103   6 C    3.902 --   102 N    1.270   104 C    1.250   101 C    1.183
   104   6 C    3.930 --   103 C    1.250   105 C    1.250    82 C    1.196
   105   6 C    3.902 --   109 N    1.270   104 C    1.250   106 C    1.183
   106   6 C    3.960 --   107 C    1.650   105 C    1.183   121 H    0.974
   107   6 C    3.959 --   106 C    1.650   108 C    1.176   122 H    0.976
   108   6 C    3.911 --   110 C    1.361   109 N    1.219   107 C    1.176
   109   7 N    3.294 --   105 C    1.270   108 C    1.219    91 Zn   0.456
   110   6 C    3.934 --   108 C    1.361   111 C    1.360   123 H    0.971
   111   6 C    3.911 --   110 C    1.360   115 N    1.219   112 C    1.176
   112   6 C    3.959 --   113 C    1.649   111 C    1.176   124 H    0.976
   113   6 C    3.960 --   112 C    1.649   114 C    1.183   125 H    0.974
   114   6 C    3.902 --   115 N    1.269    92 C    1.251   113 C    1.183
   115   7 N    3.294 --   114 C    1.269   111 C    1.219    91 Zn   0.456
   116   1 H    1.002 --    94 C    0.974
   117   1 H    0.998 --    95 C    0.976
   118   1 H    1.002 --    98 C    0.971
   119   1 H    0.998 --   100 C    0.976
   120   1 H    1.002 --   101 C    0.974
   121   1 H    1.002 --   106 C    0.974
   122   1 H    0.998 --   107 C    0.976
   123   1 H    1.002 --   110 C    0.971
   124   1 H    0.998 --   112 C    0.976
   125   1 H    1.002 --   113 C    0.974
   126  30 Zn   1.993 --   150 N    0.457   144 N    0.457   132 N    0.457
                           137 N    0.457
   127   6 C    3.931 --   149 C    1.251   128 C    1.251    84 C    1.196
   128   6 C    3.902 --   132 N    1.270   127 C    1.251   129 C    1.183
   129   6 C    3.960 --   130 C    1.650   128 C    1.183   151 H    0.974
   130   6 C    3.959 --   129 C    1.650   131 C    1.175   152 H    0.976
   131   6 C    3.912 --   133 C    1.361   132 N    1.219   130 C    1.175
   132   7 N    3.294 --   128 C    1.270   131 C    1.219   126 Zn   0.457
   133   6 C    3.934 --   131 C    1.361   134 C    1.360   153 H    0.971
   134   6 C    3.912 --   133 C    1.360   137 N    1.220   135 C    1.175
   135   6 C    3.960 --   136 C    1.650   134 C    1.175   154 H    0.976
   136   6 C    3.960 --   135 C    1.650   138 C    1.182   155 H    0.974
   137   7 N    3.294 --   138 C    1.268   134 C    1.220   126 Zn   0.457
   138   6 C    3.903 --   137 N    1.268   139 C    1.253   136 C    1.182
   139   6 C    3.931 --   140 C    1.253   138 C    1.253    88 C    1.192
   140   6 C    3.903 --   144 N    1.268   139 C    1.253   141 C    1.182
   141   6 C    3.960 --   142 C    1.650   140 C    1.182   156 H    0.974
   142   6 C    3.960 --   141 C    1.650   143 C    1.175   157 H    0.976
   143   6 C    3.912 --   145 C    1.360   144 N    1.220   142 C    1.175
   144   7 N    3.294 --   140 C    1.268   143 C    1.220   126 Zn   0.457
   145   6 C    3.934 --   146 C    1.361   143 C    1.360   158 H    0.971
   146   6 C    3.912 --   145 C    1.361   150 N    1.219   147 C    1.175
   147   6 C    3.959 --   148 C    1.650   146 C    1.175   159 H    0.976
   148   6 C    3.960 --   147 C    1.650   149 C    1.183   160 H    0.974
   149   6 C    3.902 --   150 N    1.269   127 C    1.251   148 C    1.183
   150   7 N    3.294 --   149 C    1.269   146 C    1.219   126 Zn   0.457
   151   1 H    1.002 --   129 C    0.974
   152   1 H    0.998 --   130 C    0.976
   153   1 H    1.002 --   133 C    0.971
   154   1 H    0.998 --   135 C    0.976
   155   1 H    1.002 --   136 C    0.974
   156   1 H    1.002 --   141 C    0.974
   157   1 H    0.998 --   142 C    0.976
   158   1 H    1.002 --   145 C    0.971
   159   1 H    0.998 --   147 C    0.976
   160   1 H    1.002 --   148 C    0.974
 ---------------------------------------------------------------------------

           -------------------------------------------------
          | TOTAL ENERGY             -283.583340426376 Eh   |
          | GRADIENT NORM               0.000364225483 Eh/α |
          | HOMO-LUMO GAP               0.908500253532 eV   |
           -------------------------------------------------

 * finished run on 2022/07/30 at 07:03:42.092
