   * xtb version 6.5.1 (b24c23e) compiled by 'conda@728c89f4b128' on 2022-07-12
          program call               : xtb Zn_p-CP_C4_2.xyz --gfn 1 --opt -T 48

   ID    Z sym.   atoms
    1   30 Zn     1, 63
    2    6 C      2-6, 8-11, 13-24, 27-32, 35-39, 42, 43, 64-68, 70-73,
                  75-86, 89-94, 97-101, 104, 105, 125-128
    3    7 N      7, 12, 33, 34, 69, 74, 95, 96
    4    8 O      25, 26, 40, 41, 87, 88, 102, 103
    5    1 H      44-62, 106-124
########################################################################
[WARNING] Please study the warnings concerning your input carefully
-1- prog_main_parseArguments: Unknown option '-T' provided
########################################################################

          :  Hamiltonian                  GFN1-xTB          :
 * total energy  :  -237.0673478 Eh     change       -0.2230820E-09 Eh
 * total energy  :  -237.2234059 Eh     change       -0.1560581E+00 Eh
 * total energy  :  -237.2850042 Eh     change       -0.6159826E-01 Eh
 * total energy  :  -237.3122967 Eh     change       -0.2729249E-01 Eh
 * total energy  :  -237.3273762 Eh     change       -0.1507956E-01 Eh
 * total energy  :  -237.3357438 Eh     change       -0.8367568E-02 Eh
 * total energy  :  -237.3450944 Eh     change       -0.9350623E-02 Eh
 * total energy  :  -237.3513854 Eh     change       -0.6290920E-02 Eh
 * total energy  :  -237.3575086 Eh     change       -0.6123292E-02 Eh
 * total energy  :  -237.3618356 Eh     change       -0.4326981E-02 Eh
 * total energy  :  -237.3739450 Eh     change       -0.7991517E-05 Eh
 * total energy  :  -237.3739538 Eh     change       -0.8769386E-05 Eh
 * total energy  :  -237.3739605 Eh     change       -0.6714644E-05 Eh
 * total energy  :  -237.3739674 Eh     change       -0.6912215E-05 Eh
 * total energy  :  -237.3739728 Eh     change       -0.5327891E-05 Eh
 * total energy  :  -237.3739783 Eh     change       -0.5544079E-05 Eh
 * total energy  :  -237.3739811 Eh     change       -0.2751850E-05 Eh
 * total energy  :  -237.3739888 Eh     change       -0.7741111E-05 Eh
 * total energy  :  -237.3739919 Eh     change       -0.3089787E-05 Eh
   *** GEOMETRY OPTIMIZATION CONVERGED AFTER 49 ITERATIONS ***

 final structure:
================
128
 xtb: 6.5.1 (b24c23e)
Zn          17.70683353315983       -0.05265517974229        0.04440113302255
C           14.29884183010744       -0.14474996654369        0.06063394896043
C           14.92473715258505       -0.18915444876375        1.30056179224425
C           14.24612592266683       -0.23468355384211        2.56563679510564
C           15.20130197287013       -0.24787207083723        3.52840041089398
C           16.47679896787196       -0.22059729617219        2.86204425002816
N           16.27341802525416       -0.17841355010988        1.51390649178725
C           17.72564718340863       -0.20312119438395        3.49523231562176
C           18.96713278829756       -0.13610980889612        2.85272836049024
C           20.24488743335663       -0.17441242451274        3.50915653246963
C           21.19401560191061       -0.10972471076721        2.54081562945864
N           19.16452575176611       -0.06064205019847        1.50017897789470
C           20.50715959974541       -0.03856161199040        1.28466408024226
C           21.14153525525496        0.03008271938585        0.02816531352336
C           20.49184423048070        0.07603602119699       -1.22151744574551
C           21.16392241447356        0.11581663779162       -2.48698186997110
C           20.20355130400900        0.13998323898581       -3.44597707850774
C           18.93352750071584        0.12327276817982       -2.77384806641164
C           17.68444770348243        0.11795758090824       -3.40516083964268
C           17.67611562962821        0.18979548841953       -4.88647122394447
C           17.13764304550291       -0.85501061994474       -5.64252443582138
C           17.13712430721573       -0.79000450851204       -7.02356233958573
C           17.67051464803084        0.32341364987693       -7.67589725879823
C           17.64779253521595        0.34670715654044       -9.15733694801682
O           18.19258196843684        1.45356892539879       -9.68603606195887
O           17.19069403003106       -0.53068506798271       -9.84545879697148
C           18.20550996601026        1.37153122476921       -6.92596132386744
C           18.20913535589215        1.30171295055628       -5.54393080023149
C           16.44301983830301        0.04680050666992       -2.76111486955234
C           15.15968883487728        0.08571600122715       -3.41165785309172
C           14.21596484932909        0.00880772905540       -2.44058875520481
C           14.90960472630890       -0.06807901577916       -1.18522091837522
N           16.25568804483809       -0.03817191151213       -1.41272654320878
N           19.14671884192286        0.07687616196938       -1.42232886411427
C           17.73384526367579       -0.25512668729898        4.97754893644771
C           17.21252774642646       -1.36198672381384        5.65283722163571
C           17.22159132434741       -1.40493256541624        7.03485474182864
C           17.74699639317490       -0.33949743502942        7.76876444478011
C           17.72880809517184       -0.42858427202449        9.24780996752304
O           18.25801531724807        0.64378514449307        9.85731922830794
O           17.28700489118204       -1.36198939100167        9.86866237014860
C           18.26775049670310        0.76875600089916        7.09960349526773
C           18.26251170003477        0.80665760148727        5.71640273988639
H           13.21335762188347       -0.16092296885662        0.06650080990305
H           13.17459179067529       -0.24676491553287        2.68944344968133
H           15.05937921504501       -0.26270472126167        4.59714928787754
H           20.39525811993251       -0.25561414747731        4.57363027212977
H           22.26593751721610       -0.11573422436398        2.65873990070246
H           22.23436169448963        0.11711709100151       -2.61771181591186
H           20.34179654501730        0.15329676855234       -4.51507642746114
H           16.73570911871982       -1.72663140473131       -5.13848299688485
H           16.72696669959289       -1.60054507947581       -7.61597365265318
H           18.13918772251626        1.38965585036873      -10.65337932333455
H           18.61658283198709        2.23954928286840       -7.42775270014297
H           18.61428060438904        2.12148838445478       -4.96132472420773
H           15.00513256707985        0.17390431748637       -4.47511912792393
H           13.14302742260852        0.01044525811137       -2.55212241271560
H           16.81505864480762       -2.19562777469514        5.08501712362824
H           16.82359433544340       -2.26333542146645        7.56488831413180
H           18.20720688660756        0.50745007873993       10.81724145856396
H           18.67364794325692        1.59936843192643        7.66489386568946
H           18.65598553668787        1.67307949113273        5.19670017525581
Zn          31.18167295096588       -0.04705600770605       -0.04999557726496
C           34.58963511785678       -0.13670228649720       -0.07695992224251
C           33.96360864122068       -0.03916871143648       -1.31377720141568
C           34.64211105924090        0.05981376416901       -2.57585710981640
C           33.68687145954009        0.15741677785344       -3.53368610187967
C           32.41144210214198        0.10928204917565       -2.86839900035573
N           32.61491590216561       -0.00336369612218       -1.52432037141916
C           31.16263324727861        0.20082303908802       -3.49522225073701
C           29.92121320700619        0.19478668736413       -2.84915864523580
C           28.64344011454422        0.23421148739032       -3.50549415084255
C           27.69435102317964        0.18705290180243       -2.53610712744339
N           29.72385966045742        0.11333981974594       -1.49695672692345
C           28.38123819722912        0.11157347439258       -1.28022353774818
C           27.74698068037521        0.03401023989352       -0.02418871307555
C           28.39679251332658       -0.06559328981634        1.22231589633815
C           27.72472999401592       -0.17355706323048        2.48380391931109
C           28.68511764606976       -0.26027908057858        3.43916306819963
C           29.95513523698510       -0.19805602195909        2.76970782266474
C           31.20426479967427       -0.27518580470558        3.39625991470741
C           31.21267753053813       -0.37478968544875        4.87593626243658
C           31.75340982629606       -1.49876175606399        5.50642739867046
C           31.75404945682901       -1.59356742748756        6.88573573596130
C           31.21845049948398       -0.56399457744693        7.66218246898786
C           31.24140053996910       -0.71172455064467        9.13640201463732
O           30.69370757457781        0.32523194181684        9.78922369168886
O           31.70082501700280       -1.66147305118513        9.71872313968546
C           30.68113560831528        0.56253804085534        7.03817663764702
C           30.67748535301995        0.65270479601481        5.65732786005604
C           32.44570742608151       -0.27051191201059        2.74830464609285
C           33.72910076023869       -0.30533260767126        3.39897215911764
C           34.67275740958634       -0.26980254202993        2.42544501290032
C           33.97901035534387       -0.20297536179745        1.16956020625571
N           32.63293948458502       -0.20013011887427        1.39906945519873
N           29.74191935006588       -0.08756965329351        1.42190343209392
C           31.15442837423751        0.32010052408390       -4.97367865791012
C           31.67328382020374       -0.70258926360481       -5.77226988522577
C           31.66413919437234       -0.58577994734808       -7.15001014098809
C           31.14125786962069        0.55844336585314       -7.75593130151931
C           31.15904487465568        0.64048421926462       -9.23536478348497
O           30.63305730409376        1.77755257175068       -9.71697210839750
O           31.59797945657096       -0.21643052321103       -9.95961276240973
C           30.62308803806174        1.58331622061132       -6.96326223993505
C           30.62824559947845        1.46125759337801       -5.58493632136511
H           35.67511996476289       -0.15202252091931       -0.08474883528582
H           35.71362880619166        0.06122998204392       -2.70037719120116
H           33.82868846882734        0.26468271743747       -4.59715768781142
H           28.49304110688188        0.27723770822842       -4.57218889860979
H           26.62242889494249        0.19593835611732       -2.65385839770798
H           26.65429392928993       -0.18803110852505        2.61374466008370
H           28.54686481347099       -0.37132290923943        4.50256051268419
H           32.15701261338708       -2.30558889377175        4.90520723119151
H           32.16604472218334       -2.46617862722378        7.38067192256865
H           30.74734041226452        0.15025014832573       10.74274327912296
H           30.26834336377994        1.36599223115405        7.63675012586967
H           30.27060502705679        1.53344000372423        5.17322379308928
H           33.88374870063232       -0.33929900207629        4.46552884234945
H           35.74570888662880       -0.28009187953018        2.53639065875706
H           32.06876696437697       -1.59710167372965       -5.30451393470608
H           32.06012928711437       -1.37820503892654       -7.77564942555400
H           30.68328727616924        1.75278393607979      -10.68623793621678
H           30.21907239540784        2.47451231122687       -7.42880775955915
H           30.23658816044760        2.26273245182504       -4.96863259945936
C           23.76942539415963        0.04634927338818        0.00700541984541
C           22.54743474203230        0.04101452849304        0.01896924834066
C           25.11908693835251        0.04681273532291       -0.00175553519803
C           26.34107601621726        0.04292895672118       -0.01378695850199

          :  Hamiltonian                  GFN1-xTB          :
         :: total energy            -237.373991888315 Eh    ::
         :: gradient norm              0.000641969400 Eh/a0 ::
         :: HOMO-LUMO gap              1.109610455501 eV    ::
         :: SCC energy              -240.826142970935 Eh    ::
         :: repulsion energy           3.564738360677 Eh    ::

    * Orbital Energies and Occupations

         #    Occupation            Energy/Eh            Energy/eV
      -------------------------------------------------------------
         1        2.0000           -0.8311540             -22.6169
       ...           ...                  ...                  ...
       197        2.0000           -0.4297833             -11.6950
       198        2.0000           -0.4297729             -11.6947
       199        2.0000           -0.4296514             -11.6914
       200        2.0000           -0.4291910             -11.6789
       201        2.0000           -0.4290180             -11.6742
       202        2.0000           -0.4289456             -11.6722
       203        2.0000           -0.4288933             -11.6708
       204        2.0000           -0.4273354             -11.6284
       205        2.0000           -0.4262025             -11.5976
       206        2.0000           -0.4015375             -10.9264
       207        2.0000           -0.4015360             -10.9264
       208        2.0000           -0.3974218             -10.8144
       209        2.0000           -0.3849347             -10.4746 (HOMO)
       210                         -0.3441573              -9.3650 (LUMO)
       211                         -0.3363242              -9.1518
       212                         -0.3363219              -9.1518
       213                         -0.3301242              -8.9831
       214                         -0.3131572              -8.5214
       215                         -0.3115325              -8.4772
       216                         -0.3065668              -8.3421
       217                         -0.3065509              -8.3417
       218                         -0.2981144              -8.1121
       219                         -0.2916911              -7.9373
       220                         -0.2764174              -7.5217
       ...                                ...                  ...
       436                          1.5129462              41.1694
      -------------------------------------------------------------
                  HL-Gap            0.0407774 Eh            1.1096 eV

Wiberg/Mayer (AO) data.
largest (>0.10) Wiberg bond orders for each atom

     #   Z sym  total        # sym  WBO       # sym  WBO       # sym  WBO
 ---------------------------------------------------------------------------
     1  30 Zn   1.994 --    33 N    0.459     7 N    0.459    34 N    0.455
                            12 N    0.455
     2   6 C    3.928 --    32 C    1.358     3 C    1.358    44 H    0.971
     3   6 C    3.921 --     2 C    1.358     7 N    1.233     4 C    1.170
     4   6 C    3.960 --     5 C    1.660     3 C    1.170    45 H    0.975
     5   6 C    3.963 --     4 C    1.660     6 C    1.171    46 H    0.973
     6   6 C    3.918 --     8 C    1.313     7 N    1.245     5 C    1.171
     7   7 N    3.293 --     6 C    1.245     3 C    1.233     1 Zn   0.459
     8   6 C    3.932 --     9 C    1.321     6 C    1.313    35 C    1.031
     9   6 C    3.912 --     8 C    1.321    12 N    1.227    10 C    1.178
    10   6 C    3.959 --    11 C    1.646     9 C    1.178    47 H    0.973
    11   6 C    3.962 --    10 C    1.646    13 C    1.186    48 H    0.974
    12   7 N    3.296 --    13 C    1.262     9 C    1.227     1 Zn   0.455
    13   6 C    3.902 --    12 N    1.262    14 C    1.255    11 C    1.186
    14   6 C    3.938 --    13 C    1.255    15 C    1.255   126 C    1.189
    15   6 C    3.902 --    34 N    1.262    14 C    1.255    16 C    1.186
    16   6 C    3.962 --    17 C    1.646    15 C    1.186    49 H    0.974
    17   6 C    3.959 --    16 C    1.646    18 C    1.178    50 H    0.973
    18   6 C    3.912 --    19 C    1.321    34 N    1.227    17 C    1.178
    19   6 C    3.932 --    18 C    1.321    29 C    1.313    20 C    1.031
    20   6 C    3.986 --    28 C    1.385    21 C    1.384    19 C    1.031
    21   6 C    3.987 --    22 C    1.465    20 C    1.384    51 H    0.972
                            27 C    0.102
    22   6 C    3.990 --    21 C    1.465    23 C    1.384    52 H    0.968
                            28 C    0.102
    23   6 C    3.982 --    27 C    1.387    22 C    1.384    24 C    1.011
    24   6 C    3.835 --    26 O    1.689    25 O    1.087    23 C    1.011
    25   8 O    2.095 --    24 C    1.087    53 H    0.839    26 O    0.128
    26   8 O    1.957 --    24 C    1.689    25 O    0.128
    27   6 C    3.991 --    28 C    1.462    23 C    1.387    54 H    0.970
                            21 C    0.102
    28   6 C    3.987 --    27 C    1.462    20 C    1.385    55 H    0.972
                            22 C    0.102
    29   6 C    3.918 --    19 C    1.313    33 N    1.245    30 C    1.171
    30   6 C    3.963 --    31 C    1.660    29 C    1.171    56 H    0.973
    31   6 C    3.960 --    30 C    1.660    32 C    1.170    57 H    0.975
    32   6 C    3.921 --     2 C    1.358    33 N    1.232    31 C    1.170
    33   7 N    3.293 --    29 C    1.245    32 C    1.232     1 Zn   0.459
    34   7 N    3.296 --    15 C    1.262    18 C    1.227     1 Zn   0.455
    35   6 C    3.986 --    43 C    1.385    36 C    1.385     8 C    1.031
    36   6 C    3.987 --    37 C    1.465    35 C    1.385    58 H    0.972
                            42 C    0.102
    37   6 C    3.990 --    36 C    1.465    38 C    1.384    59 H    0.968
                            43 C    0.102
    38   6 C    3.982 --    42 C    1.387    37 C    1.384    39 C    1.011
    39   6 C    3.835 --    41 O    1.689    40 O    1.087    38 C    1.011
    40   8 O    2.095 --    39 C    1.087    60 H    0.839    41 O    0.128
    41   8 O    1.957 --    39 C    1.689    40 O    0.128
    42   6 C    3.991 --    43 C    1.463    38 C    1.387    61 H    0.970
                            36 C    0.102
    43   6 C    3.987 --    42 C    1.463    35 C    1.385    62 H    0.972
                            37 C    0.102
    44   1 H    1.001 --     2 C    0.971
    45   1 H    0.998 --     4 C    0.975
    46   1 H    1.004 --     5 C    0.973
    47   1 H    1.004 --    10 C    0.973
    48   1 H    1.002 --    11 C    0.974
    49   1 H    1.002 --    16 C    0.974
    50   1 H    1.004 --    17 C    0.973
    51   1 H    1.004 --    21 C    0.972
    52   1 H    1.005 --    22 C    0.968
    53   1 H    0.874 --    25 O    0.839
    54   1 H    1.005 --    27 C    0.970
    55   1 H    1.004 --    28 C    0.972
    56   1 H    1.004 --    30 C    0.973
    57   1 H    0.998 --    31 C    0.975
    58   1 H    1.004 --    36 C    0.972
    59   1 H    1.005 --    37 C    0.968
    60   1 H    0.874 --    40 O    0.839
    61   1 H    1.005 --    42 C    0.970
    62   1 H    1.004 --    43 C    0.972
    63  30 Zn   1.994 --    69 N    0.459    95 N    0.459    96 N    0.455
                            74 N    0.455
    64   6 C    3.928 --    94 C    1.358    65 C    1.358   106 H    0.971
    65   6 C    3.921 --    64 C    1.358    69 N    1.233    66 C    1.170
    66   6 C    3.960 --    67 C    1.660    65 C    1.170   107 H    0.975
    67   6 C    3.963 --    66 C    1.660    68 C    1.171   108 H    0.973
    68   6 C    3.918 --    70 C    1.313    69 N    1.245    67 C    1.171
    69   7 N    3.293 --    68 C    1.245    65 C    1.233    63 Zn   0.459
    70   6 C    3.932 --    71 C    1.321    68 C    1.313    97 C    1.031
    71   6 C    3.912 --    70 C    1.321    74 N    1.227    72 C    1.178
    72   6 C    3.959 --    73 C    1.646    71 C    1.178   109 H    0.973
    73   6 C    3.962 --    72 C    1.646    75 C    1.186   110 H    0.974
    74   7 N    3.296 --    75 C    1.262    71 C    1.227    63 Zn   0.455
    75   6 C    3.902 --    74 N    1.262    76 C    1.255    73 C    1.186
    76   6 C    3.938 --    75 C    1.255    77 C    1.255   128 C    1.189
    77   6 C    3.902 --    96 N    1.262    76 C    1.255    78 C    1.186
    78   6 C    3.962 --    79 C    1.646    77 C    1.186   111 H    0.974
    79   6 C    3.959 --    78 C    1.646    80 C    1.178   112 H    0.973
    80   6 C    3.912 --    81 C    1.321    96 N    1.227    79 C    1.178
    81   6 C    3.932 --    80 C    1.321    91 C    1.313    82 C    1.031
    82   6 C    3.986 --    90 C    1.385    83 C    1.384    81 C    1.031
    83   6 C    3.987 --    84 C    1.465    82 C    1.384   113 H    0.972
                            89 C    0.102
    84   6 C    3.990 --    83 C    1.465    85 C    1.384   114 H    0.968
                            90 C    0.102
    85   6 C    3.982 --    89 C    1.387    84 C    1.384    86 C    1.011
    86   6 C    3.835 --    88 O    1.689    87 O    1.087    85 C    1.011
    87   8 O    2.095 --    86 C    1.087   115 H    0.839    88 O    0.128
    88   8 O    1.957 --    86 C    1.689    87 O    0.128
    89   6 C    3.991 --    90 C    1.462    85 C    1.387   116 H    0.970
                            83 C    0.102
    90   6 C    3.987 --    89 C    1.462    82 C    1.385   117 H    0.972
                            84 C    0.102
    91   6 C    3.918 --    81 C    1.313    95 N    1.245    92 C    1.171
    92   6 C    3.963 --    93 C    1.660    91 C    1.171   118 H    0.973
    93   6 C    3.960 --    92 C    1.660    94 C    1.170   119 H    0.975
    94   6 C    3.921 --    64 C    1.358    95 N    1.232    93 C    1.170
    95   7 N    3.293 --    91 C    1.245    94 C    1.232    63 Zn   0.459
    96   7 N    3.297 --    77 C    1.262    80 C    1.227    63 Zn   0.455
    97   6 C    3.986 --   105 C    1.386    98 C    1.385    70 C    1.031
    98   6 C    3.987 --    99 C    1.465    97 C    1.385   120 H    0.972
                           104 C    0.102
    99   6 C    3.990 --    98 C    1.465   100 C    1.384   121 H    0.968
                           105 C    0.102
   100   6 C    3.982 --   104 C    1.387    99 C    1.384   101 C    1.011
   101   6 C    3.835 --   103 O    1.689   102 O    1.087   100 C    1.011
   102   8 O    2.095 --   101 C    1.087   122 H    0.839   103 O    0.128
   103   8 O    1.957 --   101 C    1.689   102 O    0.128
   104   6 C    3.991 --   105 C    1.463   100 C    1.387   123 H    0.970
                            98 C    0.102
   105   6 C    3.987 --   104 C    1.463    97 C    1.386   124 H    0.972
                            99 C    0.102
   106   1 H    1.001 --    64 C    0.971
   107   1 H    0.998 --    66 C    0.975
   108   1 H    1.004 --    67 C    0.973
   109   1 H    1.004 --    72 C    0.973
   110   1 H    1.002 --    73 C    0.974
   111   1 H    1.002 --    78 C    0.974
   112   1 H    1.004 --    79 C    0.973
   113   1 H    1.004 --    83 C    0.972
   114   1 H    1.005 --    84 C    0.968
   115   1 H    0.874 --    87 O    0.839
   116   1 H    1.005 --    89 C    0.970
   117   1 H    1.005 --    90 C    0.972
   118   1 H    1.004 --    92 C    0.973
   119   1 H    0.998 --    93 C    0.975
   120   1 H    1.004 --    98 C    0.972
   121   1 H    1.005 --    99 C    0.968
   122   1 H    0.874 --   102 O    0.839
   123   1 H    1.005 --   104 C    0.970
   124   1 H    1.004 --   105 C    0.972
   125   6 C    3.935 --   126 C    2.476   127 C    1.308
   126   6 C    3.926 --   125 C    2.476    14 C    1.189   128 C    0.199
   127   6 C    3.935 --   128 C    2.476   125 C    1.308
   128   6 C    3.926 --   127 C    2.476    76 C    1.189   126 C    0.199
 ---------------------------------------------------------------------------

           -------------------------------------------------
          | TOTAL ENERGY             -237.373991888315 Eh   |
          | GRADIENT NORM               0.000641969400 Eh/α |
          | HOMO-LUMO GAP               1.109610455501 eV   |
           -------------------------------------------------

 * finished run on 2022/07/30 at 11:59:42.588
