   * xtb version 6.5.1 (b24c23e) compiled by 'conda@728c89f4b128' on 2022-07-12
          program call               : xtb Zn_H_C4_2.xyz --gfn 1 --opt -T 48

   ID    Z sym.   atoms
    1   30 Zn     1, 37
    2    6 C      2-6, 8-11, 13-18, 20-24, 38-42, 44-47, 49-54, 56-60, 73-76
    3    7 N      7, 12, 19, 25, 43, 48, 55, 61
    4    1 H      26-36, 62-72
########################################################################
[WARNING] Please study the warnings concerning your input carefully
-1- prog_main_parseArguments: Unknown option '-T' provided
########################################################################

          :  Hamiltonian                  GFN1-xTB          :
 * total energy  :  -131.6742346 Eh     change       -0.9566747E-10 Eh
 * total energy  :  -131.8092095 Eh     change       -0.1349749E+00 Eh
 * total energy  :  -131.8487771 Eh     change       -0.3956755E-01 Eh
 * total energy  :  -131.8713682 Eh     change       -0.2259118E-01 Eh
 * total energy  :  -131.8774649 Eh     change       -0.6096659E-02 Eh
 * total energy  :  -131.8787980 Eh     change       -0.1333100E-02 Eh
 * total energy  :  -131.8825290 Eh     change       -0.3730965E-02 Eh
 * total energy  :  -131.8837364 Eh     change       -0.1207444E-02 Eh
 * total energy  :  -131.8849541 Eh     change       -0.1217652E-02 Eh
 * total energy  :  -131.8855968 Eh     change       -0.6427575E-03 Eh
 * total energy  :  -131.8861211 Eh     change       -0.9358402E-04 Eh
 * total energy  :  -131.8861783 Eh     change       -0.5723748E-04 Eh
 * total energy  :  -131.8862080 Eh     change       -0.2965294E-04 Eh
 * total energy  :  -131.8862137 Eh     change       -0.5712083E-05 Eh
 * total energy  :  -131.8862223 Eh     change       -0.8598099E-05 Eh
 * total energy  :  -131.8862289 Eh     change       -0.6602138E-05 Eh
 * total energy  :  -131.8862424 Eh     change       -0.1353795E-04 Eh
 * total energy  :  -131.8862535 Eh     change       -0.1110047E-04 Eh
 * total energy  :  -131.8862582 Eh     change       -0.4679885E-05 Eh
   *** GEOMETRY OPTIMIZATION CONVERGED AFTER 21 ITERATIONS ***

 final structure:
================
76
 xtb: 6.5.1 (b24c23e)
Zn           7.77411104919278       -0.03624601903450       -0.01365317881180
C            4.34578195141032       -0.03306358464701       -0.05145720002379
C            4.97998421356559       -0.91268517212108       -0.92211729698823
C            4.31723618447184       -1.81087340747895       -1.82980270232068
C            5.28454348378014       -2.49459877485628       -2.49112025156769
C            6.54952761378128       -2.02216563707919       -1.99525401514237
N            6.32969785659993       -1.06528658160770       -1.04851769671886
C            7.79804075351936       -2.47141864027584       -2.41162954968116
C            9.03739629677572       -2.03612709998436       -1.95772200980451
C           10.30792072042579       -2.52571737604935       -2.41550822371516
C           11.26501805811731       -1.84364862315673       -1.73593212678153
N            9.24520850851665       -1.07098221165772       -1.01001374416423
C           10.58834592344305       -0.93210850519982       -0.85636443644425
C           11.22448429527724       -0.02763351448819        0.01707995019510
C           10.56844627475439        0.87114152272045        0.88165801490341
C           11.22575084812633        1.78368771532455        1.77477056592383
C           10.25396993082176        2.45766494170272        2.44137637910517
C            8.99368450370996        1.96396132051977        1.96028501091282
N            9.22215340139204        1.00277733103108        1.01322333047530
C            7.74511768501861        2.39602740420772        2.39158112408519
C            6.50545802791438        1.94902909258631        1.94724647123184
C            5.22988000024712        2.42403490463584        2.41325028286239
C            4.27723616692691        1.74385786879516        1.72753905031521
C            4.95977720113145        0.84499839363815        0.83504801361518
N            6.30613547261233        0.99377454734342        0.99473993851919
H            3.26026722589700       -0.03224818677251       -0.06495459824246
H            3.24700691363271       -1.89643904848271       -1.93717960515483
H            5.16646694745462       -3.25308857534111       -3.24942262872433
H            7.80613490746911       -3.24471121237242       -3.17375230128578
H           10.43898532567628       -3.29280136544293       -3.16274912153498
H           12.33631537922295       -1.94055417722317       -1.81574458616131
H           12.29505215897962        1.88606831782332        1.87233414983785
H           10.36846672853482        3.22244002725221        3.19370600144297
H            7.73750912040380        3.16711653127461        3.15595442833068
H            5.09550766386451        3.18235681886678        3.16897917878473
H            3.20492539921177        1.83272075132323        1.80837889128231
Zn          21.28556921083570        0.03672314315401        0.01551569989463
C           24.71391222249934        0.05914264185718       -0.01607239157944
C           24.07993051717362        1.29582122198002       -0.06808011746271
C           24.74290003374994        2.57085491119262       -0.13609714087718
C           23.77575933668894        3.52181965311170       -0.16483575304995
C           22.51067173845119        2.83893863523257       -0.11510819419263
N           22.73027071920932        1.49399464021410       -0.05877238684036
C           21.26224912188182        3.45165214103956       -0.12067893003984
C           20.02278409267876        2.82450367096712       -0.07734248106778
C           18.75239304820473        3.49490527296693       -0.08731750962623
C           17.79511046571594        2.53331695960048       -0.04252573793025
N           19.81471331490890        1.47286475347259       -0.02475602535543
C           18.47154439590317        1.26700841670503       -0.00486191416831
C           17.83518607547604        0.01034762702295        0.03301313454471
C           18.49095632569044       -1.23637974576441        0.06800350367105
C           17.83341634729245       -2.51230790179040        0.11430311040913
C           18.80503355194683       -3.45962903270083        0.15335737162680
C           20.06544632025852       -2.77090840864096        0.12976155586490
N           19.83720972131352       -1.42253920895119        0.07697919404682
C           21.31391324026166       -3.38096175094353        0.15752670585396
C           22.55370062508637       -2.75155796292972        0.12946340168264
C           23.82913986142371       -3.41676124618659        0.15420819238244
C           24.78196633471043       -2.45241122117096        0.10404826233119
C           24.09967623358875       -1.18678237475117        0.04912313613996
N           22.75327110115717       -1.40400723724045        0.06775200395471
H           25.79942607525365        0.06737195587998       -0.02756300113476
H           25.81314695647799        2.70618150339649       -0.15846799961249
H           23.89400196393472        4.59313611690443       -0.21551804503036
H           21.25433669874615        4.53648638084709       -0.16482405994479
H           18.62149087266530        4.56514252900583       -0.12497321775640
H           16.72384863650699        2.65897301520917       -0.03641078230625
H           16.76407287945864       -2.65344129697784        0.11742300560435
H           18.69037256360474       -4.53161296677207        0.19456732156076
H           21.32134796947098       -4.46571082770483        0.20407982552337
H           23.96331508594345       -4.48626796761748        0.20302863700244
H           25.85425285281186       -2.57275020722766        0.10351768940200
C           13.85389482503825       -0.01126000609479        0.03072488907569
C           12.63253412790847       -0.02126893986017        0.02538397486358
C           15.20553421844593       -0.00461260421757        0.03421459223305
C           16.42700912574723        0.00031894200985        0.03458397175457

          :  Hamiltonian                  GFN1-xTB          :
         :: total energy            -131.886258213833 Eh    ::
         :: gradient norm              0.000807749508 Eh/a0 ::
         :: HOMO-LUMO gap              1.231912474373 eV    ::
         :: SCC energy              -134.012269840061 Eh    ::
         :: repulsion energy           2.189831371554 Eh    ::

    * Orbital Energies and Occupations

         #    Occupation            Energy/Eh            Energy/eV
      -------------------------------------------------------------
         1        2.0000           -0.7570401             -20.6001
       ...           ...                  ...                  ...
       109        2.0000           -0.4213117             -11.4645
       110        2.0000           -0.4196486             -11.4192
       111        2.0000           -0.4196480             -11.4192
       112        2.0000           -0.4189025             -11.3989
       113        2.0000           -0.4189014             -11.3989
       114        2.0000           -0.4181066             -11.3773
       115        2.0000           -0.4180199             -11.3749
       116        2.0000           -0.4167104             -11.3393
       117        2.0000           -0.4160496             -11.3213
       118        2.0000           -0.3906624             -10.6305
       119        2.0000           -0.3906621             -10.6305
       120        2.0000           -0.3860400             -10.5047
       121        2.0000           -0.3770245             -10.2594 (HOMO)
       122                         -0.3317525              -9.0274 (LUMO)
       123                         -0.3230983              -8.7920
       124                         -0.3230966              -8.7919
       125                         -0.3220134              -8.7624
       126                         -0.2911921              -7.9237
       127                         -0.2862095              -7.7882
       128                         -0.2488111              -6.7705
       129                         -0.2359482              -6.4205
       130                         -0.2202624              -5.9936
       131                         -0.2202613              -5.9936
       132                         -0.2008211              -5.4646
       ...                                ...                  ...
       260                          1.5216184              41.4053
      -------------------------------------------------------------
                  HL-Gap            0.0452720 Eh            1.2319 eV

Wiberg/Mayer (AO) data.
largest (>0.10) Wiberg bond orders for each atom

     #   Z sym  total        # sym  WBO       # sym  WBO       # sym  WBO
 ---------------------------------------------------------------------------
     1  30 Zn   1.999 --     7 N    0.461    25 N    0.460    12 N    0.457
                            19 N    0.457
     2   6 C    3.934 --    24 C    1.358     3 C    1.358    26 H    0.972
     3   6 C    3.922 --     2 C    1.358     7 N    1.238     4 C    1.166
     4   6 C    3.961 --     5 C    1.665     3 C    1.166    27 H    0.976
     5   6 C    3.963 --     4 C    1.665     6 C    1.167    28 H    0.976
     6   6 C    3.920 --     8 C    1.356     7 N    1.238     5 C    1.167
     7   7 N    3.298 --     3 C    1.238     6 C    1.238     1 Zn   0.461
     8   6 C    3.940 --     9 C    1.364     6 C    1.356    29 H    0.972
     9   6 C    3.914 --     8 C    1.364    12 N    1.222    10 C    1.173
    10   6 C    3.960 --    11 C    1.654     9 C    1.173    30 H    0.976
    11   6 C    3.962 --    10 C    1.654    13 C    1.180    31 H    0.974
    12   7 N    3.301 --    13 C    1.265     9 C    1.222     1 Zn   0.457
    13   6 C    3.905 --    12 N    1.265    14 C    1.260    11 C    1.180
    14   6 C    3.944 --    15 C    1.260    13 C    1.260    74 C    1.180
    15   6 C    3.905 --    19 N    1.265    14 C    1.260    16 C    1.180
    16   6 C    3.962 --    17 C    1.654    15 C    1.180    32 H    0.974
    17   6 C    3.960 --    16 C    1.654    18 C    1.173    33 H    0.976
    18   6 C    3.914 --    20 C    1.364    19 N    1.222    17 C    1.173
    19   7 N    3.301 --    15 C    1.265    18 C    1.222     1 Zn   0.457
    20   6 C    3.940 --    18 C    1.364    21 C    1.356    34 H    0.972
    21   6 C    3.920 --    20 C    1.356    25 N    1.239    22 C    1.166
    22   6 C    3.963 --    23 C    1.666    21 C    1.166    35 H    0.976
    23   6 C    3.961 --    22 C    1.666    24 C    1.166    36 H    0.976
    24   6 C    3.922 --     2 C    1.358    25 N    1.239    23 C    1.166
    25   7 N    3.297 --    24 C    1.239    21 C    1.239     1 Zn   0.460
    26   1 H    1.002 --     2 C    0.972
    27   1 H    0.998 --     4 C    0.976
    28   1 H    0.998 --     5 C    0.976
    29   1 H    1.002 --     8 C    0.972
    30   1 H    0.998 --    10 C    0.976
    31   1 H    1.002 --    11 C    0.974
    32   1 H    1.002 --    16 C    0.974
    33   1 H    0.998 --    17 C    0.976
    34   1 H    1.002 --    20 C    0.972
    35   1 H    0.998 --    22 C    0.976
    36   1 H    0.998 --    23 C    0.976
    37  30 Zn   1.999 --    43 N    0.461    61 N    0.460    48 N    0.457
                            55 N    0.457
    38   6 C    3.934 --    60 C    1.358    39 C    1.358    62 H    0.972
    39   6 C    3.922 --    38 C    1.358    43 N    1.238    40 C    1.166
    40   6 C    3.961 --    41 C    1.665    39 C    1.166    63 H    0.976
    41   6 C    3.963 --    40 C    1.665    42 C    1.167    64 H    0.976
    42   6 C    3.920 --    44 C    1.356    43 N    1.238    41 C    1.167
    43   7 N    3.298 --    39 C    1.238    42 C    1.238    37 Zn   0.461
    44   6 C    3.940 --    45 C    1.364    42 C    1.356    65 H    0.972
    45   6 C    3.914 --    44 C    1.364    48 N    1.221    46 C    1.173
    46   6 C    3.960 --    47 C    1.654    45 C    1.173    66 H    0.976
    47   6 C    3.962 --    46 C    1.654    49 C    1.180    67 H    0.974
    48   7 N    3.301 --    49 C    1.265    45 C    1.221    37 Zn   0.457
    49   6 C    3.905 --    48 N    1.265    50 C    1.260    47 C    1.180
    50   6 C    3.944 --    51 C    1.260    49 C    1.260    76 C    1.180
    51   6 C    3.905 --    55 N    1.265    50 C    1.260    52 C    1.180
    52   6 C    3.962 --    53 C    1.654    51 C    1.180    68 H    0.974
    53   6 C    3.960 --    52 C    1.654    54 C    1.173    69 H    0.976
    54   6 C    3.914 --    56 C    1.364    55 N    1.222    53 C    1.173
    55   7 N    3.301 --    51 C    1.265    54 C    1.222    37 Zn   0.457
    56   6 C    3.940 --    54 C    1.364    57 C    1.356    70 H    0.972
    57   6 C    3.920 --    56 C    1.356    61 N    1.239    58 C    1.166
    58   6 C    3.963 --    59 C    1.666    57 C    1.166    71 H    0.976
    59   6 C    3.961 --    58 C    1.666    60 C    1.166    72 H    0.976
    60   6 C    3.922 --    38 C    1.358    61 N    1.239    59 C    1.166
    61   7 N    3.297 --    60 C    1.239    57 C    1.239    37 Zn   0.460
    62   1 H    1.002 --    38 C    0.972
    63   1 H    0.998 --    40 C    0.976
    64   1 H    0.998 --    41 C    0.976
    65   1 H    1.002 --    44 C    0.972
    66   1 H    0.998 --    46 C    0.976
    67   1 H    1.002 --    47 C    0.974
    68   1 H    1.002 --    52 C    0.974
    69   1 H    0.998 --    53 C    0.976
    70   1 H    1.002 --    56 C    0.972
    71   1 H    0.998 --    58 C    0.976
    72   1 H    0.998 --    59 C    0.976
    73   6 C    3.935 --    74 C    2.486    75 C    1.299
    74   6 C    3.922 --    73 C    2.486    14 C    1.180    76 C    0.198
    75   6 C    3.935 --    76 C    2.486    73 C    1.299
    76   6 C    3.922 --    75 C    2.486    50 C    1.180    74 C    0.198
 ---------------------------------------------------------------------------

           -------------------------------------------------
          | TOTAL ENERGY             -131.886258213833 Eh   |
          | GRADIENT NORM               0.000807749508 Eh/α |
          | HOMO-LUMO GAP               1.231912474373 eV   |
           -------------------------------------------------

 * finished run on 2022/07/30 at 06:57:45.107
