   * xtb version 6.5.1 (b24c23e) compiled by 'conda@728c89f4b128' on 2022-07-12
          program call               : xtb Cu_Py_C2_3.xyz --gfn 1 --opt -T 48

   ID    Z sym.   atoms
    1   29 Cu     1, 55, 113
    2    6 C      2-6, 8-11, 13-17, 19-24, 26-29, 31-36, 56-60, 62-65, 67-71,
                  73-78, 80-83, 85-90, 109-112, 114-118, 120-123, 125-129,
                  131-136, 138-141, 143-148
    3    7 N      7, 12, 18, 25, 30, 37, 61, 66, 72, 79, 84, 91, 119, 124,
                  130, 137, 142, 149
    4    1 H      38-54, 92-108, 150-165

          :  Hamiltonian                  GFN1-xTB          :
 * total energy  :  -295.9628250 Eh     change       -0.1509250E-08 Eh
 * total energy  :  -296.1250057 Eh     change       -0.1621807E+00 Eh
 * total energy  :  -296.2372480 Eh     change       -0.1122423E+00 Eh
 * total energy  :  -296.3037933 Eh     change       -0.6654538E-01 Eh
 * total energy  :  -296.3415694 Eh     change       -0.3777609E-01 Eh
 * total energy  :  -296.3625892 Eh     change       -0.2101982E-01 Eh
 * total energy  :  -296.3801191 Eh     change       -0.1752983E-01 Eh
 * total energy  :  -296.3939432 Eh     change       -0.1382416E-01 Eh
 * total energy  :  -296.4053469 Eh     change       -0.1140363E-01 Eh
 * total energy  :  -296.4146298 Eh     change       -0.9282958E-02 Eh
 * total energy  :  -296.4768027 Eh     change       -0.1142192E-04 Eh
 * total energy  :  -296.4768166 Eh     change       -0.1390657E-04 Eh
 * total energy  :  -296.4768288 Eh     change       -0.1220111E-04 Eh
 * total energy  :  -296.4768409 Eh     change       -0.1207834E-04 Eh
 * total energy  :  -296.4768511 Eh     change       -0.1018212E-04 Eh
 * total energy  :  -296.4768595 Eh     change       -0.8438571E-05 Eh
 * total energy  :  -296.4768655 Eh     change       -0.5948301E-05 Eh
 * total energy  :  -296.4768708 Eh     change       -0.5282725E-05 Eh
 * total energy  :  -296.4768752 Eh     change       -0.4402291E-05 Eh
   *** GEOMETRY OPTIMIZATION CONVERGED AFTER 56 ITERATIONS ***

 final structure:
================
165
 xtb: 6.5.1 (b24c23e)
Cu          27.28337706535993       -0.03189248924019       -0.02202650278466
C           23.87742913211686       -0.05336100402988       -0.03876355037130
C           24.50846750705807       -1.28019740173377        0.10076152712722
C           23.82883312190817       -2.53297191560010        0.26868013271030
C           24.78406848587489       -3.48667998375494        0.39610944453610
C           26.05735670614083       -2.82547134596611        0.29866943533934
N           25.85855033949691       -1.48619010852805        0.12365660001238
C           27.29963360547014       -3.45455444694278        0.40573862727357
C           27.30677137208076       -4.92649414641667        0.58669455367778
C           27.83393801096781       -5.51297136879144        1.73674201314566
C           27.81420872967129       -6.89309814076906        1.86177427875109
N           27.31640086462603       -7.69808947938582        0.92848651703178
C           26.81419363238275       -7.14737883750308       -0.17202323200428
C           26.78498810012245       -5.77828765749796       -0.38611165013589
C           28.53518972812147       -2.80605302573754        0.35490953531640
C           29.81063607128647       -3.46215446809464        0.41660941361365
C           30.75952903175903       -2.49847045937640        0.30625011958220
N           28.72766720843228       -1.45916783950882        0.19902569821840
C           30.07270944493828       -1.24891264586837        0.16931123994329
C           30.71062996585379       -0.01055612439363       -0.00796889126414
C           30.05887865750441        1.22010124540012       -0.18781409710175
C           30.73086641507265        2.47035090986921       -0.38017384581747
C           29.77087938245993        3.42210725782664       -0.49843472338768
C           28.50361549265136        2.75982408156208       -0.37003610531242
N           28.71162762653327        1.41793171084876       -0.19337429587589
C           27.26062404980618        3.39233062380914       -0.43843554835296
C           27.25148392999280        4.86610125280686       -0.60386378827694
C           26.69175722985125        5.46681849686676       -1.73078349039375
C           26.70638640476179        6.84864319797963       -1.83789909286978
N           27.22891541093990        7.64199466099717       -0.90829366977164
C           27.76304193483823        7.07754886405012        0.17010208599801
C           27.80014867078985        5.70587936048076        0.36477218019160
C           26.02530179130973        2.74571787522054       -0.35926467020441
C           24.74497841237668        3.39963043735222       -0.39097276879472
C           23.80072331884729        2.43265641238311       -0.28294651308256
C           24.49444551991854        1.18105519560001       -0.17417231231085
N           25.84190344934274        1.40045655978834       -0.21572420834011
H           22.79235082730150       -0.05864029317228       -0.03081433982262
H           22.75699993894477       -2.65169247831406        0.29155648173742
H           24.64636651720309       -4.54401657420682        0.55537690625409
H           28.23949455786202       -4.89558035446160        2.52945502419774
H           28.21531515259633       -7.37248911203912        2.75005837950227
H           26.41746565655274       -7.83062847366374       -0.91722210665866
H           26.37616412837940       -5.37496782688223       -1.30495627019660
H           29.95741284615261       -4.52544837889042        0.51559689621206
H           31.83129501474079       -2.61637457352592        0.30486037361393
H           31.80108284151165        2.59555225186680       -0.41959017990097
H           29.90479326632868        4.47812121639254       -0.66836958124415
H           26.26473202555406        4.85961340565655       -2.52008834044896
H           26.28021751063907        7.33896665459022       -2.70834378507904
H           28.17990830020213        7.75168191506283        0.91269870060319
H           28.23568222224858        5.29076433943137        1.26592683637141
H           24.59546914534715        4.46407829458129       -0.47395505091797
H           22.72782707712572        2.54289924685017       -0.26966617170185
Cu          49.08709954990304        0.04802911439613       -0.02158985658452
C           52.49407494410259        0.05524894784682       -0.05842749613135
C           51.86481518294893        1.26668554551161       -0.30155992782802
C           52.54629734918196        2.50838952091837       -0.53237326712589
C           51.59244778241411        3.45600136168118       -0.70683641222137
C           50.31827174469730        2.79899875447958       -0.59409952433688
N           50.51505962456471        1.47204535648445       -0.34043465692602
C           49.07668199175744        3.43003604865971       -0.69507064118045
C           49.07166776100647        4.88758448737263       -0.97009347504795
C           48.54545466400854        5.79508378207511       -0.05136549170326
C           48.56861385296942        7.14851372278410       -0.34869883519000
N           49.06913964119716        7.63303851996072       -1.48074151392200
C           49.56999788685719        6.77460298761145       -2.36321352987576
C           49.59573864593878        5.40461002693666       -2.15409697056742
C           47.84002129907037        2.79741761825820       -0.55326494931707
C           46.56654940690463        3.44383111223204       -0.69708465413785
C           45.61550469581786        2.49604376352423       -0.50125336833584
N           47.64399622759735        1.46827270626323       -0.28708854469301
C           46.29825106805282        1.26302332071192       -0.24725651094271
C           45.65688326371849        0.03897729386384        0.00511090541400
C           46.30868680520121       -1.18035592271898        0.25364023651946
C           45.63641832712188       -2.42736942662915        0.46350400707351
C           46.59537089465834       -3.36939122940203        0.64835700880447
C           47.86307139336530       -2.70241007851995        0.55665190740448
N           47.65599924030749       -1.37167437098516        0.30770957355880
C           49.10516094573535       -3.33027018522577        0.66994570628027
C           49.11236820898302       -4.78383025757871        0.96351470575414
C           49.65910029752620       -5.70070573875462        0.06636968727653
C           49.64231394640608       -7.04971557759273        0.38381092959919
N           49.12971314925465       -7.52124681427922        1.51586914475164
C           48.60824992127659       -6.65388171523079        2.37756475649956
C           48.57416087411357       -5.28763082974179        2.14709688378559
C           50.34139309848099       -2.69708240446217        0.52500381752204
C           51.62087366193742       -3.33289304296733        0.68741412382635
C           52.56672458708520       -2.38394884617932        0.47960292991532
C           51.87484124031617       -1.15874115078535        0.19743488634767
N           50.52686636776336       -1.37584526634128        0.23553182073945
H           53.57917023356006        0.05985556999968       -0.05758331150279
H           53.61831462351358        2.62647189520004       -0.54903613540596
H           51.73175919568314        4.51002404325441       -0.88544738648122
H           48.13794797544384        5.44669823159560        0.89023674245127
H           48.16880893985584        7.87462794881359        0.35319905945745
H           49.96926203522573        7.20020885177449       -3.27922033597102
H           50.00409783632027        4.74184079119664       -2.90776320301705
H           46.42224522589336        4.48667027891946       -0.92856920984087
H           44.54434083168896        2.61453131507449       -0.52468287842713
H           44.56667576638327       -2.56039033012496        0.45632270406177
H           46.46012677710349       -4.42552990286391        0.81615663683383
H           50.07737097747348       -5.36336127809793       -0.87454691189176
H           50.05822242324913       -7.78281655893154       -0.30123553326752
H           48.19923795289323       -7.06914118253950        3.29403911233233
H           48.14897833394362       -4.61692572827630        2.88428411714342
H           51.76881431753059       -4.37018527771828        0.94122359252030
H           53.63961287443395       -2.48811045483550        0.51811229655687
C           32.12198140484722       -0.00457076368120       -0.01401256748397
C           33.33774231919279       -0.00126726779282       -0.01637881801865
C           43.02936707738462        0.02148915952958       -0.00317486478955
C           44.24554888790524        0.03105801761790        0.00061949074688
Cu          38.18223055972582        0.00178051255401       -0.01823990661178
C           34.74874043300624       -0.00049063001832       -0.01825623129230
C           35.39523335450660       -0.91939889350602        0.82463296115438
C           34.71804353110774       -1.81062255009624        1.71846102992529
C           35.67414701057822       -2.52093684896241        2.36887195486116
C           36.94322272563033       -2.07249427563384        1.86987904875397
N           36.74076194034595       -1.09316409685096        0.93501476916726
C           38.18455438206549       -2.54480736881285        2.30105387643602
C           38.18462957522750       -3.63230510319380        3.30957715393267
C           37.62781505615335       -4.87998658486817        3.03108989487816
C           37.65102107887288       -5.86378218603863        4.00707027719350
N           38.17882141488236       -5.67626328086055        5.21248049144998
C           38.70988051975861       -4.48910452874880        5.48695246814472
C           38.73884552280658       -3.44548360732910        4.57542224947233
C           39.42484568867248       -2.07373184621412        1.86560388642244
C           40.69458101802651       -2.60212065438735        2.27629507808302
C           41.64988631320786       -1.88737480321933        1.62965590460910
N           39.62657293698367       -1.05824778035365        0.96967528245778
C           40.97232583451360       -0.92624169006759        0.81206161375358
C           41.61841423304806        0.01367390385356       -0.00869135857415
C           40.97016800167846        0.94592104803383       -0.83649773395246
C           41.64556806795792        1.90671629830040       -1.65625552884696
C           40.68911064112706        2.60972481871064       -2.31383387852730
C           39.42088582625524        2.07544773599927       -1.90632748298680
N           39.62451991635630        1.06737400825351       -1.00261938648167
C           38.18014876137065        2.53660123826144       -2.35082236349792
C           38.18131735390424        3.61225091017394       -3.37203899984268
C           38.73936385259812        3.40871248010679       -4.63367892138554
C           38.71422973117717        4.44046448186114       -5.55861195165542
N           38.18364158398496        5.63158986610994       -5.30075323973031
C           37.65224549478508        5.83492511698048       -4.09957713935651
C           37.62473973225292        4.86364539567366       -3.11110096975982
C           36.93953235335923        2.06446822787292       -1.91795563437440
C           35.66979694006068        2.50793390006195       -2.41959818868734
C           34.71480325938189        1.80176066554690       -1.76308672108447
C           35.39346813315578        0.91675927259997       -0.86417757871924
N           36.73869699529452        1.09129912816205       -0.97624668899555
H           33.64798444928926       -1.86968445157831        1.83714028952854
H           35.53626499057662       -3.27172193429907        3.12994651912437
H           37.19601302237800       -5.08208207566510        2.05809076219675
H           37.22705775358978       -6.84452708931547        3.81195084759859
H           39.13093853657265       -4.36551793026731        6.48050269468316
H           39.17215148496328       -2.49048684857278        4.84798528855833
H           40.83359038548459       -3.42216304516570        2.96195747828800
H           42.72034078815206       -1.99749037930849        1.69384277958547
H           42.71546559411320        2.02377857616687       -1.71594481816961
H           40.82646760882621        3.42590435122507       -3.00439744039868
H           39.17320674722110        2.45003379156885       -4.89209928299000
H           39.13837242359215        4.30388173239518       -6.54912842991421
H           37.22916022778688        6.81865476663409       -3.91813045252344
H           37.19033425263112        5.07870065751042       -2.14205869820373
H           35.53081165500651        3.25319428101362       -3.18589054565438
H           33.64460290567896        1.85882731265215       -1.88139624667784

          :  Hamiltonian                  GFN1-xTB          :
         :: total energy            -296.476875169990 Eh    ::
         :: gradient norm              0.000363905306 Eh/a0 ::
         :: HOMO-LUMO gap              0.000035618910 eV    ::
         :: SCC energy              -300.947817470302 Eh    ::
         :: repulsion energy           4.627679389607 Eh    ::

    * Orbital Energies and Occupations

         #    Occupation            Energy/Eh            Energy/eV
      -------------------------------------------------------------
         1        2.0000           -0.7704341             -20.9646
       ...           ...                  ...                  ...
       263        2.0000           -0.4145141             -11.2795
       264        2.0000           -0.4145068             -11.2793
       265        2.0000           -0.4140739             -11.2675
       266        2.0000           -0.4139179             -11.2633
       267        2.0000           -0.4137490             -11.2587
       268        2.0000           -0.4018588             -10.9351
       269        2.0000           -0.4017600             -10.9324
       270        2.0000           -0.4017399             -10.9319
       271        2.0000           -0.4016740             -10.9301
       272        2.0000           -0.3939998             -10.7213
       273        2.0000           -0.3846589             -10.4671
       274        1.0214           -0.3620782              -9.8526
       275        0.9896           -0.3620101              -9.8508 (HOMO)
       276        0.9890           -0.3620088              -9.8508 (LUMO)
       277        0.0000           -0.3465062              -9.4289
       278                         -0.3362674              -9.1503
       279                         -0.3349128              -9.1134
       280                         -0.3348762              -9.1124
       281                         -0.3346722              -9.1069
       282                         -0.3264505              -8.8832
       283                         -0.3058786              -8.3234
       284                         -0.2996036              -8.1526
       285                         -0.2962414              -8.0611
       286                         -0.2817096              -7.6657
       ...                                ...                  ...
       575                          1.3383025              36.4171
      -------------------------------------------------------------
                  HL-Gap            0.0000013 Eh            0.0000 eV

Wiberg/Mayer (AO) data.
largest (>0.10) Wiberg bond orders for each atom

     #   Z sym  total        # sym  WBO       # sym  WBO       # sym  WBO
 ---------------------------------------------------------------------------
     1  29 Cu   2.191 --     7 N    0.506    37 N    0.506    18 N    0.504
                            25 N    0.503
     2   6 C    3.931 --     3 C    1.362    36 C    1.362    38 H    0.971
     3   6 C    3.916 --     2 C    1.362     7 N    1.229     4 C    1.170
     4   6 C    3.955 --     5 C    1.657     3 C    1.170    39 H    0.975
     5   6 C    3.958 --     4 C    1.657     6 C    1.171    40 H    0.973
     6   6 C    3.914 --     8 C    1.320     7 N    1.238     5 C    1.171
     7   7 N    3.245 --     6 C    1.238     3 C    1.229     1 Cu   0.506
     8   6 C    3.935 --    15 C    1.325     6 C    1.320     9 C    1.027
     9   6 C    3.986 --    14 C    1.393    10 C    1.393     8 C    1.027
                            12 N    0.107
    10   6 C    3.987 --    11 C    1.442     9 C    1.393    41 H    0.973
                            13 C    0.108
    11   6 C    3.972 --    10 C    1.442    12 N    1.415    42 H    0.972
                            14 C    0.108
    12   7 N    3.030 --    13 C    1.416    11 C    1.415     9 C    0.107
    13   6 C    3.972 --    14 C    1.442    12 N    1.416    43 H    0.972
                            10 C    0.108
    14   6 C    3.987 --    13 C    1.442     9 C    1.393    44 H    0.973
                            11 C    0.108
    15   6 C    3.909 --     8 C    1.325    18 N    1.224    16 C    1.179
    16   6 C    3.955 --    17 C    1.644    15 C    1.179    45 H    0.973
    17   6 C    3.957 --    16 C    1.644    19 C    1.185    46 H    0.972
    18   7 N    3.249 --    19 C    1.253    15 C    1.224     1 Cu   0.504
    19   6 C    3.904 --    20 C    1.269    18 N    1.253    17 C    1.185
    20   6 C    3.940 --    21 C    1.269    19 C    1.269   109 C    1.166
    21   6 C    3.904 --    20 C    1.269    25 N    1.252    22 C    1.185
    22   6 C    3.957 --    23 C    1.643    21 C    1.185    47 H    0.972
    23   6 C    3.955 --    22 C    1.643    24 C    1.179    48 H    0.973
    24   6 C    3.909 --    26 C    1.324    25 N    1.224    23 C    1.179
    25   7 N    3.249 --    21 C    1.252    24 C    1.224     1 Cu   0.503
    26   6 C    3.935 --    24 C    1.324    33 C    1.320    27 C    1.027
    27   6 C    3.986 --    28 C    1.393    32 C    1.393    26 C    1.027
                            30 N    0.107
    28   6 C    3.987 --    29 C    1.442    27 C    1.393    49 H    0.973
                            31 C    0.108
    29   6 C    3.972 --    28 C    1.442    30 N    1.416    50 H    0.972
                            32 C    0.108
    30   7 N    3.030 --    29 C    1.416    31 C    1.415    27 C    0.107
    31   6 C    3.972 --    32 C    1.442    30 N    1.415    51 H    0.972
                            28 C    0.108
    32   6 C    3.987 --    31 C    1.442    27 C    1.393    52 H    0.973
                            29 C    0.108
    33   6 C    3.914 --    26 C    1.320    37 N    1.238    34 C    1.171
    34   6 C    3.958 --    35 C    1.657    33 C    1.171    53 H    0.973
    35   6 C    3.955 --    34 C    1.657    36 C    1.170    54 H    0.975
    36   6 C    3.916 --     2 C    1.362    37 N    1.229    35 C    1.170
    37   7 N    3.244 --    33 C    1.238    36 C    1.229     1 Cu   0.506
    38   1 H    1.001 --     2 C    0.971
    39   1 H    0.998 --     4 C    0.975
    40   1 H    1.004 --     5 C    0.973
    41   1 H    1.004 --    10 C    0.973
    42   1 H    1.013 --    11 C    0.972
    43   1 H    1.013 --    13 C    0.972
    44   1 H    1.004 --    14 C    0.973
    45   1 H    1.004 --    16 C    0.973
    46   1 H    1.004 --    17 C    0.972
    47   1 H    1.004 --    22 C    0.972
    48   1 H    1.004 --    23 C    0.973
    49   1 H    1.004 --    28 C    0.973
    50   1 H    1.013 --    29 C    0.972
    51   1 H    1.013 --    31 C    0.972
    52   1 H    1.004 --    32 C    0.973
    53   1 H    1.004 --    34 C    0.973
    54   1 H    0.998 --    35 C    0.975
    55  29 Cu   2.192 --    91 N    0.507    61 N    0.506    72 N    0.504
                            79 N    0.504
    56   6 C    3.931 --    57 C    1.362    90 C    1.362    92 H    0.971
    57   6 C    3.916 --    56 C    1.362    61 N    1.229    58 C    1.170
    58   6 C    3.955 --    59 C    1.657    57 C    1.170    93 H    0.975
    59   6 C    3.958 --    58 C    1.657    60 C    1.171    94 H    0.973
    60   6 C    3.914 --    62 C    1.321    61 N    1.238    59 C    1.171
    61   7 N    3.244 --    60 C    1.238    57 C    1.229    55 Cu   0.506
    62   6 C    3.935 --    69 C    1.325    60 C    1.321    63 C    1.027
    63   6 C    3.986 --    68 C    1.393    64 C    1.393    62 C    1.027
                            66 N    0.107
    64   6 C    3.987 --    65 C    1.442    63 C    1.393    95 H    0.973
                            67 C    0.109
    65   6 C    3.972 --    64 C    1.442    66 N    1.415    96 H    0.972
                            68 C    0.108
    66   7 N    3.030 --    67 C    1.416    65 C    1.415    63 C    0.107
    67   6 C    3.972 --    68 C    1.442    66 N    1.416    97 H    0.972
                            64 C    0.109
    68   6 C    3.987 --    67 C    1.442    63 C    1.393    98 H    0.973
                            65 C    0.108
    69   6 C    3.909 --    62 C    1.325    72 N    1.224    70 C    1.179
    70   6 C    3.955 --    71 C    1.643    69 C    1.179    99 H    0.973
    71   6 C    3.957 --    70 C    1.643    73 C    1.186   100 H    0.970
    72   7 N    3.248 --    73 C    1.253    69 C    1.224    55 Cu   0.504
    73   6 C    3.903 --    74 C    1.268    72 N    1.253    71 C    1.186
    74   6 C    3.940 --    73 C    1.268    75 C    1.267   112 C    1.169
    75   6 C    3.903 --    74 C    1.267    79 N    1.253    76 C    1.186
    76   6 C    3.957 --    77 C    1.643    75 C    1.186   101 H    0.971
    77   6 C    3.955 --    76 C    1.643    78 C    1.179   102 H    0.973
    78   6 C    3.909 --    80 C    1.324    79 N    1.224    77 C    1.179
    79   7 N    3.248 --    75 C    1.253    78 C    1.224    55 Cu   0.504
    80   6 C    3.935 --    78 C    1.324    87 C    1.320    81 C    1.028
    81   6 C    3.986 --    86 C    1.393    82 C    1.393    80 C    1.028
                            84 N    0.107
    82   6 C    3.987 --    83 C    1.442    81 C    1.393   103 H    0.973
                            85 C    0.108
    83   6 C    3.972 --    82 C    1.442    84 N    1.415   104 H    0.972
                            86 C    0.108
    84   7 N    3.030 --    83 C    1.415    85 C    1.415    81 C    0.107
    85   6 C    3.972 --    86 C    1.442    84 N    1.415   105 H    0.972
                            82 C    0.108
    86   6 C    3.987 --    85 C    1.442    81 C    1.393   106 H    0.973
                            83 C    0.108
    87   6 C    3.914 --    80 C    1.320    91 N    1.238    88 C    1.171
    88   6 C    3.958 --    89 C    1.657    87 C    1.171   107 H    0.973
    89   6 C    3.955 --    88 C    1.657    90 C    1.170   108 H    0.975
    90   6 C    3.916 --    56 C    1.362    91 N    1.229    89 C    1.170
    91   7 N    3.244 --    87 C    1.238    90 C    1.229    55 Cu   0.507
    92   1 H    1.001 --    56 C    0.971
    93   1 H    0.998 --    58 C    0.975
    94   1 H    1.004 --    59 C    0.973
    95   1 H    1.004 --    64 C    0.973
    96   1 H    1.013 --    65 C    0.972
    97   1 H    1.013 --    67 C    0.972
    98   1 H    1.004 --    68 C    0.973
    99   1 H    1.004 --    70 C    0.973
   100   1 H    1.005 --    71 C    0.970
   101   1 H    1.005 --    76 C    0.971
   102   1 H    1.004 --    77 C    0.973
   103   1 H    1.004 --    82 C    0.973
   104   1 H    1.013 --    83 C    0.972
   105   1 H    1.013 --    85 C    0.972
   106   1 H    1.004 --    86 C    0.973
   107   1 H    1.004 --    88 C    0.973
   108   1 H    0.998 --    89 C    0.975
   109   6 C    3.932 --   110 C    2.586    20 C    1.166
   110   6 C    3.934 --   109 C    2.586   114 C    1.168
   111   6 C    3.935 --   112 C    2.585   132 C    1.170
   112   6 C    3.932 --   111 C    2.585    74 C    1.169
   113  29 Cu   2.162 --   119 N    0.499   137 N    0.498   130 N    0.498
                           149 N    0.498
   114   6 C    3.930 --   148 C    1.267   115 C    1.267   110 C    1.168
   115   6 C    3.905 --   114 C    1.267   119 N    1.255   116 C    1.185
   116   6 C    3.956 --   117 C    1.642   115 C    1.185   150 H    0.972
   117   6 C    3.956 --   116 C    1.642   118 C    1.179   151 H    0.973
   118   6 C    3.908 --   120 C    1.322   119 N    1.225   117 C    1.179
   119   7 N    3.242 --   115 C    1.255   118 C    1.225   113 Cu   0.499
   120   6 C    3.930 --   127 C    1.323   118 C    1.322   121 C    1.028
   121   6 C    3.986 --   122 C    1.393   126 C    1.393   120 C    1.028
                           124 N    0.107
   122   6 C    3.987 --   123 C    1.442   121 C    1.393   152 H    0.973
                           125 C    0.108
   123   6 C    3.972 --   122 C    1.442   124 N    1.415   153 H    0.972
                           126 C    0.108
   124   7 N    3.030 --   125 C    1.415   123 C    1.415   121 C    0.107
   125   6 C    3.972 --   126 C    1.442   124 N    1.415   154 H    0.972
                           122 C    0.108
   126   6 C    3.987 --   125 C    1.442   121 C    1.393   155 H    0.973
                           123 C    0.108
   127   6 C    3.908 --   120 C    1.323   130 N    1.225   128 C    1.180
   128   6 C    3.956 --   129 C    1.642   127 C    1.180   156 H    0.973
   129   6 C    3.956 --   128 C    1.642   131 C    1.186   157 H    0.971
   130   7 N    3.241 --   131 C    1.256   127 C    1.225   113 Cu   0.498
   131   6 C    3.904 --   132 C    1.265   130 N    1.256   129 C    1.186
   132   6 C    3.930 --   131 C    1.265   133 C    1.265   111 C    1.170
   133   6 C    3.904 --   132 C    1.265   137 N    1.256   134 C    1.186
   134   6 C    3.956 --   135 C    1.642   133 C    1.186   158 H    0.970
   135   6 C    3.956 --   134 C    1.642   136 C    1.180   159 H    0.973
   136   6 C    3.908 --   138 C    1.323   137 N    1.225   135 C    1.180
   137   7 N    3.242 --   133 C    1.256   136 C    1.225   113 Cu   0.498
   138   6 C    3.930 --   145 C    1.323   136 C    1.323   139 C    1.027
   139   6 C    3.986 --   144 C    1.393   140 C    1.392   138 C    1.027
                           142 N    0.107
   140   6 C    3.987 --   141 C    1.442   139 C    1.392   160 H    0.973
                           143 C    0.109
   141   6 C    3.972 --   140 C    1.442   142 N    1.415   161 H    0.972
                           144 C    0.108
   142   7 N    3.030 --   143 C    1.416   141 C    1.415   139 C    0.107
   143   6 C    3.972 --   144 C    1.442   142 N    1.416   162 H    0.972
                           140 C    0.109
   144   6 C    3.987 --   143 C    1.442   139 C    1.393   163 H    0.973
                           141 C    0.108
   145   6 C    3.908 --   138 C    1.323   149 N    1.225   146 C    1.179
   146   6 C    3.956 --   147 C    1.643   145 C    1.179   164 H    0.973
   147   6 C    3.956 --   146 C    1.643   148 C    1.185   165 H    0.972
   148   6 C    3.905 --   114 C    1.267   149 N    1.256   147 C    1.185
   149   7 N    3.241 --   148 C    1.256   145 C    1.225   113 Cu   0.498
   150   1 H    1.004 --   116 C    0.972
   151   1 H    1.004 --   117 C    0.973
   152   1 H    1.004 --   122 C    0.973
   153   1 H    1.013 --   123 C    0.972
   154   1 H    1.013 --   125 C    0.972
   155   1 H    1.004 --   126 C    0.973
   156   1 H    1.004 --   128 C    0.973
   157   1 H    1.005 --   129 C    0.971
   158   1 H    1.005 --   134 C    0.970
   159   1 H    1.004 --   135 C    0.973
   160   1 H    1.004 --   140 C    0.973
   161   1 H    1.013 --   141 C    0.972
   162   1 H    1.013 --   143 C    0.972
   163   1 H    1.004 --   144 C    0.973
   164   1 H    1.004 --   146 C    0.973
   165   1 H    1.004 --   147 C    0.972
 ---------------------------------------------------------------------------

           -------------------------------------------------
          | TOTAL ENERGY             -296.476875169990 Eh   |
          | GRADIENT NORM               0.000363905306 Eh/α |
          | HOMO-LUMO GAP               0.000035618910 eV   |
           -------------------------------------------------

 * finished run on 2022/07/30 at 04:31:30.661
