   * xtb version 6.5.1 (b24c23e) compiled by 'conda@728c89f4b128' on 2022-07-12
          program call               : xtb Zn_H_C4_4.xyz --gfn 1 --opt -T 48

   ID    Z sym.   atoms
    1   30 Zn     1, 37, 85, 120
    2    6 C      2-6, 8-11, 13-18, 20-24, 38-42, 44-47, 49-54, 56-60, 73-84,
                  86-90, 92-95, 97-102, 104-108, 121-125, 127-130, 132-137,
                  139-143
    3    7 N      7, 12, 19, 25, 43, 48, 55, 61, 91, 96, 103, 109, 126, 131,
                  138, 144
    4    1 H      26-36, 62-72, 110-119, 145-154

          :  Hamiltonian                  GFN1-xTB          :
 * total energy  :  -267.0844191 Eh     change       -0.7170456E-08 Eh
 * total energy  :  -269.9167387 Eh     change       -0.2832320E+01 Eh
 * total energy  :  -270.3409475 Eh     change       -0.4242089E+00 Eh
 * total energy  :  -270.5767202 Eh     change       -0.2357726E+00 Eh
 * total energy  :  -270.7039402 Eh     change       -0.1272200E+00 Eh
 * total energy  :  -270.8035483 Eh     change       -0.9960804E-01 Eh
 * total energy  :  -270.8903664 Eh     change       -0.8681810E-01 Eh
 * total energy  :  -270.9398285 Eh     change       -0.4946216E-01 Eh
 * total energy  :  -270.9706502 Eh     change       -0.3082163E-01 Eh
 * total energy  :  -270.9953024 Eh     change       -0.2465226E-01 Eh
 * total energy  :  -271.0630355 Eh     change       -0.2277052E-04 Eh
 * total energy  :  -271.0630473 Eh     change       -0.1181229E-04 Eh
 * total energy  :  -271.0630585 Eh     change       -0.1119784E-04 Eh
 * total energy  :  -271.0630707 Eh     change       -0.1222447E-04 Eh
 * total energy  :  -271.0630814 Eh     change       -0.1074544E-04 Eh
 * total energy  :  -271.0630922 Eh     change       -0.1080021E-04 Eh
 * total energy  :  -271.0631018 Eh     change       -0.9544676E-05 Eh
 * total energy  :  -271.0631089 Eh     change       -0.7146391E-05 Eh
 * total energy  :  -271.0631135 Eh     change       -0.4569064E-05 Eh
   *** GEOMETRY OPTIMIZATION CONVERGED AFTER 37 ITERATIONS ***

 final structure:
================
154
 xtb: 6.5.1 (b24c23e)
Zn          24.18196604432175       -0.02436691573395       -0.02290139151537
C           20.75499786549575       -0.05135780693136       -0.05510280068880
C           21.39423383919734       -0.92395840085613       -0.92917053504151
C           20.73698446873710       -1.82693350269447       -1.83619696717268
C           21.70863132612712       -2.49658374024319       -2.50550559774415
C           22.97056766324200       -2.01064060145416       -2.01518808742386
N           22.74479367233000       -1.06053692957414       -1.06320005649915
C           24.22221510095451       -2.44074601322185       -2.44243492631443
C           25.45857159688846       -1.99442915077989       -1.99174898203832
C           26.73198571686683       -2.46595872726243       -2.45978306000216
C           27.68474363523731       -1.78312820745133       -1.77456597474418
N           25.66045464831167       -1.03747919807138       -1.03404206849117
C           27.00191182307373       -0.88888135382320       -0.88243460153359
C           27.63381864287817        0.00316807252200        0.00881732722831
C           26.97146371223383        0.88419121268233        0.88835357915695
C           27.62322521969241        1.78813449037119        1.79379741380917
C           26.64709300659504        2.45529582979276        2.46141004807194
C           25.39021171758393        1.96439242564814        1.96914914708348
N           25.62506890876798        1.01142067316225        1.01504569154581
C           24.13880397150330        2.39166671682486        2.39643493187899
C           22.90208273403510        1.94256819492471        1.94585363459632
C           21.62363338738978        2.40885777039909        2.41193087779550
C           20.67537921124685        1.72395203603070        1.72470218707737
C           21.36367417498777        0.83119497819133        0.83072772880730
N           22.70914104494694        0.98886564796478        0.99022634487476
H           19.66948944187460       -0.05997052969946       -0.06540916826418
H           19.66726715423983       -1.92533141374639       -1.93734117426352
H           21.59549011003588       -3.25408623902270       -3.26551932133208
H           24.23547599990630       -3.20786111333928       -3.21069110445913
H           26.86792253382970       -3.22302930289526       -3.21624580287635
H           28.75663003528185       -1.86964019483977       -1.85839788119289
H           28.69189486567148        1.89127364759237        1.89770423659708
H           26.75695536568911        3.21350261216915        3.22097585445175
H           24.12596476554878        3.15872895270747        3.16475693237135
H           21.48406452331482        3.16474770065288        3.16915974125507
H           19.60254049928211        1.80575933410156        1.80565038543606
Zn          64.71968044252505        0.00415041886187       -0.01237145056199
C           68.14634349705196        0.05186678042183       -0.00854589799997
C           67.50519771473162        1.28467470341764       -0.06357048870445
C           68.16028231587194        2.56445590917648       -0.11960207526255
C           67.18707084025050        3.50882988396257       -0.15744915959056
C           65.92620996702077        2.81713542895312       -0.12450277835448
N           66.15429829673711        1.47368422323080       -0.06955399533980
C           64.67353064795407        3.42087256944677       -0.14137684145129
C           63.43833635326830        2.78494219182965       -0.10871986320036
C           62.16364233054064        3.44712813039565       -0.12468510056565
C           61.21247741777086        2.47927642761703       -0.08572507696153
N           63.23881933036647        1.43192228438899       -0.05950779006959
C           61.89713254231763        1.21743073351902       -0.04621975333578
C           61.26848202343242       -0.04357822300717       -0.01480806976986
C           61.93177366621563       -1.28650833628423        0.01765126653945
C           61.28227737780922       -2.56688889844910        0.05422146493612
C           62.25985122969828       -3.50809896512343        0.09332177775461
C           63.51579266812264       -2.81087844850851        0.08012516375443
N           63.27893310789053       -1.46389936605923        0.03226369253399
C           64.76812555371177       -3.41243490396967        0.11456204102688
C           66.00366247987205       -2.77419883360520        0.10142542582177
C           67.28321680309247       -3.43046795514145        0.13777920076608
C           68.22985890593392       -2.45930917720461        0.10286680139135
C           67.53954603887399       -1.19830890035211        0.04498958266659
N           66.19444062766530       -1.42487986129143        0.04725533063119
H           69.23183321018578        0.06686331301396       -0.00722504067725
H           69.22976384870432        2.70714370254783       -0.12819320633340
H           67.29848763496138        4.58108495549392       -0.20325771746064
H           64.65823816644212        4.50568743904135       -0.18395040512285
H           62.02618663722261        4.51655327928165       -0.16179834843587
H           60.14040846821261        2.59802752115434       -0.08434679259008
H           60.21387999585239       -2.71515591538752        0.05177147229332
H           62.15186706434135       -4.58095049755187        0.12853144539011
H           64.78275099210821       -4.49731117564318        0.15565276475090
H           67.42449283750648       -4.49918330003325        0.18407540171286
H           69.30286066358376       -2.57226295411585        0.11469731859973
C           30.26107850887958        0.01643388427690        0.02096223602938
C           29.03887965974203        0.01340352853614        0.01920728840994
C           31.61021404397587        0.01803505987856        0.02146817412767
C           32.83259662022677        0.01380386140633        0.01738018653653
C           43.77455924400928       -0.01739195557645       -0.02480905431074
C           42.55211124727833       -0.01381978809633       -0.01910778858445
C           45.12323920470078       -0.02472104922756       -0.03149241812913
C           46.34563850301634       -0.03153437448438       -0.03527268425786
C           57.28881214025184       -0.07654169242620       -0.02107783133701
C           56.06710569009388       -0.07273894317662       -0.02251776136670
C           58.63975771702705       -0.07039294332623       -0.02144996355673
C           59.86129021632681       -0.06118663363170       -0.01644891445673
Zn          37.69283807192856        0.00051043821378        0.00027892373664
C           34.23717291801936        0.01087957102515        0.01233551180313
C           34.89083761969846        0.94236961927710        0.84548818174334
C           34.23034999712288        1.89172993459064        1.69556511781622
C           35.20020412162498        2.60146050011175        2.32808485213575
C           36.46080300745665        2.09071454323693        1.86910734002919
N           36.23608165388549        1.08386231263299        0.96967385391455
C           37.70841998339446        2.54862829379109        2.27528728429242
C           38.95073142667460        2.08565632785522        1.85928162733808
C           40.21766412948480        2.59056956614585        2.30704640803146
C           41.17859483130750        1.87527597338449        1.66714345994885
N           39.16296646076446        1.07668770183807        0.95888876240885
C           40.50609593887988        0.92815032342444        0.82393113447546
C           41.14798169030134       -0.00898926446953       -0.01231730064981
C           40.49381496911538       -0.94271360375839       -0.84294181202454
C           41.15475808112847       -1.89387548564957       -1.69068001312087
C           40.18518383530766       -2.60412144688065       -2.32308848140415
C           38.92444768173147       -2.09183457937459       -1.86635852109272
N           39.14889501116378       -1.08378096509733       -0.96795090064110
C           37.67696897040136       -2.54842015613161       -2.27392740082219
C           36.43474700243225       -2.08325633400378       -1.85968211245864
C           35.16783409023888       -2.58654183494491       -2.30927184450914
C           34.20695854389714       -1.87047497346180       -1.67017059504307
C           34.87941695227833       -0.92459480015544       -0.82554255188658
N           36.22265948540137       -1.07443422610784       -0.95931769404548
H           33.16069889327523        1.99421924791041        1.78897339063644
H           35.08349645894834        3.40093087327889        3.04297140546242
H           37.71277628790050        3.35861793445373        2.99849910327066
H           40.34479158852814        3.39026918639900        3.01990796842143
H           42.24947400573540        1.97248578457821        1.75184267203353
H           42.22439217200262       -1.99738285463117       -1.78312873442238
H           40.30253881316441       -3.40475955837776       -3.03654537666322
H           37.67254455606894       -3.35886326205540       -2.99659271773101
H           35.04095992314621       -3.38580083035000       -3.02266387248744
H           33.13608731791648       -1.96649721751802       -1.75613167671831
Zn          51.20480002610939       -0.05154129560207       -0.03150252489121
C           47.74988449577667       -0.03744511419843       -0.03689821002860
C           48.40095115264000        0.90063460342163        0.79123710423333
C           47.73708782445646        1.85704659742299        1.63081540980173
C           48.70440687308852        2.57491460456197        2.25789564867503
C           49.96684702347993        2.06215935626411        1.80602126789407
N           49.74549384051982        1.04510082768387        0.91710594905973
C           51.21281263265082        2.52918563523196        2.20605821754046
C           52.45650776754999        2.06385227552995        1.79601628481908
C           53.72189556953626        2.57967069588783        2.23616951782632
C           54.68512221429998        1.85537850362045        1.61039392857357
N           52.67171404030896        1.04046058523332        0.91353760229946
C           54.01594381105129        0.89096919676464        0.78382430548299
C           54.66035262197157       -0.06777696772190       -0.02390831966565
C           54.01002354364153       -1.01994438969675       -0.83464080574877
C           54.67343863991302       -1.98890912434427       -1.66029500376906
C           53.70601919950365       -2.70281442785425       -2.29152815449562
C           52.44366554790306       -2.17572782360525       -1.85581124754993
N           52.66490774402053       -1.15612676433279       -0.97046440660499
C           51.19776113415330       -2.62914685687311       -2.27262017779764
C           49.95399624914165       -2.15263663994683       -1.87688301979580
C           48.68865699779089       -2.65390390031120       -2.33351141659529
C           47.72543192631154       -1.92954413105327       -1.70749128078615
C           48.39483980336958       -0.98001816228640       -0.86438422218843
N           49.73840686295593       -1.13523917271031       -0.98683363281607
H           46.66711845326729        1.95847251770868        1.72169704243320
H           48.58466243578645        3.38120863309877        2.96455609550925
H           51.21480898490569        3.34900922098765        2.91805171498209
H           53.84606514659598        3.39195513020145        2.93518601240730
H           55.75563990861821        1.95602018571388        1.69528280598546
H           55.74332376485854       -2.09966507857153       -1.74049927028309
H           53.82526502713660       -3.51486876619777       -2.99166331860041
H           51.19647148769338       -3.44730686954454       -2.98654749348661
H           48.56408622049096       -3.45767324581032       -3.04225165017006
H           46.65489661749181       -2.02197467013431       -1.80141647235256

          :  Hamiltonian                  GFN1-xTB          :
         :: total energy            -271.063113497282 Eh    ::
         :: gradient norm              0.000753633101 Eh/a0 ::
         :: HOMO-LUMO gap              0.892924568181 eV    ::
         :: SCC energy              -275.552807718203 Eh    ::
         :: repulsion energy           4.623942336985 Eh    ::

    * Orbital Energies and Occupations

         #    Occupation            Energy/Eh            Energy/eV
      -------------------------------------------------------------
         1        2.0000           -0.7590157             -20.6539
       ...           ...                  ...                  ...
       237        2.0000           -0.4186821             -11.3929
       238        2.0000           -0.4181308             -11.3779
       239        2.0000           -0.4176904             -11.3659
       240        2.0000           -0.4171786             -11.3520
       241        2.0000           -0.4122025             -11.2166
       242        2.0000           -0.3924379             -10.6788
       243        2.0000           -0.3924030             -10.6778
       244        2.0000           -0.3915091             -10.6535
       245        2.0000           -0.3914061             -10.6507
       246        2.0000           -0.3911981             -10.6450
       247        2.0000           -0.3851170             -10.4796
       248        2.0000           -0.3791534             -10.3173
       249        2.0000           -0.3726832             -10.1412 (HOMO)
       250                         -0.3398689              -9.2483 (LUMO)
       251                         -0.3322602              -9.0413
       252                         -0.3255759              -8.8594
       253                         -0.3246345              -8.8338
       254                         -0.3245994              -8.8328
       255                         -0.3239345              -8.8147
       256                         -0.3238327              -8.8119
       257                         -0.3198989              -8.7049
       258                         -0.2992182              -8.1421
       259                         -0.2919912              -7.9455
       260                         -0.2879874              -7.8365
       ...                                ...                  ...
       532                          1.5217662              41.4094
      -------------------------------------------------------------
                  HL-Gap            0.0328144 Eh            0.8929 eV

Wiberg/Mayer (AO) data.
largest (>0.10) Wiberg bond orders for each atom

     #   Z sym  total        # sym  WBO       # sym  WBO       # sym  WBO
 ---------------------------------------------------------------------------
     1  30 Zn   1.997 --     7 N    0.461    25 N    0.460    19 N    0.456
                            12 N    0.456
     2   6 C    3.932 --    24 C    1.358     3 C    1.358    26 H    0.972
     3   6 C    3.922 --     2 C    1.358     7 N    1.238     4 C    1.166
     4   6 C    3.960 --     5 C    1.665     3 C    1.166    27 H    0.976
     5   6 C    3.963 --     4 C    1.665     6 C    1.167    28 H    0.976
     6   6 C    3.919 --     8 C    1.355     7 N    1.238     5 C    1.167
     7   7 N    3.297 --     6 C    1.238     3 C    1.238     1 Zn   0.461
     8   6 C    3.938 --     9 C    1.365     6 C    1.355    29 H    0.971
     9   6 C    3.914 --     8 C    1.365    12 N    1.220    10 C    1.173
    10   6 C    3.959 --    11 C    1.653     9 C    1.173    30 H    0.976
    11   6 C    3.962 --    10 C    1.653    13 C    1.181    31 H    0.974
    12   7 N    3.300 --    13 C    1.269     9 C    1.220     1 Zn   0.456
    13   6 C    3.903 --    12 N    1.269    14 C    1.254    11 C    1.181
    14   6 C    3.942 --    15 C    1.255    13 C    1.254    74 C    1.191
    15   6 C    3.903 --    19 N    1.269    14 C    1.255    16 C    1.181
    16   6 C    3.962 --    17 C    1.652    15 C    1.181    32 H    0.974
    17   6 C    3.959 --    16 C    1.652    18 C    1.173    33 H    0.976
    18   6 C    3.914 --    20 C    1.365    19 N    1.220    17 C    1.173
    19   7 N    3.300 --    15 C    1.269    18 C    1.220     1 Zn   0.456
    20   6 C    3.938 --    18 C    1.365    21 C    1.355    34 H    0.971
    21   6 C    3.919 --    20 C    1.355    25 N    1.238    22 C    1.167
    22   6 C    3.963 --    23 C    1.665    21 C    1.167    35 H    0.976
    23   6 C    3.960 --    22 C    1.665    24 C    1.166    36 H    0.976
    24   6 C    3.922 --     2 C    1.358    25 N    1.238    23 C    1.166
    25   7 N    3.297 --    24 C    1.238    21 C    1.238     1 Zn   0.460
    26   1 H    1.002 --     2 C    0.972
    27   1 H    0.998 --     4 C    0.976
    28   1 H    0.998 --     5 C    0.976
    29   1 H    1.002 --     8 C    0.971
    30   1 H    0.998 --    10 C    0.976
    31   1 H    1.002 --    11 C    0.974
    32   1 H    1.002 --    16 C    0.974
    33   1 H    0.998 --    17 C    0.976
    34   1 H    1.002 --    20 C    0.971
    35   1 H    0.998 --    22 C    0.976
    36   1 H    0.998 --    23 C    0.976
    37  30 Zn   1.998 --    61 N    0.461    43 N    0.461    55 N    0.456
                            48 N    0.456
    38   6 C    3.934 --    39 C    1.358    60 C    1.358    62 H    0.972
    39   6 C    3.922 --    38 C    1.358    43 N    1.238    40 C    1.166
    40   6 C    3.960 --    41 C    1.665    39 C    1.166    63 H    0.976
    41   6 C    3.963 --    40 C    1.665    42 C    1.167    64 H    0.976
    42   6 C    3.920 --    44 C    1.355    43 N    1.238    41 C    1.167
    43   7 N    3.298 --    42 C    1.238    39 C    1.238    37 Zn   0.461
    44   6 C    3.939 --    45 C    1.364    42 C    1.355    65 H    0.972
    45   6 C    3.914 --    44 C    1.364    48 N    1.221    46 C    1.172
    46   6 C    3.960 --    47 C    1.654    45 C    1.172    66 H    0.976
    47   6 C    3.962 --    46 C    1.654    49 C    1.180    67 H    0.974
    48   7 N    3.301 --    49 C    1.266    45 C    1.221    37 Zn   0.456
    49   6 C    3.904 --    48 N    1.266    50 C    1.258    47 C    1.180
    50   6 C    3.944 --    51 C    1.259    49 C    1.258    84 C    1.182
    51   6 C    3.905 --    55 N    1.266    50 C    1.259    52 C    1.180
    52   6 C    3.962 --    53 C    1.654    51 C    1.180    68 H    0.974
    53   6 C    3.960 --    52 C    1.654    54 C    1.172    69 H    0.976
    54   6 C    3.914 --    56 C    1.364    55 N    1.221    53 C    1.172
    55   7 N    3.301 --    51 C    1.266    54 C    1.221    37 Zn   0.456
    56   6 C    3.939 --    54 C    1.364    57 C    1.355    70 H    0.972
    57   6 C    3.920 --    56 C    1.355    61 N    1.238    58 C    1.167
    58   6 C    3.963 --    59 C    1.665    57 C    1.167    71 H    0.976
    59   6 C    3.960 --    58 C    1.665    60 C    1.166    72 H    0.976
    60   6 C    3.922 --    38 C    1.358    61 N    1.238    59 C    1.166
    61   7 N    3.298 --    57 C    1.238    60 C    1.238    37 Zn   0.461
    62   1 H    1.002 --    38 C    0.972
    63   1 H    0.998 --    40 C    0.976
    64   1 H    0.998 --    41 C    0.976
    65   1 H    1.002 --    44 C    0.972
    66   1 H    0.998 --    46 C    0.976
    67   1 H    1.002 --    47 C    0.974
    68   1 H    1.002 --    52 C    0.974
    69   1 H    0.998 --    53 C    0.976
    70   1 H    1.002 --    56 C    0.972
    71   1 H    0.998 --    58 C    0.976
    72   1 H    0.998 --    59 C    0.976
    73   6 C    3.935 --    74 C    2.473    75 C    1.310
    74   6 C    3.924 --    73 C    2.473    14 C    1.191    76 C    0.199
    75   6 C    3.932 --    76 C    2.472    73 C    1.310
    76   6 C    3.925 --    75 C    2.472    86 C    1.193    74 C    0.199
    77   6 C    3.932 --    78 C    2.469    79 C    1.312
    78   6 C    3.924 --    77 C    2.469    98 C    1.195    80 C    0.199
    79   6 C    3.933 --    80 C    2.470    77 C    1.312
    80   6 C    3.924 --    79 C    2.470   121 C    1.194    78 C    0.199
    81   6 C    3.931 --    82 C    2.481    83 C    1.302
    82   6 C    3.922 --    81 C    2.481   133 C    1.185    84 C    0.198
    83   6 C    3.935 --    84 C    2.482    81 C    1.302
    84   6 C    3.921 --    83 C    2.482    50 C    1.182    82 C    0.198
    85  30 Zn   1.994 --   103 N    0.457    91 N    0.457    96 N    0.456
                           109 N    0.456
    86   6 C    3.930 --    87 C    1.252   108 C    1.252    76 C    1.193
    87   6 C    3.903 --    91 N    1.269    86 C    1.252    88 C    1.183
    88   6 C    3.960 --    89 C    1.649    87 C    1.183   110 H    0.974
    89   6 C    3.959 --    88 C    1.649    90 C    1.176   111 H    0.976
    90   6 C    3.912 --    92 C    1.360    91 N    1.219    89 C    1.176
    91   7 N    3.294 --    87 C    1.269    90 C    1.219    85 Zn   0.457
    92   6 C    3.933 --    93 C    1.361    90 C    1.360   112 H    0.971
    93   6 C    3.912 --    92 C    1.361    96 N    1.219    94 C    1.176
    94   6 C    3.959 --    95 C    1.649    93 C    1.176   113 H    0.976
    95   6 C    3.960 --    94 C    1.649    97 C    1.183   114 H    0.974
    96   7 N    3.294 --    97 C    1.270    93 C    1.219    85 Zn   0.456
    97   6 C    3.903 --    96 N    1.270    98 C    1.251    95 C    1.183
    98   6 C    3.930 --    97 C    1.251    99 C    1.251    78 C    1.195
    99   6 C    3.903 --   103 N    1.269    98 C    1.251   100 C    1.183
   100   6 C    3.960 --   101 C    1.649    99 C    1.183   115 H    0.974
   101   6 C    3.959 --   100 C    1.649   102 C    1.176   116 H    0.976
   102   6 C    3.912 --   104 C    1.361   103 N    1.218   101 C    1.176
   103   7 N    3.294 --    99 C    1.269   102 C    1.218    85 Zn   0.457
   104   6 C    3.933 --   102 C    1.361   105 C    1.360   117 H    0.971
   105   6 C    3.912 --   104 C    1.360   109 N    1.219   106 C    1.176
   106   6 C    3.959 --   107 C    1.649   105 C    1.176   118 H    0.976
   107   6 C    3.960 --   106 C    1.649   108 C    1.183   119 H    0.974
   108   6 C    3.903 --   109 N    1.269    86 C    1.252   107 C    1.183
   109   7 N    3.294 --   108 C    1.269   105 C    1.219    85 Zn   0.456
   110   1 H    1.002 --    88 C    0.974
   111   1 H    0.998 --    89 C    0.976
   112   1 H    1.002 --    92 C    0.971
   113   1 H    0.998 --    94 C    0.976
   114   1 H    1.002 --    95 C    0.974
   115   1 H    1.002 --   100 C    0.974
   116   1 H    0.998 --   101 C    0.976
   117   1 H    1.002 --   104 C    0.971
   118   1 H    0.998 --   106 C    0.976
   119   1 H    1.002 --   107 C    0.974
   120  30 Zn   1.994 --   126 N    0.457   138 N    0.457   144 N    0.457
                           131 N    0.456
   121   6 C    3.931 --   143 C    1.252   122 C    1.251    80 C    1.194
   122   6 C    3.903 --   126 N    1.269   121 C    1.251   123 C    1.183
   123   6 C    3.960 --   124 C    1.650   122 C    1.183   145 H    0.974
   124   6 C    3.959 --   123 C    1.650   125 C    1.176   146 H    0.976
   125   6 C    3.912 --   127 C    1.361   126 N    1.219   124 C    1.176
   126   7 N    3.295 --   122 C    1.269   125 C    1.219   120 Zn   0.457
   127   6 C    3.934 --   125 C    1.361   128 C    1.360   147 H    0.971
   128   6 C    3.912 --   127 C    1.360   131 N    1.221   129 C    1.175
   129   6 C    3.960 --   130 C    1.650   128 C    1.175   148 H    0.976
   130   6 C    3.960 --   129 C    1.650   132 C    1.182   149 H    0.974
   131   7 N    3.294 --   132 C    1.267   128 C    1.221   120 Zn   0.456
   132   6 C    3.905 --   131 N    1.267   133 C    1.256   130 C    1.182
   133   6 C    3.931 --   134 C    1.256   132 C    1.256    82 C    1.185
   134   6 C    3.905 --   138 N    1.266   133 C    1.256   135 C    1.182
   135   6 C    3.960 --   136 C    1.650   134 C    1.182   150 H    0.974
   136   6 C    3.960 --   135 C    1.650   137 C    1.175   151 H    0.976
   137   6 C    3.912 --   139 C    1.359   138 N    1.221   136 C    1.175
   138   7 N    3.294 --   134 C    1.266   137 C    1.221   120 Zn   0.457
   139   6 C    3.934 --   140 C    1.361   137 C    1.359   152 H    0.971
   140   6 C    3.912 --   139 C    1.361   144 N    1.219   141 C    1.176
   141   6 C    3.959 --   142 C    1.650   140 C    1.176   153 H    0.976
   142   6 C    3.960 --   141 C    1.650   143 C    1.183   154 H    0.974
   143   6 C    3.903 --   144 N    1.270   121 C    1.252   142 C    1.183
   144   7 N    3.295 --   143 C    1.270   140 C    1.219   120 Zn   0.457
   145   1 H    1.002 --   123 C    0.974
   146   1 H    0.998 --   124 C    0.976
   147   1 H    1.002 --   127 C    0.971
   148   1 H    0.998 --   129 C    0.976
   149   1 H    1.002 --   130 C    0.974
   150   1 H    1.002 --   135 C    0.974
   151   1 H    0.998 --   136 C    0.976
   152   1 H    1.002 --   139 C    0.971
   153   1 H    0.998 --   141 C    0.976
   154   1 H    1.002 --   142 C    0.974
 ---------------------------------------------------------------------------

           -------------------------------------------------
          | TOTAL ENERGY             -271.063113497282 Eh   |
          | GRADIENT NORM               0.000753633101 Eh/α |
          | HOMO-LUMO GAP               0.892924568181 eV   |
           -------------------------------------------------

 * finished run on 2022/07/30 at 06:59:32.169
