   * xtb version 6.5.1 (b24c23e) compiled by 'conda@728c89f4b128' on 2022-07-12
          program call               : xtb Ni_Ph3OH_C8_3.xyz --gfn 1 --opt -T 48

   ID    Z sym.   atoms
    1   28 Ni     1, 63, 141
    2    6 C      2-6, 8-11, 13, 15, 17-20, 22-27, 29-32, 34, 36, 38-42,
                  64-68, 70-73, 75, 77, 79-82, 84-89, 91-94, 96, 98, 100-104,
                  125-140, 142-146, 148-151, 153, 155, 157-160, 162-167,
                  169-172, 174, 176, 178-182
    3    7 N      7, 21, 28, 43, 69, 83, 90, 105, 147, 161, 168, 183
    4    8 O      12, 14, 16, 33, 35, 37, 74, 76, 78, 95, 97, 99, 152, 154,
                  156, 173, 175, 177
    5    1 H      44-62, 106-124, 184-201

          :  Hamiltonian                  GFN1-xTB          :
 * total energy  :  -400.8291375 Eh     change       -0.4634728E-08 Eh
 * total energy  :  -401.3134676 Eh     change       -0.4843301E+00 Eh
 * total energy  :  -401.4923508 Eh     change       -0.1788832E+00 Eh
 * total energy  :  -401.5936730 Eh     change       -0.1013222E+00 Eh
 * total energy  :  -401.6761928 Eh     change       -0.8251986E-01 Eh
 * total energy  :  -401.7526949 Eh     change       -0.7650204E-01 Eh
 * total energy  :  -401.8111424 Eh     change       -0.5844756E-01 Eh
 * total energy  :  -401.8458873 Eh     change       -0.3474492E-01 Eh
 * total energy  :  -401.8718471 Eh     change       -0.2595979E-01 Eh
 * total energy  :  -401.8895591 Eh     change       -0.1771198E-01 Eh
 * total energy  :  -401.9711078 Eh     change       -0.1997452E-04 Eh
 * total energy  :  -401.9711281 Eh     change       -0.2039276E-04 Eh
 * total energy  :  -401.9711491 Eh     change       -0.2095052E-04 Eh
 * total energy  :  -401.9711719 Eh     change       -0.2279494E-04 Eh
 * total energy  :  -401.9711834 Eh     change       -0.1147551E-04 Eh
 * total energy  :  -401.9712073 Eh     change       -0.2392935E-04 Eh
 * total energy  :  -401.9712193 Eh     change       -0.1197976E-04 Eh
 * total energy  :  -401.9712315 Eh     change       -0.1218228E-04 Eh
 * total energy  :  -401.9712347 Eh     change       -0.3237995E-05 Eh
   *** GEOMETRY OPTIMIZATION CONVERGED AFTER 68 ITERATIONS ***

 final structure:
================
201
 xtb: 6.5.1 (b24c23e)
Ni          28.16564905708546        0.00183931856581       -0.01445072184228
C           24.76926276664033        0.05090900501331       -0.10479209080795
C           25.43221973541590        1.25954026191233       -0.08042728921506
C           24.76026950337617        2.52291393384716       -0.07138446773333
C           25.72240934655487        3.47312652734304       -0.02601144147270
C           26.98221724422934        2.78863294779769       -0.01604720237245
N           26.79374163327427        1.42915375477776       -0.04332613957207
C           28.20858756332831        3.43589777270929        0.05173745188217
C           28.22863503179368        4.92070760162972        0.07744245235288
C           27.77920021661257        5.64410710709989       -1.02671098505841
C           27.80522339848626        7.03392491466577       -1.00585939879419
O           27.37910162908830        7.74771466298929       -2.07610689009876
C           28.27385930930771        7.70353221038066        0.12562275443951
O           28.28483001370708        9.07368490367472        0.11837106377623
C           28.71745869115204        6.97997428095261        1.22959133234673
O           29.15845377776278        7.70681717646957        2.30394353616681
C           28.70072258139891        5.59063391681815        1.20876641389761
C           29.41702214255854        2.75498947417214        0.09541653757670
C           30.69047597017827        3.40777850993844        0.13183895897640
C           31.63015586340450        2.43268887877701        0.14413000369331
N           29.57706294081802        1.38703947498776        0.07352589001653
C           30.92969129396094        1.18888384814844        0.10530680115224
C           31.58156724491794       -0.04709837904973        0.07920996170899
C           30.89641084395374       -1.26346477788742        0.02075966701821
C           31.56315694557363       -2.52541152292629       -0.02975541440561
C           30.59728441104641       -3.47283630872196       -0.08265784480296
C           29.34154373089305       -2.78585419977044       -0.05365866571816
N           29.53837100247146       -1.42326570327642       -0.00264446858565
C           28.11413964391729       -3.43192526602953       -0.09475771886766
C           28.09273578707147       -4.91594803153910       -0.14112967207355
C           28.58825493561151       -5.65907795474609        0.92982018729450
C           28.56671300445875       -7.04832538576036        0.88239393985202
O           29.03942977753541       -7.78108394109786        1.91970067008821
C           28.05524594641457       -7.69788105670948       -0.24227505107086
O           28.05151451701095       -9.06796722540846       -0.26263041479501
C           27.56311337554424       -6.95480225430042       -1.31211621288276
O           27.08071835283599       -7.66218532056625       -2.38185145882695
C           27.57582417767505       -5.56617368339980       -1.26453545646429
C           26.90457302781412       -2.74955153198737       -0.09986309545786
C           25.62595516359030       -3.39803305832686       -0.10096780477568
C           24.69018751301196       -2.42033426059357       -0.10697619929090
C           25.39735032339465       -1.17665428139090       -0.09983466325148
N           26.75378558471629       -1.38536822905643       -0.08593279040707
H           23.68574333960538        0.06663504681510       -0.12552456411418
H           23.68898563978981        2.64496580457052       -0.09052874010883
H           25.60379143788371        4.54386237216695        0.00711515061905
H           27.42513759945478        5.13402393903116       -1.91319974626685
H           27.47753452852158        8.69233904585481       -1.87165062576958
H           28.63749069271384        9.37448487747950        0.97097848498464
H           29.44513399305002        7.12432481745637        3.01949634584688
H           29.03768359161359        5.03317851703574        2.07479259630739
H           30.83708069699979        4.47544498252850        0.13524886231658
H           32.70338477071239        2.53099825593327        0.16859155015781
H           32.63361499887881       -2.65258163526793       -0.03009915439407
H           30.71429256767884       -4.54230297498461       -0.14361055894185
H           28.97665018856597       -5.16522106561210        1.81109759861344
H           28.93937996643627       -8.72198333273824        1.69953567253498
H           27.66696947509791       -9.35347853535969       -1.10665903803837
H           26.76412785207147       -7.06657833127323       -3.07361007195656
H           27.20240776854087       -4.99350910078225       -2.10535866651022
H           25.47679780592771       -4.46548711567344       -0.08804618002665
H           23.61568984483589       -2.51230685455046       -0.10956106764557
Ni          65.30483631243402       -0.04319571792592        0.01386835588125
C           68.70046541838281       -0.08009498137309       -0.09982519176071
C           68.03747625385456       -1.28393094068351       -0.20968497446116
C           68.70917904651493       -2.53958121886766       -0.35017378274692
C           67.74693592030350       -3.48862958132090       -0.41424813484400
C           66.48731854120405       -2.81025550613634       -0.31988060266073
N           66.67604396188506       -1.45699614562316       -0.18788008463271
C           65.26104825641920       -3.46144274418398       -0.32331819769241
C           65.24187047280007       -4.93850700751726       -0.47681294883692
C           65.68843835238351       -5.52190160341454       -1.66207717623984
C           65.66567367076480       -6.90403995792227       -1.80960860076240
O           66.08970663850977       -7.48184768492113       -2.95976109957125
C           65.20289936578048       -7.70692453480368       -0.76583552487539
O           65.19536980846146       -9.06623419224121       -0.93863244771681
C           64.76189012248983       -7.12342967456821        0.41909557870850
O           64.32684680497594       -7.97624543713516        1.39925343601720
C           64.77560891556561       -5.74173578574064        0.56672736599122
C           64.05331606790514       -2.79108878480185       -0.18978735736564
C           62.77979737339324       -3.44412629571566       -0.21921257738060
C           61.84099324313773       -2.47802770163552       -0.08049887504433
N           63.89400754714281       -1.43027702475594       -0.04687584270701
C           62.54188566583167       -1.23808155601833        0.02197798084974
C           61.89045188792884       -0.00813219796853        0.14834853412157
C           62.57513736896701        1.20768441319951        0.22289082738497
C           61.90796246983342        2.46647698655810        0.32310218726874
C           62.87315652713547        3.41517486709599        0.36309709105866
C           64.12909257188406        2.73090963222178        0.29892495862423
N           63.93269419893353        1.37079749852461        0.20061708041790
C           65.35607095287824        3.37885444606515        0.31346522881137
C           65.37804193246937        4.85928695762396        0.42573522162117
C           64.89353015657464        5.48493718168620        1.57399360977325
C           64.91595148056430        6.87146711738999        1.67343631347835
O           64.45374936543260        7.49034306027308        2.78681713521526
C           65.41749238701370        7.63636892901662        0.61900579477278
O           65.42254335966541        9.00082691174432        0.74374919242942
C           65.89892076338441        7.01061033467385       -0.52800321822394
O           66.37235052112253        7.82696547150776       -1.52134639013379
C           65.88509625786051        5.62477724453335       -0.62739895995889
C           66.56534039588028        2.70189613170137        0.22208513604699
C           67.84395934798141        3.34760453578631        0.28211066831644
C           68.77965969652764        2.37677504233195        0.16575536224202
C           68.07249442859518        1.13918838258625        0.04296956402249
N           66.71615760827854        1.34434265261291        0.08742241609130
H           69.78388206182362       -0.09299835458707       -0.12686563799437
H           69.78036564070112       -2.65842694487546       -0.38687135765747
H           67.86557554996104       -4.55580304392721       -0.50750650826696
H           66.03815794809921       -4.90729319161220       -2.48144296559154
H           65.99425546470292       -8.44453473069563       -2.87088432713835
H           64.84665479745412       -9.46884780119935       -0.12742177979259
H           64.04108225913448       -7.48531650639146        2.18079756482367
H           64.44126653814325       -5.29435802605800        1.49537117602524
H           62.63246979083755       -4.50461543586457       -0.34201424848039
H           60.76798248188965       -2.57895431251052       -0.05697874901744
H           60.83764184366382        2.59161724484501        0.35095503434709
H           62.75532226806892        4.48458218414135        0.42326850017421
H           64.51324909183687        4.90080299234686        2.40198789185883
H           64.55156082260807        8.44933904766049        2.66613286219665
H           65.79833602124336        9.37423047675796       -0.06935273146523
H           66.68111586147334        7.30766473491718       -2.27534426779972
H           66.24999986745362        5.14413157868642       -1.52750674553626
H           67.99322507042071        4.40758034899433        0.40870593058508
H           69.85412123802971        2.46919075791311        0.16635952907475
C           32.98605780945740       -0.06471825199462        0.09885190685152
C           34.21025222022278       -0.07197516381038        0.10961871134065
C           35.55316551172702       -0.08006232904205        0.10902217778187
C           36.78365495851770       -0.07629073884415        0.10489075702199
C           38.12159029721476       -0.07388636894655        0.08719463868169
C           39.35186178268152       -0.06388651678985        0.06202727787243
C           40.69426347184420       -0.05189671216120        0.03759472801253
C           41.91834570383068       -0.03986572761938        0.00915425027812
C           51.55451691173498        0.00316744691133        0.11051762741742
C           52.77841096260054        0.01172511428199        0.14615658393326
C           54.12068843393736        0.01845429093760        0.17622799838607
C           55.35101461112983        0.02507485059752        0.19931175003244
C           56.68895259713519        0.02518809024685        0.21191157615314
C           57.91942698933102        0.02478073135187        0.21533227861764
C           59.26224024841386        0.01791832461168        0.20362611734373
C           60.48629146568710        0.00673961085655        0.18456787098165
Ni          46.73729958887645       -0.01124873335879       -0.02286592186260
C           43.32168004169455       -0.02905022638307       -0.01410798468362
C           43.98996002748019        1.17613528330222        0.22409041512388
C           43.31486736575929        2.40124649806444        0.50898059781292
C           44.26444844912788        3.36749015114782        0.55032120235779
C           45.51667364298974        2.72794360272242        0.28625226883889
N           45.33974742489052        1.37225035733966        0.12465264775206
C           46.72257968127558        3.40660508209659        0.16674107575719
C           46.71283528204001        4.88745472216956        0.24325181297250
C           47.40320491693011        5.54390916757503        1.26258505316181
C           47.39456922139459        6.93316809616326        1.35317606682698
O           48.05116957036537        7.58409927537027        2.34824651027528
C           46.69680135125475        7.68584572624302        0.40282933680775
O           46.67521226083910        9.04254036205803        0.46033868893568
C           46.01338662833223        7.02061925095575       -0.61858061900445
O           45.35486704160943        7.81717844900808       -1.51932577422988
C           46.00903307132277        5.63521557147982       -0.70224342346342
C           47.93648998959733        2.75541590515086       -0.00792689039230
C           49.18884510193237        3.42893416192873       -0.16639791967817
C           50.14844862485436        2.47193662109145       -0.18251796092341
N           48.12422241207156        1.39146176892698        0.02001917733729
C           49.47855762652635        1.21838151458228       -0.04977123046878
C           50.15165741688610       -0.00222294954090        0.06643313459843
C           49.47998539237651       -1.22699273493438        0.12470616990398
C           50.14992873488298       -2.48138280162631        0.25342707279723
C           49.20117897501820       -3.44198759513378        0.13893747811496
C           47.95446485424467       -2.76929964750142       -0.06324445178959
N           48.13288014688641       -1.40468854148556       -0.03084126822229
C           46.75335133672618       -3.42168896904716       -0.30692362655467
C           46.76245675586891       -4.90042900052328       -0.43408710317610
C           47.48100826618937       -5.50616445466385       -1.46512836783752
C           47.47941123122019       -6.89064456428601       -1.58979648936148
O           48.15703519191804       -7.49186554956461       -2.59548627399304
C           46.76697861479997       -7.66950735471540       -0.67551494932228
O           46.79857352680254       -9.04801415161313       -0.83066159020378
C           46.08140163732437       -7.06679665882765        0.37735349466078
O           45.41422293799283       -7.82545366002459        1.29336035095992
C           46.06244412667683       -5.68061768800946        0.48617487198758
C           45.54324514417311       -2.75113737845469       -0.42130266198011
C           44.29607353222250       -3.39567276785079       -0.69839815467638
C           43.33503790970887       -2.44499378689384       -0.60370887637589
C           43.99918119968621       -1.22195797449273       -0.28497771182751
N           45.35222452782203       -1.40392875007585       -0.21064364532822
H           42.25052045807342        2.49518932358902        0.65220781389072
H           44.13827926284404        4.41953670764597        0.74738503721035
H           47.93772929351461        4.96910425594630        2.01045249063045
H           48.49009234546190        6.96184931969984        2.94294125935534
H           46.14296921932389        9.36951727177057       -0.28281068537120
H           44.91422904905576        7.28386911820892       -2.19353704210733
H           45.47942071033150        5.14247914142905       -1.50906150837542
H           49.30904724079853        4.49628661039151       -0.25471643895638
H           51.21592705327157        2.58905490525816       -0.27701594221766
H           51.21089896753808       -2.59598140955415        0.40615517669238
H           49.32374474521590       -4.51150070831001        0.18894138528999
H           48.02196171464435       -4.90918433251441       -2.18781184343891
H           48.04031261126129       -8.45310326699091       -2.51076534492424
H           45.92108747717397       -9.42883356557393       -0.69497683472670
H           45.72589253724095       -8.74110947636481        1.26107576946764
H           45.52517845260194       -5.22218056998952        1.30624587493238
H           44.18063527517300       -4.44124473709798       -0.93275510009916
H           42.27004299689277       -2.54709422831242       -0.73610598214180

          :  Hamiltonian                  GFN1-xTB          :
         :: total energy            -401.971234702181 Eh    ::
         :: gradient norm              0.000787930253 Eh/a0 ::
         :: HOMO-LUMO gap              1.025213651887 eV    ::
         :: SCC energy              -407.618385576586 Eh    ::
         :: repulsion energy           5.824202159985 Eh    ::

    * Orbital Energies and Occupations

         #    Occupation            Energy/Eh            Energy/eV
      -------------------------------------------------------------
         1        2.0000           -0.8139016             -22.1474
       ...           ...                  ...                  ...
       339        2.0000           -0.3998550             -10.8806
       340        2.0000           -0.3993717             -10.8675
       341        2.0000           -0.3992186             -10.8633
       342        2.0000           -0.3990834             -10.8596
       343        2.0000           -0.3989339             -10.8555
       344        2.0000           -0.3986825             -10.8487
       345        2.0000           -0.3982072             -10.8358
       346        2.0000           -0.3981288             -10.8336
       347        2.0000           -0.3976707             -10.8212
       348        2.0000           -0.3975936             -10.8191
       349        2.0000           -0.3943115             -10.7298
       350        2.0000           -0.3892959             -10.5933
       351        2.0000           -0.3831241             -10.4253 (HOMO)
       352                         -0.3454482              -9.4001 (LUMO)
       353                         -0.3372233              -9.1763
       354                         -0.3319631              -9.0332
       355                         -0.3319041              -9.0316
       356                         -0.3317807              -9.0282
       357                         -0.3314002              -9.0179
       358                         -0.3311786              -9.0118
       359                         -0.3304824              -8.9929
       360                         -0.3299515              -8.9784
       361                         -0.3107215              -8.4552
       362                         -0.3026221              -8.2348
       ...                                ...                  ...
       707                          1.6050428              43.6754
      -------------------------------------------------------------
                  HL-Gap            0.0376759 Eh            1.0252 eV

Wiberg/Mayer (AO) data.
largest (>0.10) Wiberg bond orders for each atom

     #   Z sym  total        # sym  WBO       # sym  WBO       # sym  WBO
 ---------------------------------------------------------------------------
     1  28 Ni   3.004 --     7 N    0.664    43 N    0.663    28 N    0.661
                            21 N    0.660
     2   6 C    3.933 --     3 C    1.364    42 C    1.363    44 H    0.970
     3   6 C    3.924 --     2 C    1.364     7 N    1.214     4 C    1.174
     4   6 C    3.960 --     5 C    1.650     3 C    1.174    45 H    0.975
     5   6 C    3.963 --     4 C    1.650     6 C    1.177    46 H    0.973
     6   6 C    3.919 --     8 C    1.324     7 N    1.222     5 C    1.177
     7   7 N    3.402 --     6 C    1.222     3 C    1.214     1 Ni   0.664
     8   6 C    3.939 --    18 C    1.331     6 C    1.324     9 C    1.021
     9   6 C    3.989 --    10 C    1.401    17 C    1.389     8 C    1.021
    10   6 C    3.978 --     9 C    1.401    11 C    1.379    47 H    0.970
    11   6 C    3.918 --    10 C    1.379    13 C    1.325    12 O    1.053
    12   8 O    2.049 --    11 C    1.053    48 H    0.847
    13   6 C    3.906 --    15 C    1.341    11 C    1.325    14 O    1.021
    14   8 O    2.021 --    13 C    1.021    49 H    0.846
    15   6 C    3.906 --    17 C    1.383    13 C    1.341    16 O    1.014
    16   8 O    2.025 --    15 C    1.014    50 H    0.860
    17   6 C    3.974 --     9 C    1.389    15 C    1.383    51 H    0.970
    18   6 C    3.914 --     8 C    1.331    21 N    1.205    19 C    1.184
    19   6 C    3.959 --    20 C    1.636    18 C    1.184    52 H    0.973
    20   6 C    3.961 --    19 C    1.636    22 C    1.192    53 H    0.973
    21   7 N    3.406 --    22 C    1.241    18 C    1.205     1 Ni   0.660
    22   6 C    3.903 --    23 C    1.261    21 N    1.241    20 C    1.192
    23   6 C    3.944 --    24 C    1.262    22 C    1.261   125 C    1.186
    24   6 C    3.903 --    23 C    1.262    28 N    1.241    25 C    1.190
    25   6 C    3.961 --    26 C    1.637    24 C    1.190    54 H    0.973
    26   6 C    3.959 --    25 C    1.637    27 C    1.183    55 H    0.973
    27   6 C    3.914 --    29 C    1.332    28 N    1.204    26 C    1.183
    28   7 N    3.406 --    24 C    1.241    27 C    1.204     1 Ni   0.661
    29   6 C    3.939 --    27 C    1.332    39 C    1.322    30 C    1.022
    30   6 C    3.989 --    31 C    1.400    38 C    1.388    29 C    1.022
    31   6 C    3.978 --    30 C    1.400    32 C    1.379    56 H    0.970
    32   6 C    3.918 --    31 C    1.379    34 C    1.324    33 O    1.053
    33   8 O    2.049 --    32 C    1.053    57 H    0.847
    34   6 C    3.905 --    36 C    1.341    32 C    1.324    35 O    1.021
    35   8 O    2.021 --    34 C    1.021    58 H    0.846
    36   6 C    3.905 --    38 C    1.383    34 C    1.341    37 O    1.014
    37   8 O    2.025 --    36 C    1.014    59 H    0.861
    38   6 C    3.974 --    30 C    1.388    36 C    1.383    60 H    0.970
    39   6 C    3.919 --    29 C    1.322    43 N    1.222    40 C    1.178
    40   6 C    3.963 --    41 C    1.648    39 C    1.178    61 H    0.973
    41   6 C    3.959 --    40 C    1.648    42 C    1.176    62 H    0.975
    42   6 C    3.924 --     2 C    1.363    43 N    1.214    41 C    1.176
    43   7 N    3.402 --    39 C    1.222    42 C    1.214     1 Ni   0.663
    44   1 H    1.000 --     2 C    0.970
    45   1 H    0.997 --     4 C    0.975
    46   1 H    1.005 --     5 C    0.973
    47   1 H    0.999 --    10 C    0.970
    48   1 H    0.877 --    12 O    0.847
    49   1 H    0.876 --    14 O    0.846
    50   1 H    0.881 --    16 O    0.860
    51   1 H    1.000 --    17 C    0.970
    52   1 H    1.005 --    19 C    0.973
    53   1 H    1.002 --    20 C    0.973
    54   1 H    1.002 --    25 C    0.973
    55   1 H    1.005 --    26 C    0.973
    56   1 H    0.999 --    31 C    0.970
    57   1 H    0.877 --    33 O    0.847
    58   1 H    0.876 --    35 O    0.846
    59   1 H    0.881 --    37 O    0.861
    60   1 H    1.000 --    38 C    0.970
    61   1 H    1.005 --    40 C    0.973
    62   1 H    0.998 --    41 C    0.975
    63  28 Ni   3.004 --    69 N    0.664   105 N    0.663    90 N    0.661
                            83 N    0.660
    64   6 C    3.933 --    65 C    1.364   104 C    1.363   106 H    0.970
    65   6 C    3.924 --    64 C    1.364    69 N    1.214    66 C    1.175
    66   6 C    3.960 --    67 C    1.650    65 C    1.175   107 H    0.975
    67   6 C    3.963 --    66 C    1.650    68 C    1.177   108 H    0.973
    68   6 C    3.919 --    70 C    1.324    69 N    1.222    67 C    1.177
    69   7 N    3.402 --    68 C    1.222    65 C    1.214    63 Ni   0.664
    70   6 C    3.939 --    80 C    1.331    68 C    1.324    71 C    1.021
    71   6 C    3.989 --    72 C    1.401    79 C    1.389    70 C    1.021
    72   6 C    3.978 --    71 C    1.401    73 C    1.379   109 H    0.970
    73   6 C    3.918 --    72 C    1.379    75 C    1.325    74 O    1.053
    74   8 O    2.049 --    73 C    1.053   110 H    0.847
    75   6 C    3.906 --    77 C    1.341    73 C    1.325    76 O    1.021
    76   8 O    2.021 --    75 C    1.021   111 H    0.846
    77   6 C    3.905 --    79 C    1.383    75 C    1.341    78 O    1.014
    78   8 O    2.025 --    77 C    1.014   112 H    0.861
    79   6 C    3.974 --    71 C    1.389    77 C    1.383   113 H    0.970
    80   6 C    3.914 --    70 C    1.331    83 N    1.205    81 C    1.184
    81   6 C    3.959 --    82 C    1.636    80 C    1.184   114 H    0.973
    82   6 C    3.961 --    81 C    1.636    84 C    1.191   115 H    0.973
    83   7 N    3.406 --    84 C    1.241    80 C    1.205    63 Ni   0.660
    84   6 C    3.903 --    85 C    1.261    83 N    1.241    82 C    1.191
    85   6 C    3.943 --    86 C    1.262    84 C    1.261   140 C    1.186
    86   6 C    3.903 --    85 C    1.262    90 N    1.241    87 C    1.190
    87   6 C    3.961 --    88 C    1.637    86 C    1.190   116 H    0.973
    88   6 C    3.959 --    87 C    1.637    89 C    1.183   117 H    0.972
    89   6 C    3.914 --    91 C    1.332    90 N    1.204    88 C    1.183
    90   7 N    3.406 --    86 C    1.241    89 C    1.204    63 Ni   0.661
    91   6 C    3.939 --    89 C    1.332   101 C    1.322    92 C    1.022
    92   6 C    3.989 --    93 C    1.400   100 C    1.388    91 C    1.022
    93   6 C    3.978 --    92 C    1.400    94 C    1.379   118 H    0.970
    94   6 C    3.918 --    93 C    1.379    96 C    1.324    95 O    1.053
    95   8 O    2.049 --    94 C    1.053   119 H    0.847
    96   6 C    3.905 --    98 C    1.341    94 C    1.324    97 O    1.021
    97   8 O    2.021 --    96 C    1.021   120 H    0.846
    98   6 C    3.905 --   100 C    1.383    96 C    1.341    99 O    1.014
    99   8 O    2.025 --    98 C    1.014   121 H    0.861
   100   6 C    3.974 --    92 C    1.388    98 C    1.383   122 H    0.970
   101   6 C    3.919 --    91 C    1.322   105 N    1.222   102 C    1.178
   102   6 C    3.963 --   103 C    1.648   101 C    1.178   123 H    0.973
   103   6 C    3.959 --   102 C    1.648   104 C    1.176   124 H    0.975
   104   6 C    3.924 --    64 C    1.363   105 N    1.214   103 C    1.176
   105   7 N    3.402 --   101 C    1.222   104 C    1.214    63 Ni   0.663
   106   1 H    1.000 --    64 C    0.970
   107   1 H    0.997 --    66 C    0.975
   108   1 H    1.005 --    67 C    0.973
   109   1 H    0.999 --    72 C    0.970
   110   1 H    0.877 --    74 O    0.847
   111   1 H    0.876 --    76 O    0.846
   112   1 H    0.881 --    78 O    0.861
   113   1 H    1.000 --    79 C    0.970
   114   1 H    1.005 --    81 C    0.973
   115   1 H    1.002 --    82 C    0.973
   116   1 H    1.002 --    87 C    0.973
   117   1 H    1.005 --    88 C    0.972
   118   1 H    0.999 --    93 C    0.970
   119   1 H    0.877 --    95 O    0.847
   120   1 H    0.876 --    97 O    0.846
   121   1 H    0.881 --    99 O    0.861
   122   1 H    1.000 --   100 C    0.970
   123   1 H    1.005 --   102 C    0.973
   124   1 H    0.998 --   103 C    0.975
   125   6 C    3.877 --   126 C    2.444    23 C    1.186   128 C    0.187
   126   6 C    3.938 --   125 C    2.444   127 C    1.342
   127   6 C    3.893 --   128 C    2.339   126 C    1.342   130 C    0.183
   128   6 C    3.927 --   127 C    2.339   129 C    1.368   125 C    0.187
   129   6 C    3.926 --   130 C    2.338   128 C    1.368   132 C    0.187
   130   6 C    3.894 --   129 C    2.338   131 C    1.343   127 C    0.183
   131   6 C    3.935 --   132 C    2.441   130 C    1.343
   132   6 C    3.878 --   131 C    2.441   142 C    1.190   129 C    0.187
   133   6 C    3.878 --   134 C    2.441   163 C    1.190   136 C    0.187
   134   6 C    3.935 --   133 C    2.441   135 C    1.343
   135   6 C    3.894 --   136 C    2.338   134 C    1.343   138 C    0.183
   136   6 C    3.926 --   135 C    2.338   137 C    1.368   133 C    0.187
   137   6 C    3.927 --   138 C    2.339   136 C    1.368   140 C    0.187
   138   6 C    3.893 --   137 C    2.339   139 C    1.342   135 C    0.183
   139   6 C    3.938 --   140 C    2.444   138 C    1.342
   140   6 C    3.877 --   139 C    2.444    85 C    1.186   137 C    0.187
   141  28 Ni   3.002 --   168 N    0.661   183 N    0.660   147 N    0.660
                           161 N    0.660
   142   6 C    3.933 --   182 C    1.259   143 C    1.258   132 C    1.190
   143   6 C    3.903 --   142 C    1.258   147 N    1.240   144 C    1.194
   144   6 C    3.959 --   145 C    1.631   143 C    1.194   184 H    0.973
   145   6 C    3.960 --   144 C    1.631   146 C    1.188   185 H    0.973
   146   6 C    3.912 --   148 C    1.324   147 N    1.205   145 C    1.188
   147   7 N    3.399 --   143 C    1.240   146 C    1.205   141 Ni   0.660
   148   6 C    3.935 --   158 C    1.326   146 C    1.324   149 C    1.027
   149   6 C    3.988 --   150 C    1.392   157 C    1.385   148 C    1.027
   150   6 C    3.975 --   149 C    1.392   151 C    1.380   186 H    0.969
   151   6 C    3.915 --   150 C    1.380   153 C    1.321   152 O    1.044
   152   8 O    2.053 --   151 C    1.044   187 H    0.866
   153   6 C    3.917 --   155 C    1.328   151 C    1.321   154 O    1.052
   154   8 O    2.048 --   153 C    1.052   188 H    0.850
   155   6 C    3.904 --   157 C    1.390   153 C    1.328   156 O    1.013
   156   8 O    2.027 --   155 C    1.013   189 H    0.861
   157   6 C    3.975 --   155 C    1.390   149 C    1.385   190 H    0.969
   158   6 C    3.912 --   148 C    1.326   161 N    1.203   159 C    1.187
   159   6 C    3.959 --   160 C    1.631   158 C    1.187   191 H    0.973
   160   6 C    3.959 --   159 C    1.631   162 C    1.194   192 H    0.973
   161   7 N    3.399 --   162 C    1.241   158 C    1.203   141 Ni   0.660
   162   6 C    3.903 --   163 C    1.257   161 N    1.241   160 C    1.194
   163   6 C    3.933 --   164 C    1.260   162 C    1.257   133 C    1.190
   164   6 C    3.903 --   163 C    1.260   168 N    1.239   165 C    1.192
   165   6 C    3.959 --   166 C    1.634   164 C    1.192   193 H    0.973
   166   6 C    3.960 --   165 C    1.634   167 C    1.186   194 H    0.973
   167   6 C    3.912 --   169 C    1.326   168 N    1.205   166 C    1.186
   168   7 N    3.399 --   164 C    1.239   167 C    1.205   141 Ni   0.661
   169   6 C    3.934 --   179 C    1.327   167 C    1.326   170 C    1.024
   170   6 C    3.989 --   171 C    1.398   178 C    1.398   169 C    1.024
   171   6 C    3.977 --   170 C    1.398   172 C    1.377   195 H    0.970
   172   6 C    3.917 --   171 C    1.377   174 C    1.332   173 O    1.056
   173   8 O    2.052 --   172 C    1.056   196 H    0.847
   174   6 C    3.889 --   176 C    1.347   172 C    1.332   175 O    0.979
   175   8 O    1.983 --   174 C    0.979   197 H    0.863
   176   6 C    3.911 --   178 C    1.378   174 C    1.347   177 O    1.029
   177   8 O    2.031 --   176 C    1.029   198 H    0.862
   178   6 C    3.977 --   170 C    1.398   176 C    1.378   199 H    0.970
   179   6 C    3.912 --   169 C    1.327   183 N    1.204   180 C    1.186
   180   6 C    3.959 --   181 C    1.633   179 C    1.186   200 H    0.973
   181   6 C    3.959 --   180 C    1.633   182 C    1.193   201 H    0.973
   182   6 C    3.903 --   142 C    1.259   183 N    1.241   181 C    1.193
   183   7 N    3.399 --   182 C    1.241   179 C    1.204   141 Ni   0.660
   184   1 H    1.002 --   144 C    0.973
   185   1 H    1.005 --   145 C    0.973
   186   1 H    1.001 --   150 C    0.969
   187   1 H    0.886 --   152 O    0.866
   188   1 H    0.881 --   154 O    0.850
   189   1 H    0.881 --   156 O    0.861
   190   1 H    1.000 --   157 C    0.969
   191   1 H    1.005 --   159 C    0.973
   192   1 H    1.001 --   160 C    0.973
   193   1 H    1.001 --   165 C    0.973
   194   1 H    1.005 --   166 C    0.973
   195   1 H    0.999 --   171 C    0.970
   196   1 H    0.880 --   173 O    0.847
   197   1 H    0.884 --   175 O    0.863
   198   1 H    0.885 --   177 O    0.862
   199   1 H    1.000 --   178 C    0.970
   200   1 H    1.005 --   180 C    0.973
   201   1 H    1.001 --   181 C    0.973
 ---------------------------------------------------------------------------

           -------------------------------------------------
          | TOTAL ENERGY             -401.971234702181 Eh   |
          | GRADIENT NORM               0.000787930253 Eh/α |
          | HOMO-LUMO GAP               1.025213651887 eV   |
           -------------------------------------------------

 * finished run on 2022/07/30 at 06:49:55.854
