   * xtb version 6.5.1 (b24c23e) compiled by 'conda@728c89f4b128' on 2022-07-12
          program call               : xtb Zn_Ph3Me_C4_2.xyz --gfn 1 --opt -T 48

   ID    Z sym.   atoms
    1   30 Zn     1, 75
    2    6 C      2-6, 8-20, 22-27, 29-42, 76-80, 82-94, 96-101, 103-116,
                  149-152
    3    7 N      7, 21, 28, 43, 81, 95, 102, 117
    4    1 H      44-74, 118-148
########################################################################
[WARNING] Please study the warnings concerning your input carefully
-1- prog_main_parseArguments: Unknown option '-T' provided
########################################################################

          :  Hamiltonian                  GFN1-xTB          :
 * total energy  :  -229.0054241 Eh     change       -0.1536534E-08 Eh
 * total energy  :  -229.5456253 Eh     change       -0.5402012E+00 Eh
 * total energy  :  -229.6306581 Eh     change       -0.8503275E-01 Eh
 * total energy  :  -229.6702224 Eh     change       -0.3956433E-01 Eh
 * total energy  :  -229.6799875 Eh     change       -0.9765030E-02 Eh
 * total energy  :  -229.6851151 Eh     change       -0.5127625E-02 Eh
 * total energy  :  -229.6880301 Eh     change       -0.2915033E-02 Eh
 * total energy  :  -229.6897593 Eh     change       -0.1729211E-02 Eh
 * total energy  :  -229.6912392 Eh     change       -0.1479876E-02 Eh
 * total energy  :  -229.6921173 Eh     change       -0.8781028E-03 Eh
 * total energy  :  -229.6959291 Eh     change       -0.1430373E-04 Eh
 * total energy  :  -229.6959366 Eh     change       -0.7505696E-05 Eh
 * total energy  :  -229.6959435 Eh     change       -0.6935502E-05 Eh
 * total energy  :  -229.6959502 Eh     change       -0.6707953E-05 Eh
 * total energy  :  -229.6959583 Eh     change       -0.8066266E-05 Eh
 * total energy  :  -229.6959698 Eh     change       -0.1158126E-04 Eh
 * total energy  :  -229.6959824 Eh     change       -0.1255386E-04 Eh
 * total energy  :  -229.6959911 Eh     change       -0.8706130E-05 Eh
 * total energy  :  -229.6959938 Eh     change       -0.2728574E-05 Eh
   *** GEOMETRY OPTIMIZATION CONVERGED AFTER 44 ITERATIONS ***

 final structure:
================
152
 xtb: 6.5.1 (b24c23e)
Zn          15.76421307518479        0.07596309960480        0.03159494544876
C           12.34555671192713        0.14273905114508       -0.03114547966884
C           12.98065306725511        1.27902948035651        0.45719697486796
C           12.31632315729770        2.46139281817428        0.93241397424763
C           13.28234310940347        3.33297978759878        1.31752226282562
C           14.54892409331716        2.69339810370883        1.07979232822649
N           14.33100184838622        1.45067287473959        0.56058926744263
C           15.80034122417513        3.26004658747777        1.33732030398676
C           15.81370756340534        4.64175533057569        1.90219629820605
C           15.76888957143260        5.74558438611215        1.04580981709896
C           15.71726995838130        5.53722773661877       -0.44447773366587
C           15.77069783071772        7.02797939131297        1.58174724782677
C           15.81551652012656        7.22702369368564        2.95789403201065
C           15.83217772295722        8.62105463322738        3.52505419968960
C           15.86461915642182        6.12177196769676        3.80099336383575
C           15.86385462914080        4.83055756485208        3.28609302592562
C           15.91523351440729        3.63868577072719        4.20468343688851
C           17.03687938452911        2.65247634197706        1.10983927676670
C           18.31376578794914        3.25608905818929        1.37154022573134
C           19.26261359533989        2.35119307873103        1.01791564149678
N           17.23329282618439        1.39550433332254        0.60260944199212
C           18.57538046993383        1.18779575058131        0.53715946759062
C           19.20596222936575        0.01520521479561        0.07275975880157
C           18.54685455103977       -1.13758426066797       -0.40143387709869
C           19.20489218919672       -2.32594976112457       -0.86177717678278
C           18.23403444559668       -3.19978668147579       -1.23310100488659
C           16.97286013502524       -2.55101100519559       -1.00482564496876
N           17.20040846977435       -1.29992217593446       -0.49644392472519
C           15.72188947774590       -3.11299310786379       -1.26788265119193
C           15.70201103962989       -4.49462151725585       -1.83266011958012
C           15.80484471594582       -4.68489471229173       -3.21424167270619
C           15.94125111640828       -3.49533583951574       -4.12712632767778
C           15.78061831550479       -5.97431584503203       -3.73046472279512
C           15.65625339759225       -7.07828486127337       -2.89140637789135
C           15.62364345714702       -8.46563409373940       -3.47412188507040
C           15.55638957014067       -6.87806967337301       -1.51961438216843
C           15.57831594635195       -5.59565983121542       -0.98167173571573
C           15.47101750453383       -5.38704044425410        0.50563141262703
C           14.48555819374881       -2.49702435234116       -1.05462831879765
C           13.20423979334385       -3.08532675727243       -1.34092325393104
C           12.26021970386488       -2.17412969180252       -0.99502583349645
C           12.95302887059054       -1.01886433123414       -0.49441455569001
N           14.29832590701820       -1.24543368603303       -0.54485758941657
H           11.26036761726328        0.16473716862890       -0.05290119364571
H           11.24620910503260        2.59545332793642        0.96320101198037
H           13.15959648629297        4.32257372198438        1.72863651885540
H           14.80141235595630        5.01110636314934       -0.72118714860225
H           16.56275244761019        4.92926317363885       -0.77176302813998
H           15.74496722487356        6.48987030330295       -0.97266376355428
H           15.73418588123475        7.88455916475943        0.91647426666056
H           15.39773385696135        8.63926173627770        4.52485699377240
H           16.86093062790681        8.98230508256960        3.59479785949600
H           15.27534937866694        9.30670096948722        2.88571346736577
H           15.90078396041306        6.26756506089632        4.87573997533007
H           16.82531637043122        3.06275343246486        4.02528705522884
H           15.90011576581603        3.95005541147789        5.24877550436744
H           15.06321869597577        2.98125712782695        4.02165871154803
H           18.45710375185353        4.24710294925541        1.77204346408388
H           20.33472247059746        2.45450813650646        1.07391990502033
H           20.27384095211855       -2.46598907541414       -0.89283324275619
H           18.35267316440667       -4.19725320820097       -1.62556556959603
H           15.11111782108526       -2.80298888848444       -3.97516093648806
H           15.95338433880035       -3.80483769035277       -5.17179323979200
H           16.86704894869678       -2.95818594182362       -3.91154856374908
H           15.85952785406338       -6.12267000227985       -4.80259285714699
H           16.48207132679825       -8.62476265779187       -4.12883878496520
H           15.63857675023745       -9.22063505558507       -2.68819653561897
H           14.71796325587436       -8.60273385662005       -4.06858021944378
H           15.46079943407486       -7.73205720241812       -0.85690255943056
H           14.56449576259142       -4.82732964559432        0.74457247737770
H           16.32390500298944       -4.81163674026228        0.87042241429634
H           15.44037923392557       -6.34066586345758        1.03191147877382
H           13.05764596370849       -4.06981307436507       -1.75646278705680
H           11.18758057858349       -2.26411920108371       -1.06848543555656
Zn          29.25201425173799       -0.07586893646476       -0.03040374666912
C           32.67075724507685       -0.08129125895619       -0.11997174951774
C           32.03570144815285       -1.23897128403991       -0.55522758367015
C           32.70001385543621       -2.42110571434092       -1.03103026788186
C           31.73396147740923       -3.31623812432047       -1.35760597612458
C           30.46739103443428       -2.69003720006227       -1.08656336423889
N           30.68532432442082       -1.43405185015883       -0.60034883363683
C           29.21595915672029       -3.27729891219166       -1.29267971645139
C           29.20257243759895       -4.66546149529700       -1.84147642286751
C           29.24747618315423       -4.86947224976470       -3.22357308912362
C           29.29905869417299       -3.68766580486549       -4.15508679737475
C           29.24574960176047       -6.16603883875966       -3.72427084014802
C           29.20092694593642       -7.26213980564034       -2.86872473766094
C           29.18447668120062       -8.66089638936694       -3.42413059609556
C           29.15168598300525       -7.04788994291795       -1.49523058557398
C           29.15237583637684       -5.75953451033791       -0.97324689572205
C           29.10098880104779       -5.53492696176486        0.51467660448336
C           27.97944978464502       -2.68184853085496       -1.03505630665533
C           26.70264820693077       -3.29947168262750       -1.26217654409281
C           25.75372971127674       -2.40210061746814       -0.89007050466469
N           27.78293119578094       -1.42349949616795       -0.53129877307089
C           26.44082386987248       -1.22903410948027       -0.43323670241516
C           25.81029159212098       -0.06120679521265        0.04308819179367
C           26.46945444081024        1.09926410228335        0.49804448569064
C           25.81130811889668        2.27538268725384        0.98873166524701
C           26.78207193620744        3.16342860213522        1.32493486852886
C           28.04329003183880        2.53753190637510        1.04000773300331
N           27.81583305752710        1.28265281373723        0.54099107715001
C           29.29426355768796        3.12522252593440        1.23906491084235
C           29.31414499713888        4.51303542146375        1.78847047420418
C           29.21163321385928        5.60730760475724        0.92384227604503
C           29.07569833652801        5.38180422743403       -0.55861754893318
C           29.23570612966411        6.89484455567241        1.44478129294247
C           29.35958675340895        7.10978875596674        2.81470260048796
C           29.39188295874774        8.51398859607524        3.35557355138246
C           29.45917800403155        6.01511723503592        3.66537908549108
C           29.43739833972039        4.71761016776977        3.16496809351890
C           29.54427405912966        3.53682098740179        4.09309244011242
C           30.53060584256197        2.53284557689549        0.96705989048524
C           31.81195517870445        3.15517429848799        1.16879891629252
C           32.75602017284731        2.25776417644146        0.78867260523454
C           32.06320520885208        1.07777277572101        0.34952216438369
N           30.71786386004651        1.27668362697167        0.46867534005644
H           33.75597694838716       -0.08243599301585       -0.14980483801360
H           33.77013695216664       -2.53944156386752       -1.10100484654821
H           31.85671297000329       -4.31477176474776       -1.74650320589996
H           30.21476041791172       -3.11619928750089       -3.99052704558251
H           28.45339682941214       -3.02249076312530       -3.97076151987626
H           29.27164794949674       -4.00977090111577       -5.19565298291526
H           29.28235234014335       -6.32389211386030       -4.79730146600349
H           29.61875882920881       -9.36595058357122       -2.71492128675999
H           28.15579923719930       -8.96998157881083       -3.62409878866819
H           29.74158425810895       -8.71330626803819       -4.35997763811941
H           29.11549382125558       -7.89695266804636       -0.82038164735208
H           28.19096944139039       -4.99493969944964        0.78376638345055
H           29.11600751436374       -6.48225786637434        1.05285677869701
H           29.95306649486151       -4.93378421466534        0.83753140934513
H           26.55940037992594       -4.29220055342318       -1.65843777676260
H           24.68166899020134       -2.51628397721469       -0.91952311156018
H           24.74235046619362        2.39745871637544        1.06397332288411
H           26.66335583918463        4.15494417127485        1.73218179132874
H           29.90623200259241        4.77767245640534       -0.92847893860708
H           29.06321159258646        6.32871859986318       -1.09757057266158
H           28.15022876786633        4.84461788635220       -0.77549873271592
H           29.15703097405724        7.74454046555868        0.77431480570761
H           28.53342275866711        9.08216709757998        2.99350312649442
H           29.37673450680054        8.51398986004394        4.44539061725990
H           30.29753732597234        9.02484138704331        3.02203345989483
H           29.55438112183722        6.17192518964676        4.73494262954234
H           30.45048223821436        2.96718826395346        3.87756316647302
H           28.69103893645632        2.86955620330191        3.95768328176617
H           29.57519526526479        3.85998784817336        5.13324186411817
H           31.95852462601177        4.15327141937635        1.55049667272811
H           33.82869735363959        2.37310528872207        0.79909180343555
C           21.83329553153518       -0.02669938942529        0.07953810009713
C           20.61122918689600       -0.00629655638185        0.08041163391773
C           23.18276405365682       -0.04282880629032        0.07640470932454
C           24.40503032977833       -0.05152789021638        0.06445048257364

          :  Hamiltonian                  GFN1-xTB          :
         :: total energy            -229.695993844495 Eh    ::
         :: gradient norm              0.000562288022 Eh/a0 ::
         :: HOMO-LUMO gap              1.080860137092 eV    ::
         :: SCC energy              -233.390642593406 Eh    ::
         :: repulsion energy           3.830765277799 Eh    ::

    * Orbital Energies and Occupations

         #    Occupation            Energy/Eh            Energy/eV
      -------------------------------------------------------------
         1        2.0000           -0.7562075             -20.5775
       ...           ...                  ...                  ...
       201        2.0000           -0.4176151             -11.3639
       202        2.0000           -0.4176100             -11.3637
       203        2.0000           -0.4174722             -11.3600
       204        2.0000           -0.4168428             -11.3429
       205        2.0000           -0.4168357             -11.3427
       206        2.0000           -0.4168071             -11.3419
       207        2.0000           -0.4166908             -11.3387
       208        2.0000           -0.4149524             -11.2914
       209        2.0000           -0.4144874             -11.2788
       210        2.0000           -0.3898153             -10.6074
       211        2.0000           -0.3898144             -10.6074
       212        2.0000           -0.3850391             -10.4774
       213        2.0000           -0.3723054             -10.1309 (HOMO)
       214                         -0.3325845              -9.0501 (LUMO)
       215                         -0.3206388              -8.7250
       216                         -0.3206379              -8.7250
       217                         -0.3186817              -8.6718
       218                         -0.2903134              -7.8998
       219                         -0.2822639              -7.6808
       220                         -0.2532927              -6.8924
       221                         -0.2527472              -6.8776
       222                         -0.2527186              -6.8768
       223                         -0.2526581              -6.8752
       224                         -0.2513826              -6.8405
       ...                                ...                  ...
       484                          1.5235124              41.4569
      -------------------------------------------------------------
                  HL-Gap            0.0397209 Eh            1.0809 eV

Wiberg/Mayer (AO) data.
largest (>0.10) Wiberg bond orders for each atom

     #   Z sym  total        # sym  WBO       # sym  WBO       # sym  WBO
 ---------------------------------------------------------------------------
     1  30 Zn   2.001 --     7 N    0.460    43 N    0.460    21 N    0.458
                            28 N    0.457
     2   6 C    3.926 --    42 C    1.357     3 C    1.356    44 H    0.972
     3   6 C    3.923 --     2 C    1.356     7 N    1.235     4 C    1.171
     4   6 C    3.960 --     5 C    1.659     3 C    1.171    45 H    0.976
     5   6 C    3.964 --     4 C    1.659     6 C    1.171    46 H    0.975
     6   6 C    3.918 --     8 C    1.320     7 N    1.240     5 C    1.171
     7   7 N    3.293 --     6 C    1.240     3 C    1.235     1 Zn   0.460
     8   6 C    3.934 --    18 C    1.330     6 C    1.320     9 C    1.004
     9   6 C    3.987 --    16 C    1.382    10 C    1.381     8 C    1.004
                            13 C    0.104
    10   6 C    3.984 --    12 C    1.421     9 C    1.381    11 C    1.020
                            15 C    0.103
    11   6 C    3.995 --    10 C    1.020    49 H    0.986    48 H    0.975
                            47 H    0.973
    12   6 C    3.993 --    10 C    1.421    13 C    1.413    50 H    0.970
                            16 C    0.103
    13   6 C    3.988 --    15 C    1.415    12 C    1.413    14 C    1.020
                             9 C    0.104
    14   6 C    3.996 --    13 C    1.020    51 H    0.983    53 H    0.983
                            52 H    0.972
    15   6 C    3.993 --    16 C    1.420    13 C    1.415    54 H    0.970
                            10 C    0.103
    16   6 C    3.984 --    15 C    1.420     9 C    1.382    17 C    1.020
                            12 C    0.103
    17   6 C    3.995 --    16 C    1.020    56 H    0.986    57 H    0.975
                            55 H    0.973
    18   6 C    3.914 --     8 C    1.330    21 N    1.221    19 C    1.178
    19   6 C    3.960 --    20 C    1.646    18 C    1.178    58 H    0.975
    20   6 C    3.962 --    19 C    1.646    22 C    1.186    59 H    0.974
    21   7 N    3.298 --    22 C    1.264    18 C    1.221     1 Zn   0.458
    22   6 C    3.903 --    21 N    1.264    23 C    1.253    20 C    1.186
    23   6 C    3.938 --    22 C    1.253    24 C    1.253   150 C    1.191
    24   6 C    3.903 --    28 N    1.265    23 C    1.253    25 C    1.186
    25   6 C    3.962 --    26 C    1.646    24 C    1.186    60 H    0.974
    26   6 C    3.960 --    25 C    1.646    27 C    1.178    61 H    0.975
    27   6 C    3.913 --    29 C    1.330    28 N    1.221    26 C    1.178
    28   7 N    3.297 --    24 C    1.265    27 C    1.221     1 Zn   0.457
    29   6 C    3.934 --    27 C    1.330    39 C    1.320    30 C    1.004
    30   6 C    3.987 --    37 C    1.385    31 C    1.377    29 C    1.004
                            34 C    0.104
    31   6 C    3.984 --    33 C    1.425    30 C    1.377    32 C    1.020
                            36 C    0.102
    32   6 C    3.995 --    31 C    1.020    63 H    0.986    62 H    0.975
                            64 H    0.973
    33   6 C    3.993 --    31 C    1.425    34 C    1.409    65 H    0.971
                            37 C    0.103
    34   6 C    3.988 --    36 C    1.419    33 C    1.409    35 C    1.020
                            30 C    0.104
    35   6 C    3.996 --    34 C    1.020    67 H    0.986    66 H    0.977
                            68 H    0.974
    36   6 C    3.993 --    34 C    1.419    37 C    1.416    69 H    0.970
                            31 C    0.102
    37   6 C    3.984 --    36 C    1.416    30 C    1.385    38 C    1.020
                            33 C    0.103
    38   6 C    3.995 --    37 C    1.020    72 H    0.986    71 H    0.975
                            70 H    0.973
    39   6 C    3.918 --    29 C    1.320    43 N    1.240    40 C    1.171
    40   6 C    3.964 --    41 C    1.659    39 C    1.171    73 H    0.975
    41   6 C    3.960 --    40 C    1.659    42 C    1.171    74 H    0.976
    42   6 C    3.923 --     2 C    1.357    43 N    1.235    41 C    1.171
    43   7 N    3.293 --    39 C    1.240    42 C    1.235     1 Zn   0.460
    44   1 H    1.002 --     2 C    0.972
    45   1 H    0.998 --     4 C    0.976
    46   1 H    1.002 --     5 C    0.975
    47   1 H    1.008 --    11 C    0.973
    48   1 H    1.008 --    11 C    0.975
    49   1 H    1.004 --    11 C    0.986
    50   1 H    1.000 --    12 C    0.970
    51   1 H    1.004 --    14 C    0.983
    52   1 H    1.006 --    14 C    0.972
    53   1 H    1.005 --    14 C    0.983
    54   1 H    1.000 --    15 C    0.970
    55   1 H    1.008 --    17 C    0.973
    56   1 H    1.004 --    17 C    0.986
    57   1 H    1.007 --    17 C    0.975
    58   1 H    1.002 --    19 C    0.975
    59   1 H    1.003 --    20 C    0.974
    60   1 H    1.003 --    25 C    0.974
    61   1 H    1.002 --    26 C    0.975
    62   1 H    1.007 --    32 C    0.975
    63   1 H    1.004 --    32 C    0.986
    64   1 H    1.009 --    32 C    0.973
    65   1 H    0.999 --    33 C    0.971
    66   1 H    1.005 --    35 C    0.977
    67   1 H    1.004 --    35 C    0.986
    68   1 H    1.006 --    35 C    0.974
    69   1 H    1.000 --    36 C    0.970
    70   1 H    1.008 --    38 C    0.973
    71   1 H    1.007 --    38 C    0.975
    72   1 H    1.004 --    38 C    0.986
    73   1 H    1.002 --    40 C    0.975
    74   1 H    0.998 --    41 C    0.976
    75  30 Zn   2.001 --    81 N    0.460   117 N    0.460    95 N    0.458
                           102 N    0.457
    76   6 C    3.926 --   116 C    1.356    77 C    1.356   118 H    0.972
    77   6 C    3.923 --    76 C    1.356    81 N    1.235    78 C    1.171
    78   6 C    3.960 --    79 C    1.659    77 C    1.171   119 H    0.976
    79   6 C    3.964 --    78 C    1.659    80 C    1.171   120 H    0.975
    80   6 C    3.918 --    82 C    1.320    81 N    1.240    79 C    1.171
    81   7 N    3.293 --    80 C    1.240    77 C    1.235    75 Zn   0.460
    82   6 C    3.934 --    92 C    1.330    80 C    1.320    83 C    1.004
    83   6 C    3.987 --    90 C    1.382    84 C    1.381    82 C    1.004
                            87 C    0.104
    84   6 C    3.984 --    86 C    1.421    83 C    1.381    85 C    1.020
                            89 C    0.103
    85   6 C    3.995 --    84 C    1.020   123 H    0.986   122 H    0.975
                           121 H    0.973
    86   6 C    3.993 --    84 C    1.421    87 C    1.414   124 H    0.970
                            90 C    0.103
    87   6 C    3.988 --    89 C    1.415    86 C    1.414    88 C    1.020
                            83 C    0.104
    88   6 C    3.996 --    87 C    1.020   125 H    0.983   127 H    0.983
                           126 H    0.972
    89   6 C    3.993 --    90 C    1.420    87 C    1.415   128 H    0.970
                            84 C    0.103
    90   6 C    3.984 --    89 C    1.420    83 C    1.382    91 C    1.020
                            86 C    0.103
    91   6 C    3.995 --    90 C    1.020   130 H    0.986   131 H    0.975
                           129 H    0.973
    92   6 C    3.914 --    82 C    1.330    95 N    1.221    93 C    1.178
    93   6 C    3.960 --    94 C    1.646    92 C    1.178   132 H    0.975
    94   6 C    3.962 --    93 C    1.646    96 C    1.187   133 H    0.974
    95   7 N    3.298 --    96 C    1.264    92 C    1.221    75 Zn   0.458
    96   6 C    3.903 --    95 N    1.264    97 C    1.253    94 C    1.187
    97   6 C    3.938 --    98 C    1.253    96 C    1.253   152 C    1.191
    98   6 C    3.903 --   102 N    1.265    97 C    1.253    99 C    1.186
    99   6 C    3.962 --   100 C    1.646    98 C    1.186   134 H    0.974
   100   6 C    3.960 --    99 C    1.646   101 C    1.178   135 H    0.975
   101   6 C    3.913 --   103 C    1.330   102 N    1.221   100 C    1.178
   102   7 N    3.297 --    98 C    1.265   101 C    1.221    75 Zn   0.457
   103   6 C    3.934 --   101 C    1.330   113 C    1.320   104 C    1.004
   104   6 C    3.987 --   111 C    1.385   105 C    1.378   103 C    1.004
                           108 C    0.104
   105   6 C    3.984 --   107 C    1.425   104 C    1.378   106 C    1.020
                           110 C    0.102
   106   6 C    3.995 --   105 C    1.020   137 H    0.986   136 H    0.975
                           138 H    0.973
   107   6 C    3.993 --   105 C    1.425   108 C    1.409   139 H    0.971
                           111 C    0.103
   108   6 C    3.988 --   110 C    1.419   107 C    1.409   109 C    1.020
                           104 C    0.104
   109   6 C    3.996 --   108 C    1.020   141 H    0.986   140 H    0.977
                           142 H    0.974
   110   6 C    3.993 --   108 C    1.419   111 C    1.416   143 H    0.970
                           105 C    0.102
   111   6 C    3.984 --   110 C    1.416   104 C    1.385   112 C    1.020
                           107 C    0.103
   112   6 C    3.995 --   111 C    1.020   146 H    0.986   145 H    0.975
                           144 H    0.973
   113   6 C    3.918 --   103 C    1.320   117 N    1.240   114 C    1.171
   114   6 C    3.964 --   115 C    1.659   113 C    1.171   147 H    0.975
   115   6 C    3.960 --   114 C    1.659   116 C    1.171   148 H    0.976
   116   6 C    3.923 --    76 C    1.356   117 N    1.235   115 C    1.171
   117   7 N    3.293 --   113 C    1.240   116 C    1.235    75 Zn   0.460
   118   1 H    1.002 --    76 C    0.972
   119   1 H    0.998 --    78 C    0.976
   120   1 H    1.002 --    79 C    0.975
   121   1 H    1.008 --    85 C    0.973
   122   1 H    1.008 --    85 C    0.975
   123   1 H    1.004 --    85 C    0.986
   124   1 H    1.000 --    86 C    0.970
   125   1 H    1.004 --    88 C    0.983
   126   1 H    1.006 --    88 C    0.972
   127   1 H    1.005 --    88 C    0.983
   128   1 H    1.000 --    89 C    0.970
   129   1 H    1.008 --    91 C    0.973
   130   1 H    1.004 --    91 C    0.986
   131   1 H    1.007 --    91 C    0.975
   132   1 H    1.002 --    93 C    0.975
   133   1 H    1.003 --    94 C    0.974
   134   1 H    1.003 --    99 C    0.974
   135   1 H    1.002 --   100 C    0.975
   136   1 H    1.007 --   106 C    0.975
   137   1 H    1.004 --   106 C    0.986
   138   1 H    1.009 --   106 C    0.973
   139   1 H    0.999 --   107 C    0.971
   140   1 H    1.005 --   109 C    0.977
   141   1 H    1.004 --   109 C    0.986
   142   1 H    1.006 --   109 C    0.974
   143   1 H    1.000 --   110 C    0.970
   144   1 H    1.009 --   112 C    0.973
   145   1 H    1.007 --   112 C    0.975
   146   1 H    1.004 --   112 C    0.986
   147   1 H    1.002 --   114 C    0.975
   148   1 H    0.998 --   115 C    0.976
   149   6 C    3.934 --   150 C    2.474   151 C    1.309
   150   6 C    3.925 --   149 C    2.474    23 C    1.191   152 C    0.199
   151   6 C    3.934 --   152 C    2.474   149 C    1.309
   152   6 C    3.925 --   151 C    2.474    97 C    1.191   150 C    0.199
 ---------------------------------------------------------------------------

           -------------------------------------------------
          | TOTAL ENERGY             -229.695993844495 Eh   |
          | GRADIENT NORM               0.000562288022 Eh/α |
          | HOMO-LUMO GAP               1.080860137092 eV   |
           -------------------------------------------------

 * finished run on 2022/07/30 at 10:15:48.599
