   * xtb version 6.5.1 (b24c23e) compiled by 'conda@728c89f4b128' on 2022-07-12
          program call               : xtb Co_Ph_C2_3.xyz --gfn 1 --opt -T 48

   ID    Z sym.   atoms
    1   27 Co     1, 57, 117
    2    6 C      2-6, 8-11, 13-29, 32-37, 58-62, 64-67, 69-85, 88-93,
                  113-116, 118-122, 124-127, 129-145, 148-153
    3    7 N      7, 12, 30, 31, 63, 68, 86, 87, 123, 128, 146, 147
    4    1 H      38-56, 94-112, 154-171

          :  Hamiltonian                  GFN1-xTB          :
 * total energy  :  -289.8401497 Eh     change       -0.7597123E-09 Eh
 * total energy  :  -290.0020164 Eh     change       -0.1618667E+00 Eh
 * total energy  :  -290.1166655 Eh     change       -0.1146491E+00 Eh
 * total energy  :  -290.1748746 Eh     change       -0.5820908E-01 Eh
 * total energy  :  -290.2017410 Eh     change       -0.2686643E-01 Eh
 * total energy  :  -290.2221756 Eh     change       -0.2043459E-01 Eh
 * total energy  :  -290.2378989 Eh     change       -0.1572325E-01 Eh
 * total energy  :  -290.2507502 Eh     change       -0.1285135E-01 Eh
 * total energy  :  -290.2611409 Eh     change       -0.1039071E-01 Eh
 * total energy  :  -290.2693831 Eh     change       -0.8242212E-02 Eh
 * total energy  :  -290.3136201 Eh     change       -0.1308429E-04 Eh
 * total energy  :  -290.3136319 Eh     change       -0.1176738E-04 Eh
 * total energy  :  -290.3136416 Eh     change       -0.9648808E-05 Eh
 * total energy  :  -290.3136490 Eh     change       -0.7414508E-05 Eh
 * total energy  :  -290.3136550 Eh     change       -0.6059631E-05 Eh
 * total energy  :  -290.3136608 Eh     change       -0.5800477E-05 Eh
 * total energy  :  -290.3136668 Eh     change       -0.5993259E-05 Eh
 * total energy  :  -290.3136722 Eh     change       -0.5389535E-05 Eh
 * total energy  :  -290.3136765 Eh     change       -0.4319087E-05 Eh
   *** GEOMETRY OPTIMIZATION CONVERGED AFTER 86 ITERATIONS ***

 final structure:
================
171
 xtb: 6.5.1 (b24c23e)
Co          31.48746893992821       -0.02384128699471        0.01228928332547
C           28.11403891310661       -0.02914113229386       -0.00709648291732
C           28.77254400725154       -1.19625210520416       -0.33036480347041
C           28.10824970521679       -2.41700569196875       -0.67289386720417
C           29.06070753528940       -3.37786224477272       -0.71645609315957
C           30.30727914111263       -2.74137503680895       -0.40527988982247
N           30.12580447969593       -1.39480399157718       -0.21876396282618
C           31.48684819498391       -3.42703827667482       -0.14719557687248
C           32.66518057242727       -2.76945998035361        0.16861331054598
C           33.90764318111371       -3.43294166496313        0.42823535835571
C           34.86152985804870       -2.47249477037619        0.47452118341791
N           32.85465556736232       -1.40725659513148        0.10107601500075
C           34.20228377844894       -1.22751235023209        0.23579300859847
C           34.88007432869686       -0.02231034285127        0.03640997194277
C           34.20149928726573        1.18159630785905       -0.16885480674235
C           34.85604937095874        2.42224146494710       -0.43952808723808
C           33.89951707304776        3.38137531181932       -0.40966261967491
C           32.66385877143903        2.72237277027168       -0.11052627204051
C           31.47750618310644        3.38196373005568        0.17305419849045
C           31.47144900021684        4.86168507177601        0.22828173297734
C           30.64415733935286        5.59696654831429       -0.62215488502200
C           30.64429520252790        6.98274203591681       -0.57471531883992
C           31.46449514160435        7.65057548466798        0.32458325891018
C           32.28770469231463        6.92632063878200        1.17617904986245
C           32.29469174383783        5.54052611377759        1.12803122569772
C           30.29344042375337        2.69158169629761        0.40003456774938
C           29.04991193555857        3.31513302991482        0.74667812137286
C           28.09982152897224        2.35205847976099        0.68900195973205
C           28.76617151905576        1.14043803408743        0.31993932827765
N           30.11849300169974        1.34547037043295        0.20730312847244
N           32.85408151633008        1.36128375625706       -0.03153357683958
C           31.48366822842927       -4.90963019423504       -0.20427064983360
C           31.29682569220748       -5.56929995833221       -1.41881606138943
C           31.29665922865890       -6.95540691314627       -1.46877698028005
C           31.47750396921118       -7.69594257056564       -0.30857458701276
C           31.66133537340408       -7.04519427211131        0.90381532277807
C           31.66719276091999       -5.65930731452750        0.95753261330376
H           27.03036567712619       -0.03232846268545       -0.00669951017483
H           27.04610308601602       -2.50967368687806       -0.83507447139933
H           28.94115728663363       -4.43007216865047       -0.91773892142667
H           34.02607948736874       -4.49855788325568        0.53800926855405
H           35.92084034473074       -2.58314534307425        0.64080445995596
H           35.91211481070533        2.53036081828716       -0.62673223863289
H           34.00946451581164        4.44078217887458       -0.57471577862085
H           30.01318800004580        5.07743352089512       -1.33473365053068
H           30.00188537648570        7.54389445223664       -1.24428488081246
H           31.46224899587567        8.73405370170005        0.36153563564376
H           32.92782461186768        7.44321743266114        1.88255608310363
H           32.92882063775726        4.97615948526462        1.80269741885699
H           28.93301111638606        4.35704954956871        0.99723643967181
H           27.03986855176923        2.43595367976345        0.86926776746031
H           31.16625326860612       -4.99150879676257       -2.32699674183977
H           31.15559436336215       -7.45937666034854       -2.41850958961739
H           31.47516171096535       -8.77929990656455       -0.34917676480742
H           31.80016495917258       -7.61934807400542        1.81319257926066
H           31.80020227763307       -5.15149662343885        1.90628945698376
Co          53.13006888374942        0.06486652290034        0.02722534073810
C           56.50362549335321        0.06413487483557        0.03523045646564
C           55.84993435195552        1.24533872964186       -0.24360702101515
C           56.51925033744782        2.47785849935773       -0.52947348205757
C           55.56847410918867        3.44123240068981       -0.54403763885613
C           54.31811025298394        2.79484846048689       -0.27070443466127
N           54.49593809448238        1.44146677264105       -0.13718401288273
C           53.13778623167688        3.47199105587700        0.00559601213148
C           51.95655613857112        2.80475271173225        0.28868087723201
C           50.71453148491201        3.45982222034451        0.57068073927616
C           49.75923010071210        2.49972826743352        0.57903019368685
N           51.76509139446459        1.44658140468962        0.16761289414112
C           50.41695047351569        1.26386622354572        0.29335055820916
C           49.73727945018252        0.06889928233250        0.04511110717027
C           50.41379827567636       -1.12598506791956       -0.21300588658506
C           49.75719251536018       -2.35153465452007       -0.54133632054802
C           50.71221790183930       -3.31250150364752       -0.55682118859943
C           51.94872669614854       -2.67043402757280       -0.22593014733635
C           53.13277156164451       -3.34497177810330        0.03066062595009
C           53.13592167348857       -4.82567154521761        0.01848710386906
C           53.96682799485363       -5.52348504631660       -0.85953500791960
C           53.96470663697027       -6.91000756273927       -0.87397881349283
C           53.13889966099607       -7.61612369234583       -0.00973319020913
C           52.31203120199780       -6.92938915525510        0.86896278194742
C           52.30705201999951       -5.54283067554733        0.88267157724464
C           54.31679443271526       -2.66834944959147        0.29628768647952
C           55.55655070241508       -3.30987813586216        0.62300096273303
C           56.50832141235326       -2.34675105133403        0.61963853668370
C           55.84681845632430       -1.11788512814840        0.30254083847740
N           54.49523465425499       -1.31503999549287        0.16854927938644
N           51.76079970918506       -1.31408910041508       -0.08374497882227
C           53.14450524437266        4.95566801774599        0.00893205298376
C           53.34158143185010        5.66414025946102       -1.17613943931237
C           53.34563236657298        7.05113397661598       -1.16904070517843
C           53.15855624066306        7.74389338039736        0.01934970628145
C           52.96457950222268        7.04441221765486        1.20267130686605
C           52.95482628315276        5.65752774701500        1.19929738880773
H           57.58724807193862        0.06534009603718        0.04610869354135
H           57.58308854056001        2.57519523593771       -0.67718153164932
H           55.69130634470897        4.50049319476035       -0.70160959370644
H           50.59736726406270        4.52065504121511        0.72074058812194
H           48.69979936364867        2.60560619372136        0.74756984813651
H           48.70101972675307       -2.44893468514405       -0.73379095140611
H           50.60066609063254       -4.36271545921800       -0.77193573193220
H           54.60234240712173       -4.97362635307764       -1.54479530370204
H           54.61009954854241       -7.44168941711752       -1.56440467545536
H           53.13969397351683       -8.70017375303698       -0.02107918778469
H           51.66745063377925       -7.47631248658470        1.54813650509501
H           51.67026539327520       -5.00822466547300        1.57873457410274
H           55.66998311186954       -4.36273508125142        0.82462479864862
H           57.56656335520661       -2.44093093318484        0.80479939123333
H           53.47709308252711        5.12379839468313       -2.10638176450716
H           53.49479479675436        7.59332642552878       -2.09622403223112
H           53.16423391128380        8.82799096167923        0.02338689134295
H           52.82099793094580        7.58107782126772        2.13394413608970
H           52.81400865278795        5.11153668323512        2.12545953526392
C           36.28555371819944       -0.01980783142624        0.03681394114507
C           37.50304332216479       -0.01405103782110        0.03551898202019
C           47.11430117378642        0.06416955854990        0.04851051251430
C           48.33180386523382        0.06809650724882        0.04691984815488
Co          42.30863296875297        0.02471154503043        0.07165793092044
C           38.90805987718102       -0.00322500432678        0.03293707380660
C           39.59515471966701       -1.18956377200995       -0.23716350685479
C           38.94037033747819       -2.42346115050143       -0.53534607417285
C           39.90416138878132       -3.37441572114703       -0.57582478083694
C           41.14565646642727       -2.71424704152090       -0.30749805899275
N           40.94756099996391       -1.36126575662053       -0.14928602441915
C           42.33788041887343       -3.38087622580474       -0.06762805058420
C           43.51814369904552       -2.70922569862289        0.21732762235071
C           44.76720437219434       -3.35985679348123        0.47162975129477
C           45.71294379320737       -2.39000945703210        0.50157374202350
N           43.69469841884808       -1.34807743760488        0.12283343411230
C           45.04038493943877       -1.15483817352243        0.25383626734782
C           45.70930103077328        0.05418182874540        0.04360642858173
C           45.02299428491527        1.25103688333693       -0.17739740408821
C           45.67843929728653        2.49649551253759       -0.42109020589041
C           44.71468515017946        3.44833217314862       -0.42349740141198
C           43.47260229968152        2.77730338114220       -0.18670309895006
C           42.27971109157100        3.43313114291458        0.07797633020802
C           42.26763905682373        4.91631842915823        0.09766087562510
C           42.03660754590044        5.60457604216365        1.28867985723059
C           42.02856801317692        6.99139565756411        1.30434125597467
C           42.24613924629057        7.70416333797228        0.13311949848409
C           42.47476924366556        7.02488978603926       -1.05576840818005
C           42.48822977782812        5.63819610419452       -1.07531296555202
C           41.09862615597736        2.75010657036211        0.33032440074320
C           39.84887682408396        3.38961224911338        0.60829437182292
C           38.90292437979047        2.41961922202332        0.59353695270086
C           39.57616060785414        1.19595966463670        0.29550090103547
N           40.92227537239242        1.39429775439972        0.17709412004660
N           43.67036009551466        1.41883070318590       -0.08572215384221
C           42.35042825741805       -4.86348672441344       -0.11078716156772
C           42.12921669542104       -5.53562381031057       -1.31288847291180
C           42.14402777333988       -6.92190859871545       -1.35173132055973
C           42.37490823174926       -7.65043757369170       -0.19279453485686
C           42.59306019279124       -6.98738755190559        1.00720594583979
C           42.58336214589508       -5.60117840211894        1.04997450426299
H           37.87802885097907       -2.53489872916205       -0.67963497675648
H           39.79232032180175       -4.43236220593515       -0.74795037897104
H           44.89694985737852       -4.42280763745291        0.59270917721459
H           46.77408455651265       -2.48919649586456        0.66279632766772
H           46.74113155292062        2.61395334658984       -0.55778763871625
H           44.82673920957958        4.51265082894423       -0.55028627307080
H           41.87862492693431        5.04861243731869        2.20608642907545
H           41.85247752863284        7.51756457385594        2.23602045161929
H           42.23787383049978        8.78813299785884        0.14695371928549
H           42.64306718587922        7.57725079634663       -1.97360471446799
H           42.65561094209113        5.10806313831283       -2.00624198991562
H           39.71914968166057        4.44644020340428        0.77461766461439
H           37.84124215260613        2.51215085982777        0.75521015152762
H           41.96038180221068       -4.96705722859304       -2.22057324388623
H           41.97507349208976       -7.43531909158156       -2.29178706691774
H           42.38455404383704       -8.73401244246442       -0.22468101816198
H           42.77106071007984       -7.55209425292447        1.91567133563392
H           42.74166726778013       -5.08419842431486        1.98984149194158

          :  Hamiltonian                  GFN1-xTB          :
         :: total energy            -290.313676531231 Eh    ::
         :: gradient norm              0.000233106980 Eh/a0 ::
         :: HOMO-LUMO gap              0.013257818786 eV    ::
         :: SCC energy              -295.015217517662 Eh    ::
         :: repulsion energy           4.861480189673 Eh    ::

    * Orbital Energies and Occupations

         #    Occupation            Energy/Eh            Energy/eV
      -------------------------------------------------------------
         1        2.0000           -0.7724599             -21.0197
       ...           ...                  ...                  ...
       260        2.0000           -0.3934966             -10.7076
       261        2.0000           -0.3933147             -10.7026
       262        2.0000           -0.3932976             -10.7022
       263        2.0000           -0.3915392             -10.6543
       264        1.9999           -0.3906961             -10.6314
       265        1.9999           -0.3904059             -10.6235
       266        1.9998           -0.3901373             -10.6162
       267        1.9998           -0.3901327             -10.6161
       268        1.9998           -0.3900804             -10.6146
       269        1.9998           -0.3900766             -10.6145
       270        1.7971           -0.3833599             -10.4318
       271        1.1457           -0.3814498             -10.3798
       272        1.1450           -0.3814482             -10.3797 (HOMO)
       273        0.9133           -0.3809610             -10.3665 (LUMO)
       274                         -0.3426261              -9.3233
       275                         -0.3305555              -8.9949
       276                         -0.3290058              -8.9527
       277                         -0.3268443              -8.8939
       278                         -0.3268390              -8.8937
       279                         -0.3204184              -8.7190
       280                         -0.3003030              -8.1717
       281                         -0.2949997              -8.0274
       282                         -0.2918780              -7.9424
       283                         -0.2917586              -7.9392
       ...                                ...                  ...
       587                          1.3392936              36.4440
      -------------------------------------------------------------
                  HL-Gap            0.0004872 Eh            0.0133 eV

Wiberg/Mayer (AO) data.
largest (>0.10) Wiberg bond orders for each atom

     #   Z sym  total        # sym  WBO       # sym  WBO       # sym  WBO
 ---------------------------------------------------------------------------
     1  27 Co   3.024 --     7 N    0.635    30 N    0.635    12 N    0.631
                            31 N    0.630
     2   6 C    3.925 --     3 C    1.365    29 C    1.364    38 H    0.970
     3   6 C    3.925 --     2 C    1.365     7 N    1.202     4 C    1.174
     4   6 C    3.960 --     5 C    1.650     3 C    1.174    39 H    0.975
     5   6 C    3.963 --     4 C    1.650     6 C    1.176    40 H    0.973
     6   6 C    3.920 --     8 C    1.319     7 N    1.213     5 C    1.176
     7   7 N    3.344 --     6 C    1.213     3 C    1.202     1 Co   0.635
     8   6 C    3.929 --     9 C    1.337     6 C    1.319    32 C    1.020
     9   6 C    3.918 --     8 C    1.337    12 N    1.192    10 C    1.180
    10   6 C    3.958 --    11 C    1.639     9 C    1.180    41 H    0.973
    11   6 C    3.963 --    10 C    1.639    13 C    1.189    42 H    0.971
    12   7 N    3.344 --    13 C    1.233     9 C    1.192     1 Co   0.631
    13   6 C    3.909 --    14 C    1.261    12 N    1.233    11 C    1.189
    14   6 C    3.929 --    13 C    1.261    15 C    1.260   113 C    1.183
    15   6 C    3.909 --    14 C    1.260    31 N    1.233    16 C    1.190
    16   6 C    3.962 --    17 C    1.636    15 C    1.190    43 H    0.971
    17   6 C    3.958 --    16 C    1.636    18 C    1.182    44 H    0.973
    18   6 C    3.919 --    19 C    1.332    31 N    1.193    17 C    1.182
    19   6 C    3.929 --    18 C    1.332    26 C    1.315    20 C    1.031
    20   6 C    3.988 --    25 C    1.393    21 C    1.393    19 C    1.031
                            23 C    0.107
    21   6 C    3.987 --    22 C    1.448    20 C    1.393    45 H    0.973
                            24 C    0.109
    22   6 C    3.995 --    21 C    1.448    23 C    1.437    46 H    0.973
                            25 C    0.109
    23   6 C    3.989 --    24 C    1.437    22 C    1.437    47 H    0.974
                            20 C    0.107
    24   6 C    3.995 --    25 C    1.448    23 C    1.437    48 H    0.973
                            21 C    0.109
    25   6 C    3.987 --    24 C    1.448    20 C    1.393    49 H    0.973
                            22 C    0.109
    26   6 C    3.920 --    19 C    1.315    30 N    1.215    27 C    1.177
    27   6 C    3.963 --    28 C    1.647    26 C    1.177    50 H    0.973
    28   6 C    3.959 --    27 C    1.647    29 C    1.175    51 H    0.975
    29   6 C    3.925 --     2 C    1.364    30 N    1.201    28 C    1.175
    30   7 N    3.343 --    26 C    1.215    29 C    1.201     1 Co   0.635
    31   7 N    3.344 --    15 C    1.233    18 C    1.193     1 Co   0.630
    32   6 C    3.988 --    33 C    1.398    37 C    1.398     8 C    1.020
                            35 C    0.109
    33   6 C    3.988 --    34 C    1.446    32 C    1.398    52 H    0.973
                            36 C    0.110
    34   6 C    3.995 --    33 C    1.446    35 C    1.438    53 H    0.973
                            37 C    0.110
    35   6 C    3.991 --    34 C    1.438    36 C    1.438    54 H    0.974
                            32 C    0.109
    36   6 C    3.995 --    37 C    1.446    35 C    1.438    55 H    0.973
                            33 C    0.110
    37   6 C    3.988 --    36 C    1.446    32 C    1.398    56 H    0.973
                            34 C    0.110
    38   1 H    1.000 --     2 C    0.970
    39   1 H    0.998 --     4 C    0.975
    40   1 H    1.004 --     5 C    0.973
    41   1 H    1.004 --    10 C    0.973
    42   1 H    1.004 --    11 C    0.971
    43   1 H    1.004 --    16 C    0.971
    44   1 H    1.004 --    17 C    0.973
    45   1 H    1.005 --    21 C    0.973
    46   1 H    1.003 --    22 C    0.973
    47   1 H    1.003 --    23 C    0.974
    48   1 H    1.003 --    24 C    0.973
    49   1 H    1.005 --    25 C    0.973
    50   1 H    1.004 --    27 C    0.973
    51   1 H    0.998 --    28 C    0.975
    52   1 H    1.004 --    33 C    0.973
    53   1 H    1.003 --    34 C    0.973
    54   1 H    1.003 --    35 C    0.974
    55   1 H    1.003 --    36 C    0.973
    56   1 H    1.004 --    37 C    0.973
    57  27 Co   3.023 --    63 N    0.635    86 N    0.635    68 N    0.631
                            87 N    0.630
    58   6 C    3.925 --    59 C    1.365    85 C    1.365    94 H    0.970
    59   6 C    3.925 --    58 C    1.365    63 N    1.202    60 C    1.174
    60   6 C    3.960 --    61 C    1.650    59 C    1.174    95 H    0.975
    61   6 C    3.963 --    60 C    1.650    62 C    1.176    96 H    0.973
    62   6 C    3.920 --    64 C    1.319    63 N    1.213    61 C    1.176
    63   7 N    3.344 --    62 C    1.213    59 C    1.202    57 Co   0.635
    64   6 C    3.929 --    65 C    1.337    62 C    1.319    88 C    1.020
    65   6 C    3.918 --    64 C    1.337    68 N    1.192    66 C    1.180
    66   6 C    3.958 --    67 C    1.639    65 C    1.180    97 H    0.973
    67   6 C    3.963 --    66 C    1.639    69 C    1.189    98 H    0.971
    68   7 N    3.344 --    69 C    1.233    65 C    1.192    57 Co   0.631
    69   6 C    3.909 --    70 C    1.261    68 N    1.233    67 C    1.189
    70   6 C    3.929 --    69 C    1.261    71 C    1.260   116 C    1.183
    71   6 C    3.909 --    70 C    1.260    87 N    1.233    72 C    1.190
    72   6 C    3.962 --    73 C    1.636    71 C    1.190    99 H    0.971
    73   6 C    3.958 --    72 C    1.636    74 C    1.181   100 H    0.973
    74   6 C    3.919 --    75 C    1.333    87 N    1.193    73 C    1.181
    75   6 C    3.929 --    74 C    1.333    82 C    1.315    76 C    1.031
    76   6 C    3.988 --    81 C    1.393    77 C    1.393    75 C    1.031
                            79 C    0.107
    77   6 C    3.987 --    78 C    1.448    76 C    1.393   101 H    0.973
                            80 C    0.109
    78   6 C    3.995 --    77 C    1.448    79 C    1.437   102 H    0.973
                            81 C    0.109
    79   6 C    3.989 --    80 C    1.437    78 C    1.437   103 H    0.974
                            76 C    0.107
    80   6 C    3.995 --    81 C    1.448    79 C    1.437   104 H    0.973
                            77 C    0.109
    81   6 C    3.987 --    80 C    1.448    76 C    1.393   105 H    0.973
                            78 C    0.109
    82   6 C    3.920 --    75 C    1.315    86 N    1.215    83 C    1.177
    83   6 C    3.963 --    84 C    1.647    82 C    1.177   106 H    0.973
    84   6 C    3.959 --    83 C    1.647    85 C    1.175   107 H    0.975
    85   6 C    3.925 --    58 C    1.365    86 N    1.201    84 C    1.175
    86   7 N    3.343 --    82 C    1.215    85 C    1.201    57 Co   0.635
    87   7 N    3.344 --    71 C    1.233    74 C    1.193    57 Co   0.630
    88   6 C    3.988 --    89 C    1.398    93 C    1.398    64 C    1.020
                            91 C    0.109
    89   6 C    3.988 --    90 C    1.446    88 C    1.398   108 H    0.973
                            92 C    0.110
    90   6 C    3.995 --    89 C    1.446    91 C    1.438   109 H    0.973
                            93 C    0.110
    91   6 C    3.991 --    90 C    1.438    92 C    1.438   110 H    0.974
                            88 C    0.109
    92   6 C    3.995 --    93 C    1.446    91 C    1.438   111 H    0.973
                            89 C    0.110
    93   6 C    3.988 --    92 C    1.446    88 C    1.398   112 H    0.973
                            90 C    0.110
    94   1 H    1.000 --    58 C    0.970
    95   1 H    0.998 --    60 C    0.975
    96   1 H    1.004 --    61 C    0.973
    97   1 H    1.004 --    66 C    0.973
    98   1 H    1.004 --    67 C    0.971
    99   1 H    1.004 --    72 C    0.971
   100   1 H    1.004 --    73 C    0.973
   101   1 H    1.005 --    77 C    0.973
   102   1 H    1.003 --    78 C    0.973
   103   1 H    1.003 --    79 C    0.974
   104   1 H    1.003 --    80 C    0.973
   105   1 H    1.005 --    81 C    0.973
   106   1 H    1.004 --    83 C    0.973
   107   1 H    0.998 --    84 C    0.975
   108   1 H    1.004 --    89 C    0.973
   109   1 H    1.003 --    90 C    0.973
   110   1 H    1.003 --    91 C    0.974
   111   1 H    1.003 --    92 C    0.973
   112   1 H    1.004 --    93 C    0.973
   113   6 C    3.922 --   114 C    2.563    14 C    1.183
   114   6 C    3.931 --   113 C    2.563   118 C    1.186
   115   6 C    3.931 --   116 C    2.563   130 C    1.186
   116   6 C    3.922 --   115 C    2.563    70 C    1.183
   117  27 Co   3.046 --   123 N    0.629   147 N    0.629   128 N    0.625
                           146 N    0.625
   118   6 C    3.920 --   119 C    1.258   145 C    1.257   114 C    1.186
   119   6 C    3.911 --   118 C    1.258   123 N    1.237   120 C    1.191
   120   6 C    3.961 --   121 C    1.635   119 C    1.191   154 H    0.971
   121   6 C    3.960 --   120 C    1.635   122 C    1.183   155 H    0.973
   122   6 C    3.916 --   124 C    1.328   123 N    1.196   121 C    1.183
   123   7 N    3.338 --   119 C    1.237   122 C    1.196   117 Co   0.629
   124   6 C    3.925 --   122 C    1.328   125 C    1.324   148 C    1.021
   125   6 C    3.915 --   124 C    1.324   128 N    1.198   126 C    1.185
   126   6 C    3.960 --   127 C    1.633   125 C    1.185   156 H    0.973
   127   6 C    3.961 --   126 C    1.633   129 C    1.192   157 H    0.971
   128   7 N    3.340 --   129 C    1.236   125 C    1.198   117 Co   0.625
   129   6 C    3.911 --   130 C    1.257   128 N    1.236   127 C    1.192
   130   6 C    3.920 --   131 C    1.258   129 C    1.257   115 C    1.186
   131   6 C    3.911 --   130 C    1.258   147 N    1.237   132 C    1.191
   132   6 C    3.961 --   133 C    1.635   131 C    1.191   158 H    0.971
   133   6 C    3.960 --   132 C    1.635   134 C    1.183   159 H    0.973
   134   6 C    3.916 --   135 C    1.328   147 N    1.196   133 C    1.183
   135   6 C    3.925 --   134 C    1.328   142 C    1.324   136 C    1.021
   136   6 C    3.988 --   137 C    1.397   141 C    1.397   135 C    1.021
                           139 C    0.109
   137   6 C    3.988 --   138 C    1.446   136 C    1.397   160 H    0.973
                           140 C    0.110
   138   6 C    3.995 --   137 C    1.446   139 C    1.438   161 H    0.973
                           141 C    0.110
   139   6 C    3.991 --   138 C    1.438   140 C    1.438   162 H    0.974
                           136 C    0.109
   140   6 C    3.995 --   141 C    1.446   139 C    1.438   163 H    0.973
                           137 C    0.110
   141   6 C    3.988 --   140 C    1.446   136 C    1.397   164 H    0.973
                           138 C    0.110
   142   6 C    3.915 --   135 C    1.324   146 N    1.198   143 C    1.185
   143   6 C    3.960 --   144 C    1.633   142 C    1.185   165 H    0.973
   144   6 C    3.961 --   143 C    1.633   145 C    1.192   166 H    0.971
   145   6 C    3.911 --   118 C    1.257   146 N    1.236   144 C    1.192
   146   7 N    3.340 --   145 C    1.236   142 C    1.198   117 Co   0.625
   147   7 N    3.338 --   131 C    1.237   134 C    1.196   117 Co   0.629
   148   6 C    3.988 --   149 C    1.397   153 C    1.397   124 C    1.021
                           151 C    0.108
   149   6 C    3.988 --   150 C    1.446   148 C    1.397   167 H    0.973
                           152 C    0.110
   150   6 C    3.995 --   149 C    1.446   151 C    1.438   168 H    0.973
                           153 C    0.110
   151   6 C    3.991 --   150 C    1.438   152 C    1.438   169 H    0.974
                           148 C    0.108
   152   6 C    3.995 --   153 C    1.446   151 C    1.438   170 H    0.973
                           149 C    0.110
   153   6 C    3.988 --   152 C    1.446   148 C    1.397   171 H    0.973
                           150 C    0.110
   154   1 H    1.004 --   120 C    0.971
   155   1 H    1.004 --   121 C    0.973
   156   1 H    1.005 --   126 C    0.973
   157   1 H    1.004 --   127 C    0.971
   158   1 H    1.004 --   132 C    0.971
   159   1 H    1.004 --   133 C    0.973
   160   1 H    1.004 --   137 C    0.973
   161   1 H    1.002 --   138 C    0.973
   162   1 H    1.003 --   139 C    0.974
   163   1 H    1.002 --   140 C    0.973
   164   1 H    1.004 --   141 C    0.973
   165   1 H    1.005 --   143 C    0.973
   166   1 H    1.004 --   144 C    0.971
   167   1 H    1.004 --   149 C    0.973
   168   1 H    1.002 --   150 C    0.973
   169   1 H    1.003 --   151 C    0.974
   170   1 H    1.002 --   152 C    0.973
   171   1 H    1.004 --   153 C    0.973
 ---------------------------------------------------------------------------

           -------------------------------------------------
          | TOTAL ENERGY             -290.313676531231 Eh   |
          | GRADIENT NORM               0.000233106980 Eh/α |
          | HOMO-LUMO GAP               0.013257818786 eV   |
           -------------------------------------------------

 * finished run on 2022/07/30 at 01:05:46.368
