   * xtb version 6.5.1 (b24c23e) compiled by 'conda@728c89f4b128' on 2022-07-12
          program call               : xtb Fe_PhNO2_C2_2.xyz --gfn 1 --opt -T 48

   ID    Z sym.   atoms
    1   26 Fe     1, 61
    2    6 C      2-6, 8-12, 16-20, 22-27, 29-33, 37-42, 62-66, 68-72, 76-80,
                  82-87, 89-93, 97-102, 121, 122
    3    7 N      7, 13, 21, 28, 34, 43, 67, 73, 81, 88, 94, 103
    4    8 O      14, 15, 35, 36, 74, 75, 95, 96
    5    1 H      44-60, 104-120
########################################################################
[WARNING] Please study the warnings concerning your input carefully
-1- prog_main_parseArguments: Unknown option '-T' provided
########################################################################

          :  Hamiltonian                  GFN1-xTB          :
 * total energy  :  -238.9408620 Eh     change        0.7931789E-08 Eh
 * total energy  :  -239.1243508 Eh     change       -0.1834889E+00 Eh
 * total energy  :  -239.2090152 Eh     change       -0.8466435E-01 Eh
 * total energy  :  -239.2293220 Eh     change       -0.2030678E-01 Eh
 * total energy  :  -239.2399195 Eh     change       -0.1059759E-01 Eh
 * total energy  :  -239.2428573 Eh     change       -0.2937763E-02 Eh
 * total energy  :  -239.2462411 Eh     change       -0.3383749E-02 Eh
 * total energy  :  -239.2476983 Eh     change       -0.1457239E-02 Eh
 * total energy  :  -239.2490145 Eh     change       -0.1316235E-02 Eh
 * total energy  :  -239.2494849 Eh     change       -0.4703181E-03 Eh
 * total energy  :  -239.2514875 Eh     change       -0.1042696E-04 Eh
 * total energy  :  -239.2514969 Eh     change       -0.9422349E-05 Eh
 * total energy  :  -239.2515032 Eh     change       -0.6330710E-05 Eh
 * total energy  :  -239.2515116 Eh     change       -0.8377150E-05 Eh
 * total energy  :  -239.2515177 Eh     change       -0.6089782E-05 Eh
 * total energy  :  -239.2515238 Eh     change       -0.6078921E-05 Eh
 * total energy  :  -239.2515316 Eh     change       -0.7856249E-05 Eh
 * total energy  :  -239.2515387 Eh     change       -0.7059536E-05 Eh
 * total energy  :  -239.2515400 Eh     change       -0.1317747E-05 Eh
   *** GEOMETRY OPTIMIZATION CONVERGED AFTER 44 ITERATIONS ***

 final structure:
================
122
 xtb: 6.5.1 (b24c23e)
Fe          17.24198315527564       -0.06883189782132        0.01026560777239
C           13.85853445661630       -0.07803230574862       -0.13946669656043
C           14.51097721942044       -1.29405455545824       -0.13845482625123
C           13.84232812571623       -2.56021335198751       -0.14196122266111
C           14.80245518122431       -3.50570018627030       -0.27280063917944
C           16.05597154155889       -2.81339580171993       -0.36436648789946
N           15.86715117043744       -1.46465280648074       -0.23458845067908
C           17.27430992812464       -3.42969506430738       -0.63137493222728
C           17.28393327285916       -4.88611062320942       -0.89477380425799
C           18.00979489690938       -5.74993671340334       -0.06942116492412
C           18.00833529850601       -7.11284756443820       -0.30529904480527
C           17.28078045067819       -7.61494231312980       -1.38033343805798
N           17.27311263981720       -9.04630518656601       -1.63082150788973
O           16.62950745642084       -9.44423195124990       -2.56732928128961
O           17.90824254801019       -9.74562410106120       -0.88452316386439
C           16.55791794375420       -6.77106741179733       -2.21850922448934
C           16.56026659336048       -5.41068533003823       -1.97004488412790
C           18.47763348689167       -2.73703730417852       -0.66805624393598
C           19.73665884462943       -3.32938026720285       -1.00899701409363
C           20.67979217218408       -2.37485691265368       -0.82105019570509
N           18.64861582240903       -1.41584787846308       -0.33250326371867
C           19.99594967420109       -1.20334261358961       -0.37097255977115
C           20.65014349170011       -0.03960657939370        0.05020921393090
C           19.96114919385530        1.11108270274508        0.45311720976304
C           20.60567874534837        2.28249334858328        0.95729311922365
C           19.64199960950918        3.22296512068469        1.11038343341728
C           18.41050178589081        2.62244372291441        0.69232593851454
N           18.61697241872103        1.31176593319047        0.33687075813029
C           17.20222433361801        3.30128457391164        0.59892008045173
C           17.18269229545879        4.75399163293360        0.88043510812893
C           16.39236506075548        5.26206552257953        1.91586817456927
C           16.37063452688615        6.61903254315145        2.18198428726782
C           17.14142488147112        7.47603518253999        1.40184257096154
N           17.11785494815017        8.90326199022312        1.67360884715195
O           16.41590380755232        9.28730183889559        2.57326008704897
O           17.79914539829231        9.61345066928157        0.98015370764517
C           17.93369339407771        6.99071979772427        0.36552154699588
C           17.95338087934085        5.63136282399662        0.11160655162158
C           16.00895116290241        2.67467720210662        0.25398692192607
C           14.75539961633501        3.35512502693232        0.09663603023475
C           13.81681672934486        2.40224037739473       -0.11193469781632
C           14.49870786127336        1.14316228125820       -0.09235695616448
N           15.84611088121871        1.32739169183122        0.07975331354554
H           12.77510766518806       -0.08257353480829       -0.17429535167971
H           12.77543521221635       -2.68906236763247       -0.05420260548744
H           14.68519043827299       -4.57676856234146       -0.30228800959014
H           18.56175179415647       -5.34737704886591        0.77187820399635
H           18.55998065218254       -7.79188053550221        0.33368008166962
H           16.00433069716968       -7.18669273663040       -3.05184291028155
H           16.00974995154925       -4.74127134534002       -2.62061767737771
H           19.87144958525437       -4.34224178581413       -1.35179234349835
H           21.74449614648929       -2.44480837618531       -0.97228291530085
H           21.65934736891809        2.36108131737002        1.16950966772887
H           19.74557502979415        4.22972399239994        1.48090962893471
H           15.80566472007394        4.58270061833458        2.52307255396563
H           15.76608861683652        7.02195904431130        2.98563459887262
H           18.52158065289912        7.67959193004085       -0.22906179540750
H           18.55649128358300        5.24157864444533       -0.70007988372960
H           14.62368005340061        4.42405048647622        0.13913892819328
H           12.75571326009442        2.52083996919657       -0.26214526159917
Fe          28.08615060978547        0.05996038043422        0.03533452287245
C           31.46960561426120        0.12462451931076       -0.10000365799696
C           30.81715953285761        1.25158120790720        0.35680554145998
C           31.48582034362845        2.42671648574394        0.82820174034715
C           30.52569512780003        3.35228607276417        1.06141380366159
C           29.27216851467524        2.74478660672907        0.71704807409582
N           29.46098306898584        1.44576725766631        0.33168376229860
C           28.05381819012591        3.41621545652446        0.70070179014052
C           28.04416642232734        4.86514158783124        1.00259805845276
C           27.31844572327768        5.35643759233488        2.09174321190039
C           27.31987479436764        6.70835635156015        2.38410322899729
C           28.04727803418093        7.57694256242072        1.57566201360411
N           28.05522610744722        8.99773980140512        1.88037950402988
O           28.69849652602933        9.71783669298749        1.16115112033177
O           27.41958681620995        9.36630201550594        2.83405708540087
C           28.76991269183014        7.10896361805094        0.48205292491852
C           28.76762500907259        5.75466361739676        0.20233034969380
C           26.85047924410556        2.78782811770893        0.40708562023328
C           25.59144055238693        3.46478394535699        0.31324030792616
C           24.64831105010800        2.50943080610490        0.12954820621583
N           26.67950521710841        1.43722002889197        0.22270398312040
C           25.33216835814844        1.25463875463141        0.10740183443893
C           24.67797659222973        0.01788557081275        0.06141123609572
C           25.36696817255041       -1.19992137464780        0.00338587207265
C           24.72242237224887       -2.47490617000010        0.03145511319828
C           25.68610181500163       -3.40416540578586       -0.17925422499514
C           26.91761373401624       -2.69070763057865       -0.34154693299845
N           26.71115007008986       -1.34237648762311       -0.17958311853111
C           28.12590260011980       -3.28500818584060       -0.68260869276084
C           28.14542403182325       -4.73728306062307       -0.96635157198535
C           28.93563174552648       -5.59656758714071       -0.19688565197577
C           28.95733943647918       -6.95431364375923       -0.45899771677584
C           28.18677228588297       -7.45621276478590       -1.50375420308492
N           28.21099692421140       -8.88108650602911       -1.78753595303136
O           28.91156381873880       -9.57469791611084       -1.09637182234776
O           27.52850649659758       -9.27965725496448       -2.69569270545901
C           27.39447723667917       -6.61771739688607       -2.28245684519387
C           27.37481037844607       -5.26233044609482       -2.00813765711325
C           29.31918985392861       -2.57479797535534       -0.76735676511730
C           30.57275323367002       -3.14662999075585       -1.16829019712308
C           31.51133973526447       -2.18506689655458       -1.00433972545257
C           30.82943835702419       -1.02516525440152       -0.51416047451241
N           29.48202860766822       -1.26046989269401       -0.42373004680389
H           32.55303258067055        0.14189649015237       -0.13058697578867
H           32.55271970447849        2.51327319161928        0.95781220060647
H           30.64296047437481        4.35629387137859        1.43561487174177
H           26.76657518663739        4.66776996470788        2.72077086226859
H           26.76828099565390        7.09823954535221        3.23111671879590
H           29.32342501097866        7.80675726017005       -0.13468192061329
H           29.31805503304149        5.37804940226488       -0.65184744092249
H           25.45663720208339        4.53227556027115        0.37532513050651
H           23.58360063034164        2.63098100320109        0.01563695795342
H           23.66874419533773       -2.62732986369544        0.19866278914595
H           25.58251496139080       -4.47640186334693       -0.21330780705877
H           29.52227517530998       -5.19446888268549        0.62080410730496
H           29.56186500709215       -7.62919568149425        0.13494107325455
H           26.80672034917194       -7.03334864716641       -3.09207268513061
H           26.77179202364579       -4.59660727309565       -2.61451278631809
H           30.70447408647025       -4.15351829853693       -1.52965389772143
H           32.57245151016299       -2.23870798165061       -1.18800911152902
C           22.05497575246574       -0.02418795697504        0.06806287168823
C           23.27314404499809       -0.00310302209986        0.07216938225192

          :  Hamiltonian                  GFN1-xTB          :
         :: total energy            -239.251540009437 Eh    ::
         :: gradient norm              0.000602317820 Eh/a0 ::
         :: HOMO-LUMO gap              0.098129929712 eV    ::
         :: SCC energy              -242.476450512150 Eh    ::
         :: repulsion energy           3.337959812473 Eh    ::

    * Orbital Energies and Occupations

         #    Occupation            Energy/Eh            Energy/eV
      -------------------------------------------------------------
         1        2.0000           -0.9251491             -25.1746
       ...           ...                  ...                  ...
       199        2.0000           -0.4558118             -12.4033
       200        2.0000           -0.4533556             -12.3364
       201        2.0000           -0.4533412             -12.3360
       202        2.0000           -0.4273693             -11.6293
       203        2.0000           -0.4234389             -11.5224
       204        2.0000           -0.4234345             -11.5222
       205        1.9927           -0.4164885             -11.3332
       206        1.9922           -0.4164311             -11.3317
       207        1.9403           -0.4144705             -11.2783
       208        1.9379           -0.4144315             -11.2773
       209        1.9285           -0.4142932             -11.2735
       210        1.9283           -0.4142911             -11.2734
       211        1.7726           -0.4131142             -11.2414 (HOMO)
       212        0.2981           -0.4095079             -11.1433 (LUMO)
       213        0.2095           -0.4091246             -11.1328
       214                         -0.3655215              -9.9463
       215                         -0.3608606              -9.8195
       216                         -0.3608600              -9.8195
       217                         -0.3521673              -9.5830
       218                         -0.3521549              -9.5826
       219                         -0.3478149              -9.4645
       220                         -0.3454541              -9.4003
       221                         -0.3454413              -9.3999
       222                         -0.3272268              -8.9043
       ...                                ...                  ...
       430                          1.3085222              35.6067
      -------------------------------------------------------------
                  HL-Gap            0.0036062 Eh            0.0981 eV

Wiberg/Mayer (AO) data.
largest (>0.10) Wiberg bond orders for each atom

     #   Z sym  total        # sym  WBO       # sym  WBO       # sym  WBO
 ---------------------------------------------------------------------------
     1  26 Fe   3.183 --    43 N    0.678     7 N    0.669    21 N    0.669
                            28 N    0.661
     2   6 C    3.926 --    42 C    1.365     3 C    1.362    44 H    0.970
     3   6 C    3.921 --     2 C    1.362     7 N    1.208     4 C    1.172
     4   6 C    3.959 --     5 C    1.650     3 C    1.172    45 H    0.974
     5   6 C    3.961 --     4 C    1.650     6 C    1.173    46 H    0.973
     6   6 C    3.921 --     8 C    1.312     7 N    1.224     5 C    1.173
     7   7 N    3.381 --     6 C    1.224     3 C    1.208     1 Fe   0.669
     8   6 C    3.926 --    18 C    1.328     6 C    1.312     9 C    1.034
     9   6 C    3.985 --    10 C    1.384    17 C    1.383     8 C    1.034
    10   6 C    3.986 --    11 C    1.462     9 C    1.384    47 H    0.971
                            16 C    0.102
    11   6 C    3.987 --    10 C    1.462    12 C    1.388    48 H    0.964
                            17 C    0.102
    12   6 C    3.942 --    11 C    1.388    16 C    1.388    13 N    0.919
    13   7 N    3.866 --    15 O    1.456    14 O    1.455    12 C    0.919
    14   8 O    1.830 --    13 N    1.455    15 O    0.252
    15   8 O    1.831 --    13 N    1.456    14 O    0.252
    16   6 C    3.987 --    17 C    1.463    12 C    1.388    49 H    0.964
                            10 C    0.102
    17   6 C    3.986 --    16 C    1.463     9 C    1.383    50 H    0.971
                            11 C    0.102
    18   6 C    3.917 --     8 C    1.328    21 N    1.203    19 C    1.180
    19   6 C    3.956 --    20 C    1.637    18 C    1.180    51 H    0.973
    20   6 C    3.960 --    19 C    1.637    22 C    1.188    52 H    0.970
    21   7 N    3.383 --    22 C    1.240    18 C    1.203     1 Fe   0.669
    22   6 C    3.907 --    23 C    1.257    21 N    1.240    20 C    1.188
    23   6 C    3.927 --    22 C    1.257    24 C    1.254   121 C    1.191
    24   6 C    3.907 --    23 C    1.254    28 N    1.241    25 C    1.189
    25   6 C    3.960 --    26 C    1.635    24 C    1.189    53 H    0.970
    26   6 C    3.956 --    25 C    1.635    27 C    1.180    54 H    0.973
    27   6 C    3.917 --    29 C    1.327    28 N    1.203    26 C    1.180
    28   7 N    3.380 --    24 C    1.241    27 C    1.203     1 Fe   0.661
    29   6 C    3.926 --    27 C    1.327    39 C    1.312    30 C    1.034
    30   6 C    3.985 --    38 C    1.383    31 C    1.383    29 C    1.034
    31   6 C    3.986 --    32 C    1.463    30 C    1.383    55 H    0.971
                            37 C    0.102
    32   6 C    3.987 --    31 C    1.463    33 C    1.388    56 H    0.964
                            38 C    0.102
    33   6 C    3.942 --    37 C    1.388    32 C    1.388    34 N    0.920
    34   7 N    3.866 --    36 O    1.456    35 O    1.455    33 C    0.920
    35   8 O    1.830 --    34 N    1.455    36 O    0.252
    36   8 O    1.831 --    34 N    1.456    35 O    0.252
    37   6 C    3.987 --    38 C    1.463    33 C    1.388    57 H    0.964
                            31 C    0.102
    38   6 C    3.986 --    37 C    1.463    30 C    1.383    58 H    0.971
                            32 C    0.102
    39   6 C    3.921 --    29 C    1.312    43 N    1.225    40 C    1.173
    40   6 C    3.961 --    41 C    1.651    39 C    1.173    59 H    0.973
    41   6 C    3.959 --    40 C    1.651    42 C    1.171    60 H    0.974
    42   6 C    3.921 --     2 C    1.365    43 N    1.206    41 C    1.171
    43   7 N    3.385 --    39 C    1.225    42 C    1.206     1 Fe   0.678
    44   1 H    1.000 --     2 C    0.970
    45   1 H    0.997 --     4 C    0.974
    46   1 H    1.003 --     5 C    0.973
    47   1 H    1.003 --    10 C    0.971
    48   1 H    1.006 --    11 C    0.964
    49   1 H    1.006 --    16 C    0.964
    50   1 H    1.003 --    17 C    0.971
    51   1 H    1.003 --    19 C    0.973
    52   1 H    1.004 --    20 C    0.970
    53   1 H    1.004 --    25 C    0.970
    54   1 H    1.003 --    26 C    0.973
    55   1 H    1.003 --    31 C    0.971
    56   1 H    1.006 --    32 C    0.964
    57   1 H    1.006 --    37 C    0.964
    58   1 H    1.003 --    38 C    0.971
    59   1 H    1.003 --    40 C    0.973
    60   1 H    0.997 --    41 C    0.974
    61  26 Fe   3.183 --   103 N    0.678    67 N    0.669    81 N    0.669
                            88 N    0.661
    62   6 C    3.926 --   102 C    1.365    63 C    1.362   104 H    0.970
    63   6 C    3.921 --    62 C    1.362    67 N    1.208    64 C    1.172
    64   6 C    3.959 --    65 C    1.650    63 C    1.172   105 H    0.974
    65   6 C    3.961 --    64 C    1.650    66 C    1.173   106 H    0.973
    66   6 C    3.921 --    68 C    1.312    67 N    1.224    65 C    1.173
    67   7 N    3.381 --    66 C    1.224    63 C    1.208    61 Fe   0.669
    68   6 C    3.926 --    78 C    1.328    66 C    1.312    69 C    1.034
    69   6 C    3.985 --    70 C    1.384    77 C    1.383    68 C    1.034
    70   6 C    3.986 --    71 C    1.462    69 C    1.384   107 H    0.971
                            76 C    0.102
    71   6 C    3.987 --    70 C    1.462    72 C    1.388   108 H    0.964
                            77 C    0.102
    72   6 C    3.942 --    71 C    1.388    76 C    1.388    73 N    0.919
    73   7 N    3.866 --    75 O    1.456    74 O    1.455    72 C    0.919
    74   8 O    1.830 --    73 N    1.455    75 O    0.252
    75   8 O    1.831 --    73 N    1.456    74 O    0.252
    76   6 C    3.987 --    77 C    1.463    72 C    1.388   109 H    0.964
                            70 C    0.102
    77   6 C    3.986 --    76 C    1.463    69 C    1.383   110 H    0.971
                            71 C    0.102
    78   6 C    3.917 --    68 C    1.328    81 N    1.203    79 C    1.180
    79   6 C    3.956 --    80 C    1.637    78 C    1.180   111 H    0.973
    80   6 C    3.960 --    79 C    1.637    82 C    1.188   112 H    0.970
    81   7 N    3.383 --    82 C    1.240    78 C    1.203    61 Fe   0.669
    82   6 C    3.907 --    83 C    1.257    81 N    1.240    80 C    1.188
    83   6 C    3.927 --    82 C    1.257    84 C    1.254   122 C    1.191
    84   6 C    3.907 --    83 C    1.254    88 N    1.241    85 C    1.189
    85   6 C    3.960 --    86 C    1.635    84 C    1.189   113 H    0.970
    86   6 C    3.956 --    85 C    1.635    87 C    1.180   114 H    0.973
    87   6 C    3.917 --    89 C    1.327    88 N    1.203    86 C    1.180
    88   7 N    3.380 --    84 C    1.241    87 C    1.203    61 Fe   0.661
    89   6 C    3.926 --    87 C    1.327    99 C    1.313    90 C    1.034
    90   6 C    3.985 --    98 C    1.383    91 C    1.383    89 C    1.034
    91   6 C    3.986 --    92 C    1.463    90 C    1.383   115 H    0.971
                            97 C    0.102
    92   6 C    3.987 --    91 C    1.463    93 C    1.388   116 H    0.964
                            98 C    0.102
    93   6 C    3.942 --    97 C    1.388    92 C    1.388    94 N    0.920
    94   7 N    3.866 --    96 O    1.456    95 O    1.455    93 C    0.920
    95   8 O    1.830 --    94 N    1.455    96 O    0.252
    96   8 O    1.831 --    94 N    1.456    95 O    0.252
    97   6 C    3.987 --    98 C    1.463    93 C    1.388   117 H    0.964
                            91 C    0.102
    98   6 C    3.986 --    97 C    1.463    90 C    1.383   118 H    0.971
                            92 C    0.102
    99   6 C    3.921 --    89 C    1.313   103 N    1.225   100 C    1.173
   100   6 C    3.961 --   101 C    1.651    99 C    1.173   119 H    0.973
   101   6 C    3.959 --   100 C    1.651   102 C    1.171   120 H    0.974
   102   6 C    3.921 --    62 C    1.365   103 N    1.206   101 C    1.171
   103   7 N    3.385 --    99 C    1.225   102 C    1.206    61 Fe   0.678
   104   1 H    1.000 --    62 C    0.970
   105   1 H    0.997 --    64 C    0.974
   106   1 H    1.003 --    65 C    0.973
   107   1 H    1.003 --    70 C    0.971
   108   1 H    1.006 --    71 C    0.964
   109   1 H    1.006 --    76 C    0.964
   110   1 H    1.003 --    77 C    0.971
   111   1 H    1.003 --    79 C    0.973
   112   1 H    1.004 --    80 C    0.970
   113   1 H    1.004 --    85 C    0.970
   114   1 H    1.003 --    86 C    0.973
   115   1 H    1.003 --    91 C    0.971
   116   1 H    1.006 --    92 C    0.964
   117   1 H    1.006 --    97 C    0.964
   118   1 H    1.003 --    98 C    0.971
   119   1 H    1.003 --   100 C    0.973
   120   1 H    0.997 --   101 C    0.974
   121   6 C    3.925 --   122 C    2.555    23 C    1.191
   122   6 C    3.925 --   121 C    2.555    83 C    1.191
 ---------------------------------------------------------------------------

           -------------------------------------------------
          | TOTAL ENERGY             -239.251540009437 Eh   |
          | GRADIENT NORM               0.000602317820 Eh/α |
          | HOMO-LUMO GAP               0.098129929712 eV   |
           -------------------------------------------------

 * finished run on 2022/07/29 at 20:11:15.760
