   * xtb version 6.5.1 (b24c23e) compiled by 'conda@728c89f4b128' on 2022-07-12
          program call               : xtb Zn_DHP_C4_3.xyz --gfn 1 --opt -T 48

   ID    Z sym.   atoms
    1   30 Zn     1, 59, 125
    2    6 C      2-6, 8-11, 13-17, 19-24, 26-29, 31-36, 60-64, 66-69, 71-75,
                  77-82, 84-87, 89-94, 117-124, 126-130, 132-135, 137-141,
                  143-148, 150-153, 155-160
    3    7 N      7, 12, 18, 25, 30, 37, 65, 70, 76, 83, 88, 95, 131, 136,
                  142, 149, 154, 161
    4    1 H      38-58, 96-116, 162-181
########################################################################
[WARNING] Please study the warnings concerning your input carefully
-1- prog_main_parseArguments: Unknown option '-T' provided
########################################################################

          :  Hamiltonian                  GFN1-xTB          :
 * total energy  :  -299.2516589 Eh     change        0.1649738E-07 Eh
 * total energy  :  -299.5183820 Eh     change       -0.2667230E+00 Eh
 * total energy  :  -299.6777515 Eh     change       -0.1593696E+00 Eh
 * total energy  :  -299.7520371 Eh     change       -0.7428556E-01 Eh
 * total energy  :  -299.8051162 Eh     change       -0.5307910E-01 Eh
 * total energy  :  -299.8410208 Eh     change       -0.3590461E-01 Eh
 * total energy  :  -299.8659236 Eh     change       -0.2490277E-01 Eh
 * total energy  :  -299.8860783 Eh     change       -0.2015474E-01 Eh
 * total energy  :  -299.9054527 Eh     change       -0.1937439E-01 Eh
 * total energy  :  -299.9285687 Eh     change       -0.2311599E-01 Eh
 * total energy  :  -300.1002648 Eh     change       -0.2112609E-04 Eh
 * total energy  :  -300.1002851 Eh     change       -0.2028311E-04 Eh
 * total energy  :  -300.1003059 Eh     change       -0.2079883E-04 Eh
 * total energy  :  -300.1003269 Eh     change       -0.2098625E-04 Eh
 * total energy  :  -300.1003468 Eh     change       -0.1987844E-04 Eh
 * total energy  :  -300.1003558 Eh     change       -0.9007015E-05 Eh
 * total energy  :  -300.1003628 Eh     change       -0.7050660E-05 Eh
 * total energy  :  -300.1003681 Eh     change       -0.5243540E-05 Eh
 * total energy  :  -300.1003717 Eh     change       -0.3688216E-05 Eh
   *** GEOMETRY OPTIMIZATION CONVERGED AFTER 97 ITERATIONS ***

 final structure:
================
181
 xtb: 6.5.1 (b24c23e)
Zn          27.81154405581705        0.42316707560294        0.26776527842034
C           24.40583904701378        0.29433237824409        0.14847203801914
C           25.07157381831047       -0.92578241895407        0.14059462942174
C           24.43499255404851       -2.21267079480765        0.11080959180957
C           25.42176802068009       -3.14379907387564        0.10806443597241
C           26.67491711316949       -2.43675217714214        0.12790769953650
N           26.42619199081182       -1.09504241853163        0.15707803605321
C           27.94319339340251       -3.02941628827194        0.14127721100200
C           28.00612867633859       -4.51029995879613        0.05711168929552
C           27.54201926248920       -5.17275851449877       -1.01282935595668
C           27.58471438211926       -6.67536399794319       -1.11567122896335
N           28.51944768441549       -7.24570591848399       -0.14177032519484
C           28.80636642063781       -6.57518790597432        1.02003650281300
C           28.60972317647641       -5.25206372031962        1.15546616990757
C           29.16044376700851       -2.34345641681106        0.22091551314694
C           30.45953568376277       -2.95668142366565        0.20464621525671
C           31.37557964069053       -1.95804014971506        0.28288989313800
N           29.31249513238449       -0.98463639562063        0.29715399913899
C           30.64731727657379       -0.72441476501419        0.33709980813330
C           31.23920186058671        0.55197079981340        0.40492067069685
C           30.55093115244055        1.78042255893144        0.41577666714071
C           31.17853980555288        3.06584273958109        0.50885485603233
C           30.18740010017075        3.99338694130917        0.49420240913855
C           28.94298203370625        3.28353992677684        0.38498501968844
N           29.20141959797698        1.93951587281835        0.34570757368965
C           27.67548808247639        3.87665407897179        0.35508258126198
C           27.62282049376264        5.35980602117917        0.39228034722086
C           27.02708887568274        6.02115516843073        1.39557493330645
C           26.94604241355512        7.52523120309048        1.43798330817326
N           27.90592673398156        8.13393108435322        0.51293179977572
C           28.33630449394752        7.44628419220340       -0.59321484103610
C           28.25425495491469        6.10761497831569       -0.68635407514904
C           26.45712167156999        3.18984106316629        0.29062975178167
C           25.15589702602377        3.79945539737460        0.21253197172916
C           24.24427677137549        2.79602589657200        0.16062608870534
C           24.97626246587199        1.56107366107331        0.19358262051481
N           26.31220527755054        1.83269979390439        0.26775021710164
H           23.32146244656953        0.25363697304875        0.11113140828922
H           23.36785920175181       -2.37185133446670        0.10093052320637
H           25.31543616782716       -4.21687436754991        0.10571953313735
H           27.09617250244925       -4.65605060167959       -1.85481588016639
H           27.91534247150954       -6.97659152676738       -2.11882605070948
H           26.57354832145974       -7.09827271951325       -0.96458580653910
H           28.47147819588190       -8.25212109540666       -0.07374993906290
H           29.28242697898553       -7.17806274377518        1.78686957381991
H           28.88888703898621       -4.73055387153020        2.06004796184184
H           30.64531309397718       -4.01644470938582        0.13502224330291
H           32.45077713697618       -2.04121482719975        0.29474188394926
H           32.24213105346389        3.22910206207056        0.58204613931359
H           30.28712170981966        5.06497423940348        0.55964579522086
H           26.55604010854830        5.50150608460480        2.22187182799427
H           27.17353325743047        7.88830367576210        2.44933144505218
H           25.91981935571307        7.85957959751875        1.19448369102791
H           27.78304220385142        9.12955970381228        0.39693868674554
H           28.82393899314230        8.05693722552306       -1.34651423819018
H           28.64509455667579        5.57740899175441       -1.54329015441135
H           24.96864249517776        4.86109755018217        0.18873518335776
H           23.17003886835134        2.87375150898239        0.09593865166446
Zn          54.75938812601441        0.32237066909414        0.24838899378740
C           58.16631755224708        0.34967386807573        0.10896157429095
C           57.54608765520886        1.57652169177127        0.31429064820579
C           58.22973917883949        2.82567648328974        0.50007050793913
C           57.27806319980175        3.77835320792587        0.66561577933867
C           55.99963339696642        3.12458566382835        0.57113783573857
N           56.19874976546831        1.78930146124015        0.36970917476811
C           54.75354978983565        3.75250627358660        0.68351712341648
C           54.74309233433849        5.22543125837466        0.86886138712753
C           55.24163351048649        6.05743489790219       -0.05741905694051
C           55.25561000759419        7.55348140019058        0.12200501978361
N           54.33629147958481        7.96826034870005        1.18523763616771
C           54.01117931917408        7.10355946266657        2.19922833236984
C           54.15514009196556        5.77181052619899        2.08419413430398
C           53.51185066210626        3.10864275978915        0.63617969416749
C           52.23588897860901        3.76526152898429        0.70492908196981
C           51.28377576885361        2.80188327777549        0.61566350703856
N           53.31050251322032        1.76179756071273        0.49434834531370
C           51.96680424111010        1.54816133897645        0.48518882228601
C           51.33010192604208        0.29604212108201        0.38248011762655
C           51.97447086162007       -0.94667089812263        0.23182901689272
C           51.30233714241808       -2.21038228589895        0.15275777649811
C           52.25921240155094       -3.15921270123080       -0.01188682513181
C           53.52681488764595       -2.48338973340920       -0.04197171819775
N           53.31671228186691       -1.14003213124409        0.11856021704445
C           54.77113524655944       -3.10726848490847       -0.18983333194374
C           54.77135015482077       -4.57960215127292       -0.37967545130644
C           55.36482435938956       -5.40518069440594        0.49508186760369
C           55.39519802299772       -6.89973781570580        0.30540166541208
N           54.39674784900106       -7.32986929108667       -0.67732724163281
C           53.96724821016429       -6.46748643456091       -1.65386227307673
C           54.09221591190075       -5.13351694991897       -1.54303833233044
C           56.01224379545182       -2.45924359146332       -0.17735607166131
C           57.28908412609682       -3.09221501812996       -0.37757583526937
C           58.23586149288757       -2.12457590683289       -0.28883249437447
C           57.55008086475775       -0.88658298575408       -0.04567543365039
N           56.20619005167178       -1.12101563866539        0.00942708833645
H           59.25114032842104        0.35792856666224        0.06412708307217
H           59.30198973697437        2.94561591921941        0.50945883344776
H           57.42410834143183        4.83123792185539        0.84692510424973
H           55.67725400425939        5.69018560921158       -0.97940443682051
H           54.94399173360551        8.04903834460786       -0.80739677749689
H           56.28092862927402        7.90158965473201        0.34942312162664
H           54.42429300848855        8.94098017301102        1.44196614320586
H           53.55078379316276        7.57032962638224        3.06427504610770
H           53.84545386758952        5.10130522001381        2.87332448641926
H           52.08964850206668        4.82910836117107        0.80161539690610
H           50.21219278102330        2.92249361698021        0.63164442682494
H           50.23447573471107       -2.34611895954990        0.22012500465117
H           52.12194077056690       -4.22510902406735       -0.09906048009743
H           55.87108046722794       -5.03331500055251        1.37831560151806
H           55.17599806880413       -7.40648562834815        1.25490691526423
H           56.40432978746146       -7.22393766459504       -0.01198321205407
H           54.48460405528451       -8.29880397721673       -0.94805028396070
H           53.44422062678870       -6.94006033346833       -2.47923841489193
H           53.70207615222485       -4.46653031138925       -2.29877280877536
H           57.43728801467909       -4.14232353029428       -0.57256737384627
H           59.30549923811815       -2.22726113000749       -0.38645019945357
C           33.86656220012949        0.62116842053771        0.49830455884727
C           32.64594730324352        0.59867581955767        0.45847389769213
C           35.21768613256649        0.63634461311230        0.53405939406403
C           36.43900036465713        0.63640236366904        0.55860509992988
C           47.35008719279766        0.34493551481342        0.49796624056656
C           46.12966763489509        0.38745748517862        0.52396646063166
C           48.70132667369327        0.31381060651935        0.46582152767165
C           49.92199873428870        0.29345293467169        0.43062902555911
Zn          41.28503044921050        0.54578444735737        0.56963823791823
C           37.84685215196306        0.62172435908207        0.57170328009002
C           38.50658630800820        1.40892760112442       -0.39237736682715
C           37.84733690528996        2.24826128214628       -1.34874889141333
C           38.81605038051138        2.82286229596124       -2.10706181302233
C           40.07719097515635        2.33230758778601       -1.62580717535419
N           39.85245201969103        1.48360895635567       -0.57491602786748
C           41.33002083063361        2.67944168167624       -2.14166890128017
C           41.35408008587439        3.58386738791876       -3.31918540095135
C           40.82049764210372        3.21864848912025       -4.49432717731764
C           40.87974833372319        4.09624721305739       -5.71693755023723
N           41.20016265949803        5.48063625146284       -5.35936202098841
C           41.88704161961773        5.76381026700884       -4.20707845130831
C           41.97036243434874        4.89562130731115       -3.18362777534798
C           42.56622482282913        2.24354412283250       -1.65258966635869
C           43.84365341172600        2.57169246561827       -2.22059145654739
C           44.78768460290108        1.94618357775614       -1.47132179649072
N           42.75626225734314        1.41713995101520       -0.57779234609685
C           44.09640957118331        1.22440931113981       -0.44402443446076
C           44.72228354000980        0.43768760969741        0.54232767553914
C           44.06440692980484       -0.30142009089716        1.54456562415538
C           44.72703330917954       -1.05347170629905        2.56852411766076
C           43.75918669863349       -1.61034223594262        3.34123159249502
C           42.49439531700570       -1.21426731122842        2.78767639572852
N           42.71736924830637       -0.40941469176491        1.70252057477344
C           41.24013741419095       -1.58192644494118        3.28737374557147
C           41.21294563856834       -2.49053748108738        4.46132999055680
C           41.71455760407059       -3.73301825041911        4.40576859725857
C           41.71108531681971       -4.66105239462541        5.59271852239813
N           40.77757715388100       -4.19973408968021        6.62408598431659
C           40.44739248209257       -2.87189606158152        6.71972657244686
C           40.60431578220238       -2.01473859740262        5.69595549429214
C           40.00374631989487       -1.16867368984242        2.77871624429055
C           38.72293528428536       -1.59719882024200        3.26721650429896
C           37.77897667582047       -0.98790788079716        2.50507327217652
C           38.47284648913224       -0.18581081739574        1.54096347197654
N           39.81470688022685       -0.31626229906342        1.72420628328295
H           36.77944390306077        2.38064300429356       -1.42100981674941
H           38.69100598994213        3.52488638323414       -2.91567134188841
H           40.38076923025695        2.23883601332321       -4.64045731032473
H           41.62785811386009        3.70563481924967       -6.43245864224597
H           39.90887141299254        4.09439660039671       -6.23089764983425
H           41.39797449343147        6.07182855638904       -6.15372168455174
H           42.28395552003961        6.77257055382797       -4.15242086902295
H           42.44960942202155        5.16635181357953       -2.25348678896098
H           43.99633476352251        3.19354596435819       -3.08826790995000
H           45.85828929832903        1.96237483612938       -1.60069214645711
H           45.79665102353064       -1.13230690106861        2.68217598997714
H           43.88953070833762       -2.22599726921031        4.21660025712220
H           42.16590511152917       -4.12643841991654        3.50235715333635
H           42.73043857629989       -4.74594592508208        6.01418021057378
H           41.40328116396125       -5.66919281667748        5.28383510744677
H           40.85580956767325       -4.70176618798051        7.49680770880069
H           39.97242373793528       -2.58810096020194        7.65352022810910
H           40.29052697513124       -0.98320979553212        5.77115040539527
H           38.56814066296578       -2.28327731891357        4.08441293907276
H           36.70640067546509       -1.07198786112843        2.58017738753805

          :  Hamiltonian                  GFN1-xTB          :
         :: total energy            -300.100371743988 Eh    ::
         :: gradient norm              0.000469929380 Eh/a0 ::
         :: HOMO-LUMO gap              0.997977053222 eV    ::
         :: SCC energy              -304.831895742379 Eh    ::
         :: repulsion energy           4.891076547052 Eh    ::

    * Orbital Energies and Occupations

         #    Occupation            Energy/Eh            Energy/eV
      -------------------------------------------------------------
         1        2.0000           -0.7768138             -21.1382
       ...           ...                  ...                  ...
       263        2.0000           -0.4040472             -10.9947
       264        2.0000           -0.3832730             -10.4294
       265        2.0000           -0.3832019             -10.4275
       266        2.0000           -0.3828161             -10.4170
       267        2.0000           -0.3760501             -10.2328
       268        2.0000           -0.3729995             -10.1498
       269        2.0000           -0.3691471             -10.0450
       270        2.0000           -0.3669949              -9.9864
       271        2.0000           -0.3666977              -9.9784
       272        2.0000           -0.3665991              -9.9757
       273        2.0000           -0.3655069              -9.9459
       274        2.0000           -0.3650276              -9.9329
       275        2.0000           -0.3628876              -9.8747 (HOMO)
       276                         -0.3262126              -8.8767 (LUMO)
       277                         -0.3194801              -8.6935
       278                         -0.3153066              -8.5799
       279                         -0.3152441              -8.5782
       280                         -0.3149069              -8.5691
       281                         -0.3148477              -8.5674
       282                         -0.2885989              -7.8532
       283                         -0.2829049              -7.6982
       284                         -0.2815618              -7.6617
       285                         -0.2611725              -7.1069
       286                         -0.2609584              -7.1010
       ...                                ...                  ...
       600                          1.5287395              41.5991
      -------------------------------------------------------------
                  HL-Gap            0.0366750 Eh            0.9980 eV

Wiberg/Mayer (AO) data.
largest (>0.10) Wiberg bond orders for each atom

     #   Z sym  total        # sym  WBO       # sym  WBO       # sym  WBO
 ---------------------------------------------------------------------------
     1  30 Zn   2.002 --    37 N    0.460     7 N    0.460    18 N    0.458
                            25 N    0.458
     2   6 C    3.927 --     3 C    1.356    36 C    1.356    38 H    0.972
     3   6 C    3.924 --     2 C    1.356     7 N    1.234     4 C    1.172
     4   6 C    3.961 --     5 C    1.657     3 C    1.172    39 H    0.976
     5   6 C    3.964 --     4 C    1.657     6 C    1.173    40 H    0.974
     6   6 C    3.919 --     8 C    1.316     7 N    1.243     5 C    1.173
     7   7 N    3.294 --     6 C    1.243     3 C    1.234     1 Zn   0.460
     8   6 C    3.936 --    15 C    1.322     6 C    1.316     9 C    1.025
     9   6 C    3.988 --    10 C    1.769    14 C    1.097     8 C    1.025
    10   6 C    3.971 --     9 C    1.769    11 C    1.012    41 H    0.972
    11   6 C    3.961 --    10 C    1.012    42 H    0.976    43 H    0.967
                            12 N    0.949
    12   7 N    3.245 --    13 C    1.158    11 C    0.949    44 H    0.929
                            14 C    0.127
    13   6 C    3.958 --    14 C    1.694    12 N    1.158    45 H    0.971
    14   6 C    3.969 --    13 C    1.694     9 C    1.097    46 H    0.974
                            12 N    0.127
    15   6 C    3.912 --     8 C    1.322    18 N    1.226    16 C    1.180
    16   6 C    3.961 --    17 C    1.646    15 C    1.180    47 H    0.972
    17   6 C    3.963 --    16 C    1.646    19 C    1.186    48 H    0.974
    18   7 N    3.299 --    19 C    1.260    15 C    1.226     1 Zn   0.458
    19   6 C    3.905 --    18 N    1.260    20 C    1.259    17 C    1.186
    20   6 C    3.938 --    21 C    1.260    19 C    1.259   118 C    1.179
    21   6 C    3.905 --    20 C    1.260    25 N    1.259    22 C    1.186
    22   6 C    3.963 --    23 C    1.646    21 C    1.186    49 H    0.974
    23   6 C    3.961 --    22 C    1.646    24 C    1.180    50 H    0.973
    24   6 C    3.912 --    26 C    1.321    25 N    1.227    23 C    1.180
    25   7 N    3.299 --    21 C    1.259    24 C    1.227     1 Zn   0.458
    26   6 C    3.936 --    24 C    1.321    33 C    1.316    27 C    1.025
    27   6 C    3.988 --    28 C    1.769    32 C    1.097    26 C    1.025
    28   6 C    3.971 --    27 C    1.769    29 C    1.012    51 H    0.972
    29   6 C    3.961 --    28 C    1.012    52 H    0.976    53 H    0.967
                            30 N    0.949
    30   7 N    3.245 --    31 C    1.158    29 C    0.949    54 H    0.929
                            32 C    0.127
    31   6 C    3.958 --    32 C    1.694    30 N    1.158    55 H    0.971
    32   6 C    3.968 --    31 C    1.694    27 C    1.097    56 H    0.974
                            30 N    0.127
    33   6 C    3.919 --    26 C    1.316    37 N    1.242    34 C    1.173
    34   6 C    3.964 --    35 C    1.657    33 C    1.173    57 H    0.974
    35   6 C    3.961 --    34 C    1.657    36 C    1.172    58 H    0.976
    36   6 C    3.925 --     2 C    1.356    37 N    1.234    35 C    1.172
    37   7 N    3.294 --    33 C    1.242    36 C    1.234     1 Zn   0.460
    38   1 H    1.002 --     2 C    0.972
    39   1 H    0.999 --     4 C    0.976
    40   1 H    1.007 --     5 C    0.974
    41   1 H    1.003 --    10 C    0.972
    42   1 H    1.019 --    11 C    0.976
    43   1 H    1.008 --    11 C    0.967
    44   1 H    0.964 --    12 N    0.929
    45   1 H    1.002 --    13 C    0.971
    46   1 H    1.003 --    14 C    0.974
    47   1 H    1.006 --    16 C    0.972
    48   1 H    1.003 --    17 C    0.974
    49   1 H    1.003 --    22 C    0.974
    50   1 H    1.006 --    23 C    0.973
    51   1 H    1.004 --    28 C    0.972
    52   1 H    1.019 --    29 C    0.976
    53   1 H    1.008 --    29 C    0.967
    54   1 H    0.964 --    30 N    0.929
    55   1 H    1.002 --    31 C    0.971
    56   1 H    1.003 --    32 C    0.974
    57   1 H    1.007 --    34 C    0.974
    58   1 H    0.999 --    35 C    0.976
    59  30 Zn   2.002 --    95 N    0.460    65 N    0.460    76 N    0.458
                            83 N    0.458
    60   6 C    3.928 --    94 C    1.357    61 C    1.356    96 H    0.972
    61   6 C    3.924 --    60 C    1.356    65 N    1.234    62 C    1.172
    62   6 C    3.961 --    63 C    1.657    61 C    1.172    97 H    0.976
    63   6 C    3.964 --    62 C    1.657    64 C    1.173    98 H    0.974
    64   6 C    3.919 --    66 C    1.316    65 N    1.242    63 C    1.173
    65   7 N    3.294 --    64 C    1.242    61 C    1.234    59 Zn   0.460
    66   6 C    3.936 --    73 C    1.321    64 C    1.316    67 C    1.025
    67   6 C    3.988 --    68 C    1.769    72 C    1.097    66 C    1.025
    68   6 C    3.971 --    67 C    1.769    69 C    1.012    99 H    0.972
    69   6 C    3.961 --    68 C    1.012   100 H    0.976   101 H    0.967
                            70 N    0.949
    70   7 N    3.245 --    71 C    1.158    69 C    0.949   102 H    0.929
                            72 C    0.127
    71   6 C    3.958 --    72 C    1.694    70 N    1.158   103 H    0.971
    72   6 C    3.968 --    71 C    1.694    67 C    1.097   104 H    0.974
                            70 N    0.127
    73   6 C    3.912 --    66 C    1.321    76 N    1.227    74 C    1.180
    74   6 C    3.961 --    75 C    1.646    73 C    1.180   105 H    0.973
    75   6 C    3.963 --    74 C    1.646    77 C    1.186   106 H    0.974
    76   7 N    3.299 --    77 C    1.259    73 C    1.227    59 Zn   0.458
    77   6 C    3.906 --    78 C    1.259    76 N    1.259    75 C    1.186
    78   6 C    3.939 --    79 C    1.261    77 C    1.259   124 C    1.177
    79   6 C    3.906 --    78 C    1.261    83 N    1.258    80 C    1.186
    80   6 C    3.963 --    81 C    1.646    79 C    1.186   107 H    0.974
    81   6 C    3.961 --    80 C    1.646    82 C    1.180   108 H    0.973
    82   6 C    3.913 --    84 C    1.321    83 N    1.227    81 C    1.180
    83   7 N    3.299 --    79 C    1.258    82 C    1.227    59 Zn   0.458
    84   6 C    3.936 --    82 C    1.321    91 C    1.316    85 C    1.026
    85   6 C    3.988 --    86 C    1.769    90 C    1.097    84 C    1.026
    86   6 C    3.971 --    85 C    1.769    87 C    1.012   109 H    0.972
    87   6 C    3.961 --    86 C    1.012   110 H    0.976   111 H    0.967
                            88 N    0.949
    88   7 N    3.245 --    89 C    1.158    87 C    0.949   112 H    0.929
                            90 C    0.127
    89   6 C    3.958 --    90 C    1.695    88 N    1.158   113 H    0.971
    90   6 C    3.968 --    89 C    1.695    85 C    1.097   114 H    0.974
                            88 N    0.127
    91   6 C    3.919 --    84 C    1.316    95 N    1.242    92 C    1.173
    92   6 C    3.964 --    93 C    1.657    91 C    1.173   115 H    0.974
    93   6 C    3.961 --    92 C    1.657    94 C    1.172   116 H    0.976
    94   6 C    3.924 --    60 C    1.357    95 N    1.234    93 C    1.172
    95   7 N    3.294 --    91 C    1.242    94 C    1.234    59 Zn   0.460
    96   1 H    1.002 --    60 C    0.972
    97   1 H    0.999 --    62 C    0.976
    98   1 H    1.007 --    63 C    0.974
    99   1 H    1.004 --    68 C    0.972
   100   1 H    1.019 --    69 C    0.976
   101   1 H    1.008 --    69 C    0.967
   102   1 H    0.964 --    70 N    0.929
   103   1 H    1.002 --    71 C    0.971
   104   1 H    1.003 --    72 C    0.974
   105   1 H    1.006 --    74 C    0.973
   106   1 H    1.003 --    75 C    0.974
   107   1 H    1.003 --    80 C    0.974
   108   1 H    1.006 --    81 C    0.973
   109   1 H    1.004 --    86 C    0.972
   110   1 H    1.019 --    87 C    0.976
   111   1 H    1.008 --    87 C    0.967
   112   1 H    0.964 --    88 N    0.929
   113   1 H    1.002 --    89 C    0.971
   114   1 H    1.003 --    90 C    0.974
   115   1 H    1.007 --    92 C    0.974
   116   1 H    0.999 --    93 C    0.976
   117   6 C    3.933 --   118 C    2.485   119 C    1.298
   118   6 C    3.920 --   117 C    2.485    20 C    1.179   120 C    0.197
   119   6 C    3.930 --   120 C    2.483   117 C    1.298
   120   6 C    3.921 --   119 C    2.483   126 C    1.181   118 C    0.197
   121   6 C    3.930 --   122 C    2.485   123 C    1.297
   122   6 C    3.920 --   121 C    2.485   144 C    1.179   124 C    0.197
   123   6 C    3.933 --   124 C    2.486   121 C    1.297
   124   6 C    3.919 --   123 C    2.486    78 C    1.177   122 C    0.197
   125  30 Zn   1.999 --   161 N    0.458   142 N    0.458   131 N    0.457
                           149 N    0.457
   126   6 C    3.928 --   160 C    1.258   127 C    1.256   120 C    1.181
   127   6 C    3.907 --   131 N    1.261   126 C    1.256   128 C    1.188
   128   6 C    3.961 --   129 C    1.644   127 C    1.188   162 H    0.974
   129   6 C    3.962 --   128 C    1.644   130 C    1.181   163 H    0.974
   130   6 C    3.912 --   132 C    1.321   131 N    1.225   129 C    1.181
   131   7 N    3.293 --   127 C    1.261   130 C    1.225   125 Zn   0.457
   132   6 C    3.931 --   130 C    1.321   139 C    1.319   133 C    1.023
   133   6 C    3.988 --   134 C    1.768   138 C    1.099   132 C    1.023
   134   6 C    3.972 --   133 C    1.768   135 C    1.013   164 H    0.972
   135   6 C    3.961 --   134 C    1.013   166 H    0.975   165 H    0.967
                           136 N    0.949
   136   7 N    3.248 --   137 C    1.160   135 C    0.949   167 H    0.928
                           138 C    0.127
   137   6 C    3.958 --   138 C    1.692   136 N    1.160   168 H    0.971
   138   6 C    3.968 --   137 C    1.692   133 C    1.099   169 H    0.973
                           136 N    0.127
   139   6 C    3.911 --   132 C    1.319   142 N    1.226   140 C    1.182
   140   6 C    3.962 --   141 C    1.643   139 C    1.182   170 H    0.973
   141   6 C    3.961 --   140 C    1.643   143 C    1.187   171 H    0.974
   142   7 N    3.293 --   143 C    1.259   139 C    1.226   125 Zn   0.458
   143   6 C    3.906 --   142 N    1.259   144 C    1.258   141 C    1.187
   144   6 C    3.928 --   143 C    1.258   145 C    1.258   122 C    1.179
   145   6 C    3.908 --   149 N    1.260   144 C    1.258   146 C    1.188
   146   6 C    3.961 --   147 C    1.643   145 C    1.188   172 H    0.974
   147   6 C    3.962 --   146 C    1.643   148 C    1.182   173 H    0.974
   148   6 C    3.912 --   150 C    1.319   149 N    1.226   147 C    1.182
   149   7 N    3.293 --   145 C    1.260   148 C    1.226   125 Zn   0.457
   150   6 C    3.931 --   148 C    1.319   157 C    1.319   151 C    1.025
   151   6 C    3.988 --   152 C    1.770   156 C    1.097   150 C    1.025
   152   6 C    3.971 --   151 C    1.770   153 C    1.013   174 H    0.972
   153   6 C    3.961 --   152 C    1.013   176 H    0.976   175 H    0.967
                           154 N    0.949
   154   7 N    3.245 --   155 C    1.158   153 C    0.949   177 H    0.929
                           156 C    0.127
   155   6 C    3.958 --   156 C    1.694   154 N    1.158   178 H    0.971
   156   6 C    3.968 --   155 C    1.694   151 C    1.097   179 H    0.974
                           154 N    0.127
   157   6 C    3.910 --   150 C    1.319   161 N    1.226   158 C    1.182
   158   6 C    3.962 --   159 C    1.645   157 C    1.182   180 H    0.973
   159   6 C    3.961 --   158 C    1.645   160 C    1.187   181 H    0.974
   160   6 C    3.906 --   161 N    1.259   126 C    1.258   159 C    1.187
   161   7 N    3.293 --   160 C    1.259   157 C    1.226   125 Zn   0.458
   162   1 H    1.003 --   128 C    0.974
   163   1 H    1.007 --   129 C    0.974
   164   1 H    1.003 --   134 C    0.972
   165   1 H    1.009 --   135 C    0.967
   166   1 H    1.018 --   135 C    0.975
   167   1 H    0.964 --   136 N    0.928
   168   1 H    1.002 --   137 C    0.971
   169   1 H    1.004 --   138 C    0.973
   170   1 H    1.006 --   140 C    0.973
   171   1 H    1.003 --   141 C    0.974
   172   1 H    1.003 --   146 C    0.974
   173   1 H    1.007 --   147 C    0.974
   174   1 H    1.004 --   152 C    0.972
   175   1 H    1.008 --   153 C    0.967
   176   1 H    1.019 --   153 C    0.976
   177   1 H    0.964 --   154 N    0.929
   178   1 H    1.002 --   155 C    0.971
   179   1 H    1.003 --   156 C    0.974
   180   1 H    1.006 --   158 C    0.973
   181   1 H    1.003 --   159 C    0.974
 ---------------------------------------------------------------------------

           -------------------------------------------------
          | TOTAL ENERGY             -300.100371743988 Eh   |
          | GRADIENT NORM               0.000469929380 Eh/α |
          | HOMO-LUMO GAP               0.997977053222 eV   |
           -------------------------------------------------

 * finished run on 2022/07/30 at 08:02:39.597
