   * xtb version 6.5.1 (b24c23e) compiled by 'conda@728c89f4b128' on 2022-07-12
          program call               : xtb Zn_DHP_C4_2.xyz --gfn 1 --opt -T 48

   ID    Z sym.   atoms
    1   30 Zn     1, 59
    2    6 C      2-6, 8-11, 13-17, 19-24, 26-29, 31-36, 60-64, 66-69, 71-75,
                  77-82, 84-87, 89-94, 117-120
    3    7 N      7, 12, 18, 25, 30, 37, 65, 70, 76, 83, 88, 95
    4    1 H      38-58, 96-116
########################################################################
[WARNING] Please study the warnings concerning your input carefully
-1- prog_main_parseArguments: Unknown option '-T' provided
########################################################################

          :  Hamiltonian                  GFN1-xTB          :
 * total energy  :  -197.3558340 Eh     change       -0.1095913E-08 Eh
 * total energy  :  -197.5354153 Eh     change       -0.1795813E+00 Eh
 * total energy  :  -197.5900657 Eh     change       -0.5465037E-01 Eh
 * total energy  :  -197.6125838 Eh     change       -0.2251816E-01 Eh
 * total energy  :  -197.6201177 Eh     change       -0.7533888E-02 Eh
 * total energy  :  -197.6237229 Eh     change       -0.3605196E-02 Eh
 * total energy  :  -197.6271982 Eh     change       -0.3475229E-02 Eh
 * total energy  :  -197.6290587 Eh     change       -0.1860544E-02 Eh
 * total energy  :  -197.6312032 Eh     change       -0.2144488E-02 Eh
 * total energy  :  -197.6326634 Eh     change       -0.1460204E-02 Eh
 * total energy  :  -197.6381301 Eh     change       -0.2442651E-04 Eh
 * total energy  :  -197.6381697 Eh     change       -0.3962167E-04 Eh
 * total energy  :  -197.6382067 Eh     change       -0.3696691E-04 Eh
 * total energy  :  -197.6382222 Eh     change       -0.1547311E-04 Eh
 * total energy  :  -197.6382364 Eh     change       -0.1422057E-04 Eh
 * total energy  :  -197.6382476 Eh     change       -0.1117389E-04 Eh
 * total energy  :  -197.6382588 Eh     change       -0.1121115E-04 Eh
 * total energy  :  -197.6382682 Eh     change       -0.9475219E-05 Eh
 * total energy  :  -197.6382725 Eh     change       -0.4238731E-05 Eh
   *** GEOMETRY OPTIMIZATION CONVERGED AFTER 35 ITERATIONS ***

 final structure:
================
120
 xtb: 6.5.1 (b24c23e)
Zn          13.91041195077674       -0.04800930655854       -0.00747386139904
C           10.50375288197898       -0.06189265078935       -0.14271774838251
C           11.12846022736124       -1.30335127217199       -0.16938238106220
C           10.44917477319877       -2.56757045754443       -0.21727953286979
C           11.40427937074797       -3.53114829465767       -0.23278889669692
C           12.68039467300889       -2.86687015287055       -0.20632355109484
N           12.47661361415804       -1.51808555687366       -0.15620334846552
C           13.92889093937924       -3.50072347500710       -0.21323546115913
C           13.94447064707728       -4.98166242601431       -0.31364559965145
C           13.44141966841601       -5.62123017875330       -1.37997970451075
C           13.43661719350032       -7.12364940601600       -1.49468193916024
N           14.37106236401998       -7.73006002330637       -0.54255195191720
C           14.69944719623026       -7.07787710464414        0.61874523209227
C           14.54532345359984       -5.75062646036721        0.76765928405899
C           15.16853062130658       -2.85532694287744       -0.13834634032533
C           16.44698121390723       -3.50815934596759       -0.19216910172097
C           17.39549358452927       -2.54067034435508       -0.10530538793425
N           15.36512909165870       -1.50410783577019       -0.03061621190932
C           16.70747654930704       -1.28739976566336       -0.00472569890513
C           17.34093530290407       -0.03346200985619        0.10869821368697
C           16.69097777008507        1.21467735144605        0.18794761841559
C           17.35964655938388        2.47310563859858        0.34049793005648
C           16.39900651785328        3.43221380769224        0.36671297391311
C           15.13304413120736        2.76905823305790        0.22125007285224
N           15.34816249849922        1.41983813299724        0.12430639828523
C           13.88582769552782        3.40369591454660        0.20356579429041
C           13.87938768186525        4.88456065934220        0.30595686257590
C           13.28716683676403        5.51726571724451        1.32979838868714
C           13.25437965155019        7.01932430172411        1.44403546492250
N           14.24694196845958        7.63954460053668        0.56218939123742
C           14.67488976653940        6.99089860843722       -0.56801267920610
C           14.55290365786656        5.66126803689714       -0.72572638926258
C           12.64703319940321        2.75948513468068        0.09786160850208
C           11.36770008867516        3.41373378991455        0.02263387883355
C           10.42454631823994        2.44286061585530       -0.07111435883297
C           11.11527794909023        1.18402188831434       -0.06546706188050
N           12.45849401127565        1.40920256022329        0.03003128242827
H            9.41887211329269       -0.06567712857435       -0.18662867991752
H            9.37731670765252       -2.69093327366228       -0.22831283617025
H           11.26156076438471       -4.59986276903734       -0.24893870821885
H           12.99688528017282       -5.08478898649811       -2.21027615180265
H           13.73962188119779       -7.42667374629824       -2.50599921824955
H           12.41595467424095       -7.51695225408405       -1.32818656131452
H           14.29388707468706       -8.73509754238025       -0.48127443331073
H           15.17117594143997       -7.70080757753025        1.37212707166675
H           14.85703337702303       -5.24503729111452        1.67067558848058
H           16.59793248792034       -4.57105928813110       -0.29179526269191
H           18.46763561820633       -2.65729998447879       -0.11302303598056
H           18.42766895771677        2.59864598680406        0.42299328076477
H           16.53356011670936        4.49587311555175        0.48121078448349
H           12.78530117682690        4.97465677318637        2.12256487937285
H           13.47872071906543        7.32544172655506        2.47483670087616
H           12.24325473698130        7.39897392934083        1.20387344593947
H           14.15926532178453        8.64314513934327        0.49296689371929
H           15.19399717029647        7.62024283185478       -1.28402011482134
H           14.94152225834760        5.15989258737716       -1.60084650931044
H           11.21568485282485        4.48125210046001        0.02839928747531
H            9.35438019143892        2.55799241695547       -0.14647473687392
Zn          27.37593861813878        0.04913351028685        0.00293574630932
C           30.78255376081353        0.09169723712252       -0.12728070405633
C           30.15780222717700        1.31008972442323        0.11228831888532
C           30.83713074351622        2.55533584820025        0.33554671715834
C           29.88208750019595        3.49977069866615        0.52757700815416
C           28.60594631291249        2.84508395868002        0.41234778887932
N           28.80966415815713        1.51690059019646        0.17211711556590
C           27.35753388410853        3.46552430242775        0.54300817816486
C           27.34201655029551        4.93344911677870        0.76315662087782
C           27.84362614437834        5.78734242486948       -0.14151257482901
C           27.84840169763005        7.27930602262900        0.06937887642139
N           26.91534076650328        7.66666818541061        1.13089364027755
C           26.58858397265020        6.78009999004356        2.12537740618012
C           26.74280110953041        5.45189314883576        1.98533143477184
C           26.11786788336124        2.81902378828132        0.47889339694628
C           24.83946800841728        3.46810001340880        0.56805669263757
C           23.89088395563781        2.50454159289059        0.44559969375650
N           25.92115716752755        1.47626492239051        0.29368364164847
C           24.57880035462500        1.25901807998866        0.27352853908470
C           23.94540238575365        0.01001689945699        0.11456038801226
C           24.59544385271839       -1.22586968513022       -0.07686975284797
C           23.92663202042541       -2.48755680172065       -0.19884624816097
C           24.88718955695128       -3.42998041147426       -0.37931642377604
C           26.15324740368592       -2.75125124817001       -0.37834192574434
N           25.93824903305677       -1.41269380656104       -0.18298057821682
C           27.40043436399215       -3.36753036105155       -0.53119188221811
C           27.40663778191118       -4.83587876906454       -0.74898275638118
C           27.99791537895883       -5.67378127150235        0.11564252332293
C           28.03035454908658       -7.16536599530546       -0.09516960054833
N           27.03830627297902       -7.58155424853403       -1.09023475441223
C           26.61135741391049       -6.70528721606603       -2.05520289659425
C           26.73378572432411       -5.37284259899633       -1.92381849801792
C           28.63933212436100       -2.71587906435108       -0.49568132137669
C           29.91870853691940       -3.33900385235350       -0.70852790009418
C           30.86187722381230       -2.37058472504903       -0.59223901448616
C           30.17110857643139       -1.14201112840781       -0.31789295147344
N           28.82788442225140       -1.38234609837005       -0.27307372538010
H           31.86742014259609        0.10491759618156       -0.16968966472419
H           31.90898733144403        2.67832897352448        0.35023235658050
H           30.02486408285602        4.54717203610270        0.74051835881295
H           28.28693692218676        5.44197511477665       -1.06832219218296
H           27.54398579229005        7.79255775773265       -0.85274048951985
H           28.86932904009360        7.62786661975449        0.31509722449399
H           26.99246094019085        8.63511269388327        1.40651991270599
H           26.11801152954309        7.22645736844268        2.99571081621579
H           26.43237196756195        4.76394779806200        2.75901499627940
H           24.68862517696861        4.52754204315537        0.69961219050829
H           22.81876047964276        2.62006220716604        0.46423868461965
H           22.85857463635320       -2.62772829721832       -0.14556699779434
H           24.75249044104930       -4.49332816921616       -0.49640200437744
H           28.49921882609945       -5.31416254546864        1.00678807234576
H           27.80523419029770       -7.68552654419347        0.84575873607742
H           29.04158065893543       -7.48494605552951       -0.41056918965199
H           27.12603131995946       -8.54689371373249       -1.37329647606356
H           26.09260043461910       -7.16610194764322       -2.88992568633806
H           26.34589960774453       -4.69520147831971       -2.67120891182341
H           30.07076627539495       -4.38310684133478       -0.93093467600828
H           31.93207935608965       -2.46703658057996       -0.68999942993627
C           19.96843646917016       -0.01817268711942        0.14693968162994
C           18.74627320699085       -0.02675438076841        0.13753783629117
C           21.31794027167191       -0.01105737810282        0.14907708465597
C           22.54006842166267       -0.00297010954769        0.14146267612885

          :  Hamiltonian                  GFN1-xTB          :
         :: total energy            -197.638272477094 Eh    ::
         :: gradient norm              0.000399784232 Eh/a0 ::
         :: HOMO-LUMO gap              1.016121634095 eV    ::
         :: SCC energy              -200.713689457150 Eh    ::
         :: repulsion energy           3.179604397701 Eh    ::

    * Orbital Energies and Occupations

         #    Occupation            Energy/Eh            Energy/eV
      -------------------------------------------------------------
         1        2.0000           -0.7767283             -21.1359
       ...           ...                  ...                  ...
       169        2.0000           -0.4102587             -11.1637
       170        2.0000           -0.4101274             -11.1601
       171        2.0000           -0.4101071             -11.1596
       172        2.0000           -0.4090563             -11.1310
       173        2.0000           -0.4074790             -11.0881
       174        2.0000           -0.3828284             -10.4173
       175        2.0000           -0.3828275             -10.4173
       176        2.0000           -0.3790237             -10.3138
       177        2.0000           -0.3693382             -10.0502
       178        2.0000           -0.3668146              -9.9815
       179        2.0000           -0.3668123              -9.9815
       180        2.0000           -0.3657191              -9.9517
       181        2.0000           -0.3629404              -9.8761 (HOMO)
       182                         -0.3255986              -8.8600 (LUMO)
       183                         -0.3149050              -8.5690
       184                         -0.3149036              -8.5690
       185                         -0.3116395              -8.4801
       186                         -0.2852887              -7.7631
       187                         -0.2782207              -7.5708
       188                         -0.2609589              -7.1011
       189                         -0.2609582              -7.1010
       190                         -0.2602786              -7.0825
       191                         -0.2591937              -7.0530
       192                         -0.2451908              -6.6720
       ...                                ...                  ...
       396                          1.5304268              41.6450
      -------------------------------------------------------------
                  HL-Gap            0.0373418 Eh            1.0161 eV

Wiberg/Mayer (AO) data.
largest (>0.10) Wiberg bond orders for each atom

     #   Z sym  total        # sym  WBO       # sym  WBO       # sym  WBO
 ---------------------------------------------------------------------------
     1  30 Zn   2.001 --    37 N    0.460     7 N    0.459    18 N    0.458
                            25 N    0.457
     2   6 C    3.925 --    36 C    1.356     3 C    1.356    38 H    0.972
     3   6 C    3.925 --     2 C    1.356     7 N    1.234     4 C    1.172
     4   6 C    3.960 --     5 C    1.656     3 C    1.172    39 H    0.976
     5   6 C    3.964 --     4 C    1.656     6 C    1.174    40 H    0.974
     6   6 C    3.918 --     8 C    1.315     7 N    1.242     5 C    1.174
     7   7 N    3.292 --     6 C    1.242     3 C    1.234     1 Zn   0.459
     8   6 C    3.934 --    15 C    1.322     6 C    1.315     9 C    1.026
     9   6 C    3.988 --    10 C    1.769    14 C    1.097     8 C    1.026
    10   6 C    3.971 --     9 C    1.769    11 C    1.012    41 H    0.972
    11   6 C    3.961 --    10 C    1.012    42 H    0.976    43 H    0.967
                            12 N    0.949
    12   7 N    3.245 --    13 C    1.158    11 C    0.949    44 H    0.929
                            14 C    0.127
    13   6 C    3.958 --    14 C    1.695    12 N    1.158    45 H    0.971
    14   6 C    3.969 --    13 C    1.695     9 C    1.097    46 H    0.974
                            12 N    0.127
    15   6 C    3.912 --     8 C    1.322    18 N    1.225    16 C    1.181
    16   6 C    3.960 --    17 C    1.645    15 C    1.181    47 H    0.972
    17   6 C    3.962 --    16 C    1.645    19 C    1.187    48 H    0.974
    18   7 N    3.298 --    19 C    1.262    15 C    1.225     1 Zn   0.458
    19   6 C    3.903 --    18 N    1.262    20 C    1.254    17 C    1.187
    20   6 C    3.937 --    19 C    1.254    21 C    1.254   118 C    1.190
    21   6 C    3.903 --    25 N    1.262    20 C    1.254    22 C    1.187
    22   6 C    3.962 --    23 C    1.644    21 C    1.187    49 H    0.974
    23   6 C    3.960 --    22 C    1.644    24 C    1.181    50 H    0.973
    24   6 C    3.912 --    26 C    1.322    25 N    1.225    23 C    1.181
    25   7 N    3.298 --    21 C    1.262    24 C    1.225     1 Zn   0.457
    26   6 C    3.934 --    24 C    1.322    33 C    1.315    27 C    1.026
    27   6 C    3.988 --    28 C    1.768    32 C    1.097    26 C    1.026
    28   6 C    3.971 --    27 C    1.768    29 C    1.012    51 H    0.972
    29   6 C    3.961 --    28 C    1.012    52 H    0.976    53 H    0.967
                            30 N    0.949
    30   7 N    3.245 --    31 C    1.158    29 C    0.949    54 H    0.929
                            32 C    0.127
    31   6 C    3.958 --    32 C    1.694    30 N    1.158    55 H    0.971
    32   6 C    3.968 --    31 C    1.694    27 C    1.097    56 H    0.974
                            30 N    0.127
    33   6 C    3.918 --    26 C    1.315    37 N    1.242    34 C    1.174
    34   6 C    3.964 --    35 C    1.656    33 C    1.174    57 H    0.974
    35   6 C    3.960 --    34 C    1.656    36 C    1.172    58 H    0.976
    36   6 C    3.925 --     2 C    1.356    37 N    1.234    35 C    1.172
    37   7 N    3.293 --    33 C    1.242    36 C    1.234     1 Zn   0.460
    38   1 H    1.002 --     2 C    0.972
    39   1 H    0.999 --     4 C    0.976
    40   1 H    1.007 --     5 C    0.974
    41   1 H    1.004 --    10 C    0.972
    42   1 H    1.019 --    11 C    0.976
    43   1 H    1.008 --    11 C    0.967
    44   1 H    0.964 --    12 N    0.929
    45   1 H    1.002 --    13 C    0.971
    46   1 H    1.004 --    14 C    0.974
    47   1 H    1.006 --    16 C    0.972
    48   1 H    1.003 --    17 C    0.974
    49   1 H    1.003 --    22 C    0.974
    50   1 H    1.006 --    23 C    0.973
    51   1 H    1.004 --    28 C    0.972
    52   1 H    1.019 --    29 C    0.976
    53   1 H    1.008 --    29 C    0.967
    54   1 H    0.964 --    30 N    0.929
    55   1 H    1.002 --    31 C    0.971
    56   1 H    1.004 --    32 C    0.974
    57   1 H    1.007 --    34 C    0.974
    58   1 H    0.999 --    35 C    0.976
    59  30 Zn   2.001 --    95 N    0.460    65 N    0.460    76 N    0.457
                            83 N    0.457
    60   6 C    3.925 --    61 C    1.356    94 C    1.356    96 H    0.972
    61   6 C    3.925 --    60 C    1.356    65 N    1.234    62 C    1.172
    62   6 C    3.960 --    63 C    1.656    61 C    1.172    97 H    0.976
    63   6 C    3.964 --    62 C    1.656    64 C    1.174    98 H    0.974
    64   6 C    3.918 --    66 C    1.315    65 N    1.242    63 C    1.174
    65   7 N    3.292 --    64 C    1.242    61 C    1.234    59 Zn   0.460
    66   6 C    3.934 --    73 C    1.322    64 C    1.315    67 C    1.026
    67   6 C    3.988 --    68 C    1.769    72 C    1.097    66 C    1.026
    68   6 C    3.971 --    67 C    1.769    69 C    1.012    99 H    0.972
    69   6 C    3.961 --    68 C    1.012   100 H    0.976   101 H    0.967
                            70 N    0.949
    70   7 N    3.245 --    71 C    1.158    69 C    0.949   102 H    0.929
                            72 C    0.127
    71   6 C    3.958 --    72 C    1.695    70 N    1.158   103 H    0.971
    72   6 C    3.969 --    71 C    1.695    67 C    1.097   104 H    0.974
                            70 N    0.127
    73   6 C    3.912 --    66 C    1.322    76 N    1.225    74 C    1.181
    74   6 C    3.960 --    75 C    1.645    73 C    1.181   105 H    0.972
    75   6 C    3.962 --    74 C    1.645    77 C    1.187   106 H    0.974
    76   7 N    3.298 --    77 C    1.262    73 C    1.225    59 Zn   0.457
    77   6 C    3.903 --    76 N    1.262    78 C    1.254    75 C    1.187
    78   6 C    3.937 --    77 C    1.254    79 C    1.254   120 C    1.190
    79   6 C    3.903 --    83 N    1.262    78 C    1.254    80 C    1.187
    80   6 C    3.962 --    81 C    1.644    79 C    1.187   107 H    0.974
    81   6 C    3.960 --    80 C    1.644    82 C    1.181   108 H    0.973
    82   6 C    3.912 --    84 C    1.322    83 N    1.225    81 C    1.181
    83   7 N    3.298 --    79 C    1.262    82 C    1.225    59 Zn   0.457
    84   6 C    3.934 --    82 C    1.322    91 C    1.315    85 C    1.026
    85   6 C    3.988 --    86 C    1.769    90 C    1.097    84 C    1.026
    86   6 C    3.971 --    85 C    1.769    87 C    1.012   109 H    0.972
    87   6 C    3.961 --    86 C    1.012   110 H    0.976   111 H    0.967
                            88 N    0.949
    88   7 N    3.245 --    89 C    1.158    87 C    0.949   112 H    0.929
                            90 C    0.127
    89   6 C    3.958 --    90 C    1.694    88 N    1.158   113 H    0.971
    90   6 C    3.968 --    89 C    1.694    85 C    1.097   114 H    0.974
                            88 N    0.127
    91   6 C    3.918 --    84 C    1.315    95 N    1.242    92 C    1.174
    92   6 C    3.964 --    93 C    1.656    91 C    1.174   115 H    0.974
    93   6 C    3.960 --    92 C    1.656    94 C    1.172   116 H    0.976
    94   6 C    3.925 --    60 C    1.356    95 N    1.234    93 C    1.172
    95   7 N    3.293 --    91 C    1.242    94 C    1.234    59 Zn   0.460
    96   1 H    1.002 --    60 C    0.972
    97   1 H    0.999 --    62 C    0.976
    98   1 H    1.007 --    63 C    0.974
    99   1 H    1.004 --    68 C    0.972
   100   1 H    1.019 --    69 C    0.976
   101   1 H    1.008 --    69 C    0.967
   102   1 H    0.964 --    70 N    0.929
   103   1 H    1.002 --    71 C    0.971
   104   1 H    1.004 --    72 C    0.974
   105   1 H    1.006 --    74 C    0.972
   106   1 H    1.003 --    75 C    0.974
   107   1 H    1.003 --    80 C    0.974
   108   1 H    1.006 --    81 C    0.973
   109   1 H    1.004 --    86 C    0.972
   110   1 H    1.019 --    87 C    0.976
   111   1 H    1.008 --    87 C    0.967
   112   1 H    0.964 --    88 N    0.929
   113   1 H    1.002 --    89 C    0.971
   114   1 H    1.004 --    90 C    0.974
   115   1 H    1.007 --    92 C    0.974
   116   1 H    0.999 --    93 C    0.976
   117   6 C    3.934 --   118 C    2.474   119 C    1.309
   118   6 C    3.925 --   117 C    2.474    20 C    1.190   120 C    0.199
   119   6 C    3.934 --   120 C    2.474   117 C    1.309
   120   6 C    3.925 --   119 C    2.474    78 C    1.190   118 C    0.199
 ---------------------------------------------------------------------------

           -------------------------------------------------
          | TOTAL ENERGY             -197.638272477094 Eh   |
          | GRADIENT NORM               0.000399784232 Eh/α |
          | HOMO-LUMO GAP               1.016121634095 eV   |
           -------------------------------------------------

 * finished run on 2022/07/30 at 07:59:24.400
