   * xtb version 6.5.1 (b24c23e) compiled by 'conda@728c89f4b128' on 2022-07-12
          program call               : xtb Ph2Me_C2_2.xyz --gfn 1 --opt -T 48

   ID    Z sym.   atoms
    1    6 C      1-5, 7-10, 12-30, 33-40, 70-74, 76-79, 81-99, 102-109, 139,
                  140
    2    7 N      6, 11, 31, 32, 75, 80, 100, 101
    3    1 H      41-69, 110-138
########################################################################
[WARNING] Please study the warnings concerning your input carefully
-1- prog_main_parseArguments: Unknown option '-T' provided
########################################################################

          :  Hamiltonian                  GFN1-xTB          :
 * total energy  :  -212.3413193 Eh     change       -0.3290950E-08 Eh
 * total energy  :  -212.9154613 Eh     change       -0.5741420E+00 Eh
 * total energy  :  -213.0631823 Eh     change       -0.1477210E+00 Eh
 * total energy  :  -213.1243057 Eh     change       -0.6112338E-01 Eh
 * total energy  :  -213.1543588 Eh     change       -0.3005314E-01 Eh
 * total energy  :  -213.1685774 Eh     change       -0.1421858E-01 Eh
 * total energy  :  -213.1767749 Eh     change       -0.8197473E-02 Eh
 * total energy  :  -213.1815534 Eh     change       -0.4778469E-02 Eh
 * total energy  :  -213.1847730 Eh     change       -0.3219667E-02 Eh
 * total energy  :  -213.1872489 Eh     change       -0.2475896E-02 Eh
 * total energy  :  -213.2008507 Eh     change       -0.1392759E-04 Eh
 * total energy  :  -213.2008578 Eh     change       -0.7155174E-05 Eh
 * total energy  :  -213.2008640 Eh     change       -0.6115943E-05 Eh
 * total energy  :  -213.2008733 Eh     change       -0.9357758E-05 Eh
 * total energy  :  -213.2008842 Eh     change       -0.1090167E-04 Eh
 * total energy  :  -213.2008927 Eh     change       -0.8492081E-05 Eh
 * total energy  :  -213.2008993 Eh     change       -0.6547023E-05 Eh
 * total energy  :  -213.2009051 Eh     change       -0.5887294E-05 Eh
 * total energy  :  -213.2009099 Eh     change       -0.4768075E-05 Eh
   *** GEOMETRY OPTIMIZATION CONVERGED AFTER 77 ITERATIONS ***

 final structure:
================
140
 xtb: 6.5.1 (b24c23e)
C           12.85461355795881        0.14261151946745        0.03055514959137
C           13.47227257979199        1.34016401396322        0.36727510958773
C           12.83436662053517        2.55120749465090        0.75666073113958
C           13.80557300668339        3.48788528519343        0.97374180796367
C           15.06781693038011        2.88291590120412        0.71092107977326
N           14.81645223778059        1.58502867703171        0.36546253638822
C           16.33262403922876        3.47706009434072        0.77092791725859
C           17.54109378249974        2.82157051620854        0.52107675029692
C           18.82595897756678        3.49488865449164        0.47354237940071
C           19.74775938777843        2.54028710645271        0.22939982409539
N           17.70249411162881        1.49092127442640        0.28405077505796
C           19.02753946304723        1.28659908486630        0.13140867389265
C           19.67013435118186        0.04592357641029       -0.05777644371845
C           19.02411614494185       -1.19309787231715       -0.23338551536429
C           19.64840118299483       -2.46129510924881       -0.36122626398837
C           18.67200370492320       -3.39597581099071       -0.56833654977031
C           17.41807352677175       -2.72540286535651       -0.57448182441277
C           16.15508207985044       -3.29748397543756       -0.76266746295545
C           16.12247853062607       -4.74678503040172       -1.07691543355348
C           15.46261100288645       -5.63684473423191       -0.23043213054954
C           15.43659417190379       -6.99737837541008       -0.51694424951861
C           14.71384373509150       -7.95144518295927        0.39527921897416
C           16.07028036774422       -7.46532212062970       -1.66425430059420
C           16.73176485223339       -6.58979683216189       -2.52030137816248
C           17.39536437717060       -7.10377930743798       -3.76948542022252
C           16.75672258762912       -5.23220680367911       -2.22020805222123
C           14.94128132260559       -2.60972177900959       -0.67033304152555
C           13.63951985758388       -3.20936539200968       -0.91961937041175
C           12.72454405799248       -2.24576319537612       -0.69064142520483
C           13.46670381272339       -1.05558280805899       -0.31428292187912
N           14.79849446813921       -1.30683745215666       -0.32939661966429
N           17.68109079776849       -1.39984710333677       -0.34982606667742
C           16.38001843450298        4.91612600927863        1.12957604346302
C           17.06619924795572        5.32648179056270        2.27115470502661
C           17.10865561818802        6.67109498546226        2.62678772798577
C           17.85955036872625        7.09860999282860        3.85909852162453
C           16.46404325125482        7.60786573368194        1.82635884417069
C           15.77757995867547        7.21447201761201        0.68026782038847
C           15.10375027597768        8.24301793933028       -0.18750382889296
C           15.73711459973960        5.86790380654746        0.33797098993964
H           11.76943727980402        0.15274078914011        0.04299009483238
H           11.76802445084604        2.67498202582518        0.85935981542210
H           13.66617746361699        4.50793370193156        1.29326386201235
H           15.53223000873711        0.90240871001247        0.14023044620615
H           18.97792791328297        4.55564477213614        0.59065823756782
H           20.81224773309642        2.65353154556176        0.10564907464913
H           20.70934416811944       -2.63310290711290       -0.28859754617912
H           18.80449059544618       -4.45839144570605       -0.69257221009408
H           14.98575332694382       -5.26264514465950        0.66882499587361
H           13.68071867257207       -8.07276892127648        0.06156066641692
H           15.18984854978186       -8.93226531607635        0.38723449982781
H           14.69792726598325       -7.57445041363557        1.41802467605984
H           16.05183049012168       -8.52616912512914       -1.89214152921654
H           18.22517206378476       -6.46017165944530       -4.06211687878088
H           17.76901346320975       -8.11730363665608       -3.62165419837582
H           16.67496413937264       -7.12421543464881       -4.59051140242355
H           17.25901793838188       -4.53913889396621       -2.88636586524883
H           13.47438256329570       -4.22625767736745       -1.23768509815287
H           11.64993215402085       -2.30218456428365       -0.76800481775580
H           16.97041154158824       -0.67945727163704       -0.27697024472397
H           17.55408788734044        4.58551416457637        2.89493016225989
H           17.66412859586172        6.41393316594059        4.68532945870086
H           17.57390605248810        8.10610023816276        4.16124693756040
H           18.93385936535364        7.09065282820776        3.66196296171477
H           16.49351624354577        8.65808710201912        2.09806368360854
H           14.64893005768324        9.02449618919599        0.42212187229784
H           15.83822393680473        8.71250930238538       -0.84581840473164
H           14.33291330014597        7.78549610443762       -0.80769561198970
H           15.21776452857021        5.55197221410762       -0.56026726499510
C           30.52186049758794       -0.13841604437292       -0.04581667740441
C           29.90423630903304       -1.34206962845565       -0.36010773798232
C           30.54216254168422       -2.58392875059478       -0.63577377848717
C           29.57096914352492       -3.50201855377728       -0.92149181193869
C           28.30872481820449       -2.84712734591932       -0.84286116034522
N           28.56006433419693       -1.55249643468998       -0.48539681890919
C           27.04392225943683       -3.39019870966373       -1.09127148216960
C           25.83545302756179       -2.69829768416019       -0.97576613130550
C           24.55058363142806       -3.25546103692094       -1.35663711211928
C           23.62879336198231       -2.30827288366126       -1.08510808476601
N           25.67407118108686       -1.43024831975781       -0.50778618922236
C           24.34899044411807       -1.17679154026929       -0.53650010913222
C           23.70634406325849       -0.01046372013226       -0.07317670556056
C           24.35228872458574        1.14758878867387        0.40121417774315
C           23.72797682594088        2.30667536544277        0.93152217490115
C           24.70437191287495        3.21791598831257        1.22503257740418
C           25.95833104071712        2.64225419380070        0.88114834774301
C           27.22132986597722        3.23098532505350        1.00787803681187
C           27.25394695383850        4.64049899148488        1.46884450891681
C           27.91387713444572        4.98107445874283        2.64895680625362
C           27.93988237328736        6.30000007162229        3.08893774820915
C           28.66270195703298        6.66265273065594        4.35810412306298
C           27.30612645844219        7.28339243347410        2.33518232945066
C           26.64458294937132        6.96019152353010        1.15415672819382
C           25.98091006309342        8.03475126639206        0.33570875500607
C           26.61964321453832        5.63695248877014        0.72738172094324
C           28.43513297487074        2.59082703072244        0.74000946554193
C           29.73686396766838        3.23434617647143        0.82761545084799
C           30.65185725844166        2.28714519170159        0.53822070809154
C           29.90973421715242        1.06982568498308        0.26189562617392
N           28.57793769606861        1.29424456585498        0.37586483595443
N           25.69531822045798        1.38480069677638        0.40534362876558
C           26.99654868929990       -4.81334964719364       -1.50864561451794
C           26.31045983049101       -5.74421442026736       -0.73069710057353
C           26.26800644343993       -7.08429792692583       -1.10305553885420
C           25.51721135419277       -8.07582728293028       -0.25546894676186
C           26.91252115231486       -7.48835926731417       -2.26713177014926
C           27.59889552315468       -6.56985300253833       -3.05753134221833
C           28.27262627326693       -7.01908559993276       -4.32610284118406
C           27.63937677610073       -5.23482965728235       -2.67266863964760
H           31.60703860951955       -0.15337469962816       -0.04034094608368
H           31.60850368766068       -2.74261520226139       -0.60962855318203
H           29.71036979373080       -4.54377651780484       -1.16093434361312
H           27.84427482715426       -0.84958866286617       -0.33504734865356
H           24.39860862723051       -4.23006902103694       -1.79150738751409
H           22.56428495269959       -2.34349217440362       -1.24915380521732
H           22.66701854729093        2.41830200694691        1.08083270806241
H           24.57185520673367        4.19757628162376        1.65445896846788
H           28.39079499579079        4.20389502307021        3.23600354891059
H           29.69580438275662        6.93596002660786        4.13130417655257
H           28.18670143065907        7.51320926156462        4.84660457844757
H           28.67868757799380        5.82069550154996        5.05037529665857
H           27.32457966972502        8.31405840545895        2.67438203917517
H           25.15108670359327        7.62706405085897       -0.24189814724015
H           25.60726804970563        8.83479310254491        0.97525733976644
H           26.70126061129682        8.46711774088143       -0.36259757403323
H           26.11731982541003        5.37529611763314       -0.19761354656629
H           29.90197408173638        4.27260826903477        1.06689753160102
H           31.72645704606610        2.37499229270498        0.49979695549353
H           26.40601689559494        0.72626122985468        0.10438548241777
H           25.82264641113129       -5.41989294856806        0.18200586868277
H           25.71268384162086       -7.90232908804645        0.80345477097918
H           25.80287264088651       -9.09794303348172       -0.50368432712223
H           24.44288503404135       -7.96940500744871       -0.42152661736297
H           26.88306295458796       -8.53197632616042       -2.56319541120248
H           28.72749113893677       -8.00147047192922       -4.19481705362918
H           27.53809125927876       -7.09170983670318       -5.13136341736270
H           29.04341810726118       -6.31090240281495       -4.63025628995352
H           28.15865691637336       -4.50838562016192       -3.28830565902432
C           21.07940765710203        0.02908825843120       -0.06849162344023
C           22.29706891977597        0.00931176280978       -0.07396505008184

          :  Hamiltonian                  GFN1-xTB          :
         :: total energy            -213.200909910420 Eh    ::
         :: gradient norm              0.000439978018 Eh/a0 ::
         :: HOMO-LUMO gap              0.975674472292 eV    ::
         :: SCC energy              -216.678405883942 Eh    ::
         :: repulsion energy           3.592666079465 Eh    ::

    * Orbital Energies and Occupations

         #    Occupation            Energy/Eh            Energy/eV
      -------------------------------------------------------------
         1        2.0000           -0.7990201             -21.7424
       ...           ...                  ...                  ...
       185        2.0000           -0.4244234             -11.5491
       186        2.0000           -0.4178805             -11.3711
       187        2.0000           -0.4170043             -11.3473
       188        2.0000           -0.4144574             -11.2780
       189        2.0000           -0.4134019             -11.2492
       190        2.0000           -0.4125960             -11.2273
       191        2.0000           -0.4125676             -11.2265
       192        2.0000           -0.4099300             -11.1548
       193        2.0000           -0.4099148             -11.1543
       194        2.0000           -0.3944043             -10.7323
       195        2.0000           -0.3938773             -10.7179
       196        2.0000           -0.3855058             -10.4901
       197        2.0000           -0.3726308             -10.1398 (HOMO)
       198                         -0.3367754              -9.1641 (LUMO)
       199                         -0.3262486              -8.8777
       200                         -0.3261419              -8.8748
       201                         -0.3200849              -8.7100
       202                         -0.2939470              -7.9987
       203                         -0.2851381              -7.7590
       204                         -0.2571862              -6.9984
       205                         -0.2571210              -6.9966
       206                         -0.2567432              -6.9863
       207                         -0.2567173              -6.9856
       208                         -0.2563061              -6.9744
       ...                                ...                  ...
       444                          1.3387007              36.4279
      -------------------------------------------------------------
                  HL-Gap            0.0358554 Eh            0.9757 eV

Wiberg/Mayer (AO) data.
largest (>0.10) Wiberg bond orders for each atom

     #   Z sym  total        # sym  WBO       # sym  WBO       # sym  WBO
 ---------------------------------------------------------------------------
     1   6 C    3.923 --    30 C    1.364     2 C    1.346    41 H    0.971
     2   6 C    3.903 --     1 C    1.346     3 C    1.230     6 N    1.170
     3   6 C    3.953 --     4 C    1.595     2 C    1.230    42 H    0.977
     4   6 C    3.959 --     3 C    1.595     5 C    1.235    43 H    0.974
     5   6 C    3.896 --     7 C    1.305     4 C    1.235     6 N    1.175
     6   7 N    3.468 --     5 C    1.175     2 C    1.170    44 H    0.874
     7   6 C    3.938 --     8 C    1.332     5 C    1.305    33 C    1.028
     8   6 C    3.916 --     7 C    1.332    11 N    1.288     9 C    1.127
     9   6 C    3.965 --    10 C    1.706     8 C    1.127    45 H    0.974
    10   6 C    3.964 --     9 C    1.706    12 C    1.131    46 H    0.969
    11   7 N    3.020 --    12 C    1.342     8 C    1.288
    12   6 C    3.913 --    11 N    1.342    13 C    1.257    10 C    1.131
    13   6 C    3.937 --    12 C    1.257    14 C    1.253   139 C    1.183
    14   6 C    3.889 --    13 C    1.253    15 C    1.251    32 N    1.188
    15   6 C    3.959 --    16 C    1.580    14 C    1.251    47 H    0.969
    16   6 C    3.955 --    15 C    1.580    17 C    1.242    48 H    0.974
    17   6 C    3.899 --    18 C    1.307    16 C    1.242    32 N    1.166
    18   6 C    3.924 --    27 C    1.323    17 C    1.307    19 C    1.030
    19   6 C    3.988 --    20 C    1.395    26 C    1.395    18 C    1.030
                            23 C    0.102
    20   6 C    3.986 --    21 C    1.418    19 C    1.395    49 H    0.972
                            24 C    0.103
    21   6 C    3.988 --    20 C    1.418    23 C    1.415    22 C    1.020
                            26 C    0.103
    22   6 C    3.996 --    21 C    1.020    52 H    0.983    51 H    0.982
                            50 H    0.971
    23   6 C    3.987 --    21 C    1.415    24 C    1.415    53 H    0.972
                            19 C    0.102
    24   6 C    3.988 --    26 C    1.418    23 C    1.415    25 C    1.020
                            20 C    0.103
    25   6 C    3.996 --    24 C    1.020    54 H    0.983    55 H    0.982
                            56 H    0.971
    26   6 C    3.985 --    24 C    1.418    19 C    1.395    57 H    0.972
                            21 C    0.103
    27   6 C    3.929 --    18 C    1.323    31 N    1.315    28 C    1.118
    28   6 C    3.967 --    29 C    1.722    27 C    1.118    58 H    0.974
    29   6 C    3.966 --    28 C    1.722    30 C    1.117    59 H    0.976
    30   6 C    3.930 --     1 C    1.364    31 N    1.302    29 C    1.117
    31   7 N    3.009 --    27 C    1.315    30 C    1.302
    32   7 N    3.473 --    14 C    1.188    17 C    1.166    60 H    0.873
    33   6 C    3.988 --    34 C    1.400    40 C    1.392     7 C    1.028
                            37 C    0.102
    34   6 C    3.987 --    35 C    1.413    33 C    1.400    61 H    0.972
                            38 C    0.104
    35   6 C    3.988 --    37 C    1.420    34 C    1.413    36 C    1.020
                            40 C    0.103
    36   6 C    3.996 --    35 C    1.020    63 H    0.985    62 H    0.980
                            64 H    0.972
    37   6 C    3.987 --    35 C    1.420    38 C    1.410    65 H    0.972
                            33 C    0.102
    38   6 C    3.988 --    40 C    1.422    37 C    1.410    39 C    1.020
                            34 C    0.104
    39   6 C    3.996 --    38 C    1.020    68 H    0.984    66 H    0.981
                            67 H    0.971
    40   6 C    3.986 --    38 C    1.422    33 C    1.392    69 H    0.972
                            35 C    0.103
    41   1 H    1.002 --     1 C    0.971
    42   1 H    0.998 --     3 C    0.977
    43   1 H    1.005 --     4 C    0.974
    44   1 H    0.986 --     6 N    0.874
    45   1 H    1.005 --     9 C    0.974
    46   1 H    1.007 --    10 C    0.969
    47   1 H    1.007 --    15 C    0.969
    48   1 H    1.005 --    16 C    0.974
    49   1 H    1.003 --    20 C    0.972
    50   1 H    1.006 --    22 C    0.971
    51   1 H    1.004 --    22 C    0.982
    52   1 H    1.004 --    22 C    0.983
    53   1 H    1.000 --    23 C    0.972
    54   1 H    1.004 --    25 C    0.983
    55   1 H    1.004 --    25 C    0.982
    56   1 H    1.006 --    25 C    0.971
    57   1 H    1.003 --    26 C    0.972
    58   1 H    1.006 --    28 C    0.974
    59   1 H    0.999 --    29 C    0.976
    60   1 H    0.988 --    32 N    0.873
    61   1 H    1.003 --    34 C    0.972
    62   1 H    1.005 --    36 C    0.980
    63   1 H    1.004 --    36 C    0.985
    64   1 H    1.006 --    36 C    0.972
    65   1 H    1.000 --    37 C    0.972
    66   1 H    1.005 --    39 C    0.981
    67   1 H    1.006 --    39 C    0.971
    68   1 H    1.004 --    39 C    0.984
    69   1 H    1.003 --    40 C    0.972
    70   6 C    3.923 --    99 C    1.364    71 C    1.346   110 H    0.971
    71   6 C    3.903 --    70 C    1.346    72 C    1.230    75 N    1.170
    72   6 C    3.953 --    73 C    1.595    71 C    1.230   111 H    0.977
    73   6 C    3.959 --    72 C    1.595    74 C    1.235   112 H    0.974
    74   6 C    3.896 --    76 C    1.305    73 C    1.235    75 N    1.175
    75   7 N    3.468 --    74 C    1.175    71 C    1.170   113 H    0.874
    76   6 C    3.938 --    77 C    1.332    74 C    1.305   102 C    1.028
    77   6 C    3.916 --    76 C    1.332    80 N    1.288    78 C    1.127
    78   6 C    3.965 --    79 C    1.706    77 C    1.127   114 H    0.974
    79   6 C    3.964 --    78 C    1.706    81 C    1.131   115 H    0.969
    80   7 N    3.020 --    81 C    1.342    77 C    1.288
    81   6 C    3.913 --    80 N    1.342    82 C    1.257    79 C    1.131
    82   6 C    3.937 --    81 C    1.257    83 C    1.253   140 C    1.183
    83   6 C    3.889 --    82 C    1.253    84 C    1.251   101 N    1.188
    84   6 C    3.959 --    85 C    1.580    83 C    1.251   116 H    0.969
    85   6 C    3.955 --    84 C    1.580    86 C    1.242   117 H    0.974
    86   6 C    3.899 --    87 C    1.307    85 C    1.242   101 N    1.166
    87   6 C    3.924 --    96 C    1.323    86 C    1.307    88 C    1.030
    88   6 C    3.988 --    89 C    1.395    95 C    1.395    87 C    1.030
                            92 C    0.102
    89   6 C    3.986 --    90 C    1.418    88 C    1.395   118 H    0.972
                            93 C    0.103
    90   6 C    3.988 --    89 C    1.418    92 C    1.415    91 C    1.020
                            95 C    0.103
    91   6 C    3.996 --    90 C    1.020   121 H    0.983   120 H    0.982
                           119 H    0.971
    92   6 C    3.987 --    90 C    1.415    93 C    1.415   122 H    0.972
                            88 C    0.102
    93   6 C    3.988 --    95 C    1.418    92 C    1.415    94 C    1.020
                            89 C    0.103
    94   6 C    3.996 --    93 C    1.020   123 H    0.983   124 H    0.982
                           125 H    0.971
    95   6 C    3.985 --    93 C    1.418    88 C    1.395   126 H    0.972
                            90 C    0.103
    96   6 C    3.929 --    87 C    1.323   100 N    1.315    97 C    1.118
    97   6 C    3.967 --    98 C    1.722    96 C    1.118   127 H    0.974
    98   6 C    3.966 --    97 C    1.722    99 C    1.117   128 H    0.976
    99   6 C    3.930 --    70 C    1.364   100 N    1.302    98 C    1.117
   100   7 N    3.009 --    96 C    1.315    99 C    1.302
   101   7 N    3.473 --    83 C    1.188    86 C    1.166   129 H    0.873
   102   6 C    3.988 --   103 C    1.400   109 C    1.392    76 C    1.028
                           106 C    0.102
   103   6 C    3.987 --   104 C    1.413   102 C    1.400   130 H    0.972
                           107 C    0.104
   104   6 C    3.988 --   106 C    1.420   103 C    1.413   105 C    1.020
                           109 C    0.103
   105   6 C    3.996 --   104 C    1.020   132 H    0.985   131 H    0.980
                           133 H    0.972
   106   6 C    3.987 --   104 C    1.420   107 C    1.410   134 H    0.972
                           102 C    0.102
   107   6 C    3.988 --   109 C    1.422   106 C    1.410   108 C    1.020
                           103 C    0.104
   108   6 C    3.996 --   107 C    1.020   137 H    0.984   135 H    0.981
                           136 H    0.971
   109   6 C    3.986 --   107 C    1.422   102 C    1.392   138 H    0.972
                           104 C    0.103
   110   1 H    1.002 --    70 C    0.971
   111   1 H    0.998 --    72 C    0.977
   112   1 H    1.005 --    73 C    0.974
   113   1 H    0.986 --    75 N    0.874
   114   1 H    1.005 --    78 C    0.974
   115   1 H    1.007 --    79 C    0.969
   116   1 H    1.007 --    84 C    0.969
   117   1 H    1.005 --    85 C    0.974
   118   1 H    1.003 --    89 C    0.972
   119   1 H    1.006 --    91 C    0.971
   120   1 H    1.004 --    91 C    0.982
   121   1 H    1.004 --    91 C    0.983
   122   1 H    1.000 --    92 C    0.972
   123   1 H    1.004 --    94 C    0.983
   124   1 H    1.004 --    94 C    0.982
   125   1 H    1.006 --    94 C    0.971
   126   1 H    1.003 --    95 C    0.972
   127   1 H    1.006 --    97 C    0.974
   128   1 H    0.999 --    98 C    0.976
   129   1 H    0.988 --   101 N    0.873
   130   1 H    1.003 --   103 C    0.972
   131   1 H    1.005 --   105 C    0.980
   132   1 H    1.004 --   105 C    0.985
   133   1 H    1.006 --   105 C    0.972
   134   1 H    1.000 --   106 C    0.972
   135   1 H    1.005 --   108 C    0.981
   136   1 H    1.006 --   108 C    0.971
   137   1 H    1.004 --   108 C    0.984
   138   1 H    1.003 --   109 C    0.972
   139   6 C    3.933 --   140 C    2.572    13 C    1.183
   140   6 C    3.933 --   139 C    2.572    82 C    1.183
 ---------------------------------------------------------------------------

           -------------------------------------------------
          | TOTAL ENERGY             -213.200909910420 Eh   |
          | GRADIENT NORM               0.000439978018 Eh/α |
          | HOMO-LUMO GAP               0.975674472292 eV   |
           -------------------------------------------------

 * finished run on 2022/07/27 at 13:54:07.313
