   * xtb version 6.5.1 (b24c23e) compiled by 'conda@728c89f4b128' on 2022-07-12
          program call               : xtb Fe_PhOH_C8_2.xyz --gfn 1 --opt -T 48

   ID    Z sym.   atoms
    1   26 Fe     1, 59
    2    6 C      2-6, 8-12, 14-18, 20-25, 27-31, 33-38, 60-64, 66-70, 72-76,
                  78-83, 85-89, 91-96, 117-124
    3    7 N      7, 19, 26, 39, 65, 77, 84, 97
    4    8 O      13, 32, 71, 90
    5    1 H      40-58, 98-116
########################################################################
[WARNING] Please study the warnings concerning your input carefully
-1- prog_main_parseArguments: Unknown option '-T' provided
########################################################################

          :  Hamiltonian                  GFN1-xTB          :
 * total energy  :  -221.9365081 Eh     change       -0.1084086E-07 Eh
 * total energy  :  -222.6026019 Eh     change       -0.6660938E+00 Eh
 * total energy  :  -222.7220194 Eh     change       -0.1194175E+00 Eh
 * total energy  :  -222.7750658 Eh     change       -0.5304642E-01 Eh
 * total energy  :  -222.7964012 Eh     change       -0.2133534E-01 Eh
 * total energy  :  -222.8066366 Eh     change       -0.1023544E-01 Eh
 * total energy  :  -222.8135765 Eh     change       -0.6939837E-02 Eh
 * total energy  :  -222.8189410 Eh     change       -0.5364551E-02 Eh
 * total energy  :  -222.8226920 Eh     change       -0.3751032E-02 Eh
 * total energy  :  -222.8253808 Eh     change       -0.2688731E-02 Eh
 * total energy  :  -222.8337555 Eh     change       -0.1006406E-04 Eh
 * total energy  :  -222.8337633 Eh     change       -0.7794281E-05 Eh
 * total energy  :  -222.8337687 Eh     change       -0.5434276E-05 Eh
 * total energy  :  -222.8337739 Eh     change       -0.5175543E-05 Eh
 * total energy  :  -222.8337669 Eh     change        0.7067787E-05 Eh
 * total energy  :  -222.8337762 Eh     change       -0.9371959E-05 Eh
 * total energy  :  -222.8337442 Eh     change        0.3205506E-04 Eh
 * total energy  :  -222.8337759 Eh     change       -0.3171370E-04 Eh
 * total energy  :  -222.8337804 Eh     change       -0.4492117E-05 Eh
   *** GEOMETRY OPTIMIZATION CONVERGED AFTER 48 ITERATIONS ***

 final structure:
================
124
 xtb: 6.5.1 (b24c23e)
Fe          13.03114034672944       -0.03413499593661       -0.11902082898756
C            9.65090732814294       -0.08052968059064       -0.31277796297092
C           10.31207928825060       -1.29127256987977       -0.30954403411737
C            9.64296239734718       -2.55557649305483       -0.36885059500903
C           10.59294702083251       -3.50488203502836       -0.19823511443730
C           11.84517210553488       -2.81929244394540       -0.05879566084546
N           11.66017564810863       -1.46556488346655       -0.13492214911856
C           13.05761494841987       -3.45541135516181        0.18842184478548
C           13.07016218501471       -4.93138096727491        0.33434662019030
C           12.72648332098760       -5.75536942747866       -0.73722828149843
C           12.74009281317247       -7.13503069862697       -0.60110081467901
C           13.09286258595024       -7.70576767867217        0.61961615838016
O           13.11439437470559       -9.05155374566834        0.79808478938496
C           13.43727455935483       -6.89278676440196        1.69805566113493
C           13.42925388009402       -5.51712651471884        1.55035172882603
C           14.26111668310737       -2.77100120144728        0.27953699435959
C           15.53128643576617       -3.41596984310777        0.43337501821993
C           16.47562825820191       -2.45060530257748        0.32797826949775
N           14.43200577568311       -1.41680473321310        0.11091767288834
C           15.78053060216796       -1.21942664777518        0.11880252301883
C           16.43473418846846        0.00345313237213       -0.07937567575253
C           15.75326709845654        1.21906639404561       -0.21804382085469
C           16.41906213787228        2.47171244936848       -0.39013033692676
C           15.45793760603985        3.42673200429574       -0.37537432209596
C           14.20687702355150        2.75198204392352       -0.19765491308207
N           14.40399956782947        1.39381680610642       -0.12732742236505
C           12.98259801276699        3.40173404312831       -0.11129982851830
C           12.96584749415091        4.88306852577369       -0.11008742367980
C           13.61103859396733        5.59809390440539        0.90223220433442
C           13.59437662930220        6.98131949524145        0.91365642922683
C           12.93542361515758        7.67337271791893       -0.10110468468484
O           12.94116150140727        9.03024452324766       -0.06104086870827
C           12.29478324602058        6.97402227136980       -1.12147148840927
C           12.30927027821513        5.58801758960603       -1.11969713599228
C           11.77173698559645        2.71873738482665       -0.05817012360107
C           10.49078687207133        3.36047085021625        0.01479470622640
C            9.55766196102158        2.38377246437616       -0.07753330666502
C           10.26899495268741        1.14570167888954       -0.17789265668174
N           11.62147725919622        1.35975327856181       -0.12982416464589
H            8.56971669622951       -0.09527475604683       -0.39368027053360
H            8.58020865978047       -2.67968132376460       -0.50404167757833
H           10.46680468459684       -4.57462267254172       -0.15881626680057
H           12.46387322802657       -5.31249467759296       -1.69148237596168
H           12.47893345691731       -7.77183789580103       -1.43950938970873
H           12.85898984634218       -9.51855068658633       -0.00876639852985
H           13.70731109264431       -7.35039229629801        2.64171981834957
H           13.68797336496364       -4.88367417550825        2.39137373066192
H           15.67272184727001       -4.47458954585265        0.57785251235919
H           17.54794105359695       -2.54881292116892        0.38018685168065
H           17.48475973615931        2.58976477302117       -0.50276499196836
H           15.57465535829188        4.49211506069267       -0.48921485309652
H           14.11396514330760        5.05956617067166        1.69759239819426
H           14.08606911603461        7.53809051100786        1.70172651986060
H           12.45547200530272        9.40741915882886       -0.80686914419184
H           11.78906978660806        7.51662980552506       -1.91298753167655
H           11.82254785839836        5.04551659027407       -1.92252814230897
H           10.33662115607911        4.42156977162529        0.12496333534962
H            8.48291111251347        2.47312683712493       -0.06971800833824
Fe          31.56976679699395        0.01391224872882       -0.12225615956611
C           34.95040090928838        0.03433553615411       -0.31630798613077
C           34.28865296629623        1.23259605597288       -0.48752551796275
C           34.95718293402830        2.47577408776830       -0.72688081759142
C           34.00636256129018        3.43898026864811       -0.69624286649257
C           32.75431888140277        2.77957429262669       -0.46151784827626
N           32.94016913371354        1.42910747443556       -0.34194962418800
C           31.54124425170448        3.44376309067074       -0.30979790857092
C           31.52783530654569        4.92541787701054       -0.37746328301019
C           31.87059671411104        5.58703041607753       -1.55648169747303
C           31.85620211273580        6.97193517751409       -1.62000185762086
C           31.50368499171996        7.71196254940795       -0.49375536240560
O           31.48140081188947        9.06942593702172       -0.51050751378336
C           31.16022130794891        7.06220076298124        0.69048395804631
C           31.16892444187548        5.67958528251267        0.74194947402421
C           30.33800965225349        2.77881847128113       -0.12239734870878
C           29.06744773268830        3.43848437932199       -0.06352834021751
C           28.12366045863057        2.46744711681987       -0.02933451776794
N           30.16789886067498        1.41433435133657       -0.09476963626755
C           28.81948116827682        1.21935599105359       -0.05919362922155
C           28.16598244812511       -0.01971540261328       -0.07953403718476
C           28.84811878164382       -1.24220389222589       -0.04189550917286
C           28.18297483470122       -2.50691818250768       -0.03193360196534
C           29.14463553543217       -3.44937909181033        0.11968920288560
C           30.39531800470879       -2.75539559288946        0.19850569329841
N           30.19747039138408       -1.40132074320006        0.07302006626830
C           31.61988945862498       -3.38538593982568        0.37715246137445
C           31.63746186438359       -4.85128647729740        0.59071810754362
C           30.99447673694511       -5.41391802286347        1.69628684684066
C           31.01221655672096       -6.78118581740580        1.90606749532033
C           31.66991252366593       -7.61136022832300        0.99990527038788
O           31.66523022726519       -8.94845404757626        1.23427024430572
C           32.30830792844413       -7.06536077228004       -0.11139963574101
C           32.29289345478757       -5.69343662823785       -0.30844260785561
C           32.83040434234967       -2.70123120830000        0.33244189072826
C           34.11152652047442       -3.32535431992618        0.49722546172185
C           35.04435025657059       -2.37121134709701        0.26783517530163
C           34.33262162479405       -1.16046525818241       -0.00864986653101
N           32.98016555850732       -1.36628416618997        0.06782713058661
H           36.03171412940375        0.03808292887879       -0.39681182684973
H           36.02009882082447        2.57997712092194       -0.87680233077388
H           34.13173107657382        4.50336274360507       -0.81108901518019
H           32.13311259570320        5.01173816704457       -2.43729263699625
H           32.11648754925369        7.48180510980214       -2.54137188296841
H           31.73620590328485        9.41576686453991       -1.37621346595807
H           30.89044812604541        7.65051653090015        1.55877810677272
H           30.91102480786082        5.17340650312335        1.66540256786039
H           28.92546253500723        4.50681107566915       -0.07277394409380
H           27.05127589366491        2.57155299735224        0.00770721504159
H           27.11733376196184       -2.64046119997982       -0.12638620285156
H           29.02857989439921       -4.52012851712697        0.16021287730410
H           30.49244834500611       -4.76706639009297        2.40698638861099
H           30.52235267734465       -7.21934879888426        2.76680062222002
H           32.14983778154085       -9.42852252076083        0.54936042868219
H           32.81305791772900       -7.71568524225476       -0.81777741578516
H           32.77802143307608       -5.27144847694337       -1.18155349231470
H           34.26595240259925       -4.35992238324085        0.75733491844187
H           36.11912896130660       -2.45791597092448        0.28944176544560
C           17.83456358300292        0.01179717489661       -0.11150863163618
C           19.06095756363891        0.00942125488061       -0.13216896016633
C           20.40012166259205        0.00124943766771       -0.14926326191625
C           21.63297949897686       -0.00962176177718       -0.15460428166668
C           22.96746927641352       -0.01986343149584       -0.15472955068836
C           24.20036884769988       -0.02856938048946       -0.14651977924886
C           25.53966806673139       -0.02905493806936       -0.13234294678037
C           26.76609206043904       -0.03334842858470       -0.10732569155301

          :  Hamiltonian                  GFN1-xTB          :
         :: total energy            -222.833780373015 Eh    ::
         :: gradient norm              0.000606939567 Eh/a0 ::
         :: HOMO-LUMO gap              0.091424187805 eV    ::
         :: SCC energy              -226.367648060816 Eh    ::
         :: repulsion energy           3.642861034680 Eh    ::

    * Orbital Energies and Occupations

         #    Occupation            Energy/Eh            Energy/eV
      -------------------------------------------------------------
         1        2.0000           -0.8066951             -21.9513
       ...           ...                  ...                  ...
       191        2.0000           -0.4204305             -11.4405
       192        2.0000           -0.4163915             -11.3306
       193        2.0000           -0.4105663             -11.1721
       194        2.0000           -0.3963098             -10.7841
       195        2.0000           -0.3963001             -10.7839
       196        2.0000           -0.3932738             -10.7015
       197        1.9933           -0.3880439             -10.5592
       198        1.9902           -0.3876818             -10.5494
       199        1.9513           -0.3861394             -10.5074
       200        1.9507           -0.3861272             -10.5071
       201        1.9458           -0.3860360             -10.5046
       202        1.9458           -0.3860357             -10.5046
       203        1.7113           -0.3843246             -10.4580 (HOMO)
       204        0.2944           -0.3809648             -10.3666 (LUMO)
       205        0.2174           -0.3806348             -10.3576
       206                         -0.3397434              -9.2449
       207                         -0.3283207              -8.9341
       208                         -0.3266744              -8.8893
       209                         -0.3266554              -8.8887
       210                         -0.3051991              -8.3049
       211                         -0.3026442              -8.2354
       212                         -0.3002012              -8.1689
       213                         -0.3001892              -8.1686
       214                         -0.2927571              -7.9663
       ...                                ...                  ...
       430                          1.5988659              43.5074
      -------------------------------------------------------------
                  HL-Gap            0.0033598 Eh            0.0914 eV

Wiberg/Mayer (AO) data.
largest (>0.10) Wiberg bond orders for each atom

     #   Z sym  total        # sym  WBO       # sym  WBO       # sym  WBO
 ---------------------------------------------------------------------------
     1  26 Fe   3.163 --    39 N    0.671     7 N    0.666    19 N    0.665
                            26 N    0.660
     2   6 C    3.925 --     3 C    1.363    38 C    1.361    40 H    0.970
     3   6 C    3.925 --     2 C    1.363     7 N    1.209     4 C    1.173
     4   6 C    3.959 --     5 C    1.649     3 C    1.173    41 H    0.975
     5   6 C    3.962 --     4 C    1.649     6 C    1.176    42 H    0.973
     6   6 C    3.920 --     8 C    1.311     7 N    1.227     5 C    1.176
     7   7 N    3.380 --     6 C    1.227     3 C    1.209     1 Fe   0.666
     8   6 C    3.928 --    16 C    1.337     6 C    1.311     9 C    1.025
     9   6 C    3.988 --    10 C    1.394    15 C    1.384     8 C    1.025
    10   6 C    3.987 --    11 C    1.452     9 C    1.394    43 H    0.973
                            14 C    0.105
    11   6 C    3.988 --    10 C    1.452    12 C    1.372    44 H    0.970
                            15 C    0.103
    12   6 C    3.901 --    11 C    1.372    14 C    1.364    13 O    1.041
    13   8 O    2.044 --    12 C    1.041    45 H    0.865
    14   6 C    3.990 --    15 C    1.466    12 C    1.364    46 H    0.971
                            10 C    0.105
    15   6 C    3.988 --    14 C    1.466     9 C    1.384    47 H    0.973
                            11 C    0.103
    16   6 C    3.917 --     8 C    1.337    19 N    1.198    17 C    1.179
    17   6 C    3.957 --    18 C    1.638    16 C    1.179    48 H    0.973
    18   6 C    3.960 --    17 C    1.638    20 C    1.189    49 H    0.973
    19   7 N    3.382 --    20 C    1.247    16 C    1.198     1 Fe   0.665
    20   6 C    3.904 --    19 N    1.247    21 C    1.247    18 C    1.189
    21   6 C    3.925 --    22 C    1.249    20 C    1.247   117 C    1.207
    22   6 C    3.904 --    21 C    1.249    26 N    1.244    23 C    1.190
    23   6 C    3.960 --    24 C    1.636    22 C    1.190    50 H    0.973
    24   6 C    3.958 --    23 C    1.636    25 C    1.181    51 H    0.973
    25   6 C    3.917 --    27 C    1.330    26 N    1.202    24 C    1.181
    26   7 N    3.380 --    22 C    1.244    25 C    1.202     1 Fe   0.660
    27   6 C    3.928 --    25 C    1.330    35 C    1.313    28 C    1.031
    28   6 C    3.988 --    34 C    1.391    29 C    1.382    27 C    1.031
    29   6 C    3.987 --    30 C    1.468    28 C    1.382    52 H    0.973
                            33 C    0.102
    30   6 C    3.990 --    29 C    1.468    31 C    1.363    53 H    0.971
                            34 C    0.104
    31   6 C    3.900 --    33 C    1.371    30 C    1.363    32 O    1.042
    32   8 O    2.044 --    31 C    1.042    54 H    0.865
    33   6 C    3.988 --    34 C    1.453    31 C    1.371    55 H    0.970
                            29 C    0.102
    34   6 C    3.986 --    33 C    1.453    28 C    1.391    56 H    0.972
                            30 C    0.104
    35   6 C    3.920 --    27 C    1.313    39 N    1.225    36 C    1.176
    36   6 C    3.962 --    37 C    1.647    35 C    1.176    57 H    0.973
    37   6 C    3.959 --    36 C    1.647    38 C    1.175    58 H    0.975
    38   6 C    3.925 --     2 C    1.361    39 N    1.210    37 C    1.175
    39   7 N    3.382 --    35 C    1.225    38 C    1.210     1 Fe   0.671
    40   1 H    1.001 --     2 C    0.970
    41   1 H    0.998 --     4 C    0.975
    42   1 H    1.005 --     5 C    0.973
    43   1 H    1.004 --    10 C    0.973
    44   1 H    0.999 --    11 C    0.970
    45   1 H    0.887 --    13 O    0.865
    46   1 H    0.999 --    14 C    0.971
    47   1 H    1.004 --    15 C    0.973
    48   1 H    1.005 --    17 C    0.973
    49   1 H    1.002 --    18 C    0.973
    50   1 H    1.002 --    23 C    0.973
    51   1 H    1.005 --    24 C    0.973
    52   1 H    1.005 --    29 C    0.973
    53   1 H    0.999 --    30 C    0.971
    54   1 H    0.886 --    32 O    0.865
    55   1 H    0.999 --    33 C    0.970
    56   1 H    1.005 --    34 C    0.972
    57   1 H    1.005 --    36 C    0.973
    58   1 H    0.998 --    37 C    0.975
    59  26 Fe   3.162 --    97 N    0.671    65 N    0.666    77 N    0.665
                            84 N    0.660
    60   6 C    3.925 --    61 C    1.363    96 C    1.361    98 H    0.970
    61   6 C    3.925 --    60 C    1.363    65 N    1.209    62 C    1.173
    62   6 C    3.959 --    63 C    1.649    61 C    1.173    99 H    0.975
    63   6 C    3.962 --    62 C    1.649    64 C    1.176   100 H    0.973
    64   6 C    3.920 --    66 C    1.311    65 N    1.227    63 C    1.176
    65   7 N    3.380 --    64 C    1.227    61 C    1.209    59 Fe   0.666
    66   6 C    3.928 --    74 C    1.337    64 C    1.311    67 C    1.024
    67   6 C    3.988 --    68 C    1.394    73 C    1.384    66 C    1.024
    68   6 C    3.987 --    69 C    1.452    67 C    1.394   101 H    0.973
                            72 C    0.105
    69   6 C    3.988 --    68 C    1.452    70 C    1.372   102 H    0.970
                            73 C    0.103
    70   6 C    3.901 --    69 C    1.372    72 C    1.364    71 O    1.041
    71   8 O    2.044 --    70 C    1.041   103 H    0.865
    72   6 C    3.990 --    73 C    1.466    70 C    1.364   104 H    0.971
                            68 C    0.105
    73   6 C    3.988 --    72 C    1.466    67 C    1.384   105 H    0.973
                            69 C    0.103
    74   6 C    3.917 --    66 C    1.337    77 N    1.198    75 C    1.179
    75   6 C    3.957 --    76 C    1.638    74 C    1.179   106 H    0.973
    76   6 C    3.960 --    75 C    1.638    78 C    1.189   107 H    0.973
    77   7 N    3.382 --    78 C    1.248    74 C    1.198    59 Fe   0.665
    78   6 C    3.904 --    77 N    1.248    79 C    1.247    76 C    1.189
    79   6 C    3.925 --    80 C    1.249    78 C    1.247   124 C    1.207
    80   6 C    3.904 --    79 C    1.249    84 N    1.244    81 C    1.190
    81   6 C    3.960 --    82 C    1.636    80 C    1.190   108 H    0.973
    82   6 C    3.958 --    81 C    1.636    83 C    1.181   109 H    0.973
    83   6 C    3.917 --    85 C    1.330    84 N    1.202    82 C    1.181
    84   7 N    3.380 --    80 C    1.244    83 C    1.202    59 Fe   0.660
    85   6 C    3.928 --    83 C    1.330    93 C    1.313    86 C    1.031
    86   6 C    3.988 --    92 C    1.391    87 C    1.382    85 C    1.031
    87   6 C    3.987 --    88 C    1.468    86 C    1.382   110 H    0.973
                            91 C    0.102
    88   6 C    3.990 --    87 C    1.468    89 C    1.363   111 H    0.971
                            92 C    0.104
    89   6 C    3.900 --    91 C    1.371    88 C    1.363    90 O    1.042
    90   8 O    2.044 --    89 C    1.042   112 H    0.865
    91   6 C    3.988 --    92 C    1.453    89 C    1.371   113 H    0.970
                            87 C    0.102
    92   6 C    3.987 --    91 C    1.453    86 C    1.391   114 H    0.972
                            88 C    0.104
    93   6 C    3.920 --    85 C    1.313    97 N    1.225    94 C    1.176
    94   6 C    3.962 --    95 C    1.647    93 C    1.176   115 H    0.973
    95   6 C    3.959 --    94 C    1.647    96 C    1.175   116 H    0.975
    96   6 C    3.925 --    60 C    1.361    97 N    1.210    95 C    1.175
    97   7 N    3.382 --    93 C    1.225    96 C    1.210    59 Fe   0.671
    98   1 H    1.001 --    60 C    0.970
    99   1 H    0.998 --    62 C    0.975
   100   1 H    1.005 --    63 C    0.973
   101   1 H    1.004 --    68 C    0.973
   102   1 H    0.999 --    69 C    0.970
   103   1 H    0.887 --    71 O    0.865
   104   1 H    0.999 --    72 C    0.971
   105   1 H    1.004 --    73 C    0.973
   106   1 H    1.005 --    75 C    0.973
   107   1 H    1.002 --    76 C    0.973
   108   1 H    1.002 --    81 C    0.973
   109   1 H    1.004 --    82 C    0.973
   110   1 H    1.005 --    87 C    0.973
   111   1 H    0.999 --    88 C    0.971
   112   1 H    0.886 --    90 O    0.865
   113   1 H    0.999 --    91 C    0.970
   114   1 H    1.005 --    92 C    0.972
   115   1 H    1.005 --    94 C    0.973
   116   1 H    0.998 --    95 C    0.975
   117   6 C    3.866 --   118 C    2.411    21 C    1.207   120 C    0.182
   118   6 C    3.923 --   117 C    2.411   119 C    1.363
   119   6 C    3.881 --   120 C    2.306   118 C    1.363   122 C    0.178
   120   6 C    3.914 --   119 C    2.306   121 C    1.389   117 C    0.182
   121   6 C    3.914 --   122 C    2.306   120 C    1.389   124 C    0.182
   122   6 C    3.881 --   121 C    2.306   123 C    1.363   119 C    0.178
   123   6 C    3.923 --   124 C    2.411   122 C    1.363
   124   6 C    3.866 --   123 C    2.411    79 C    1.207   121 C    0.182
 ---------------------------------------------------------------------------

           -------------------------------------------------
          | TOTAL ENERGY             -222.833780373015 Eh   |
          | GRADIENT NORM               0.000606939567 Eh/α |
          | HOMO-LUMO GAP               0.091424187805 eV   |
           -------------------------------------------------

 * finished run on 2022/07/29 at 20:53:15.032
