   * xtb version 6.5.1 (b24c23e) compiled by 'conda@728c89f4b128' on 2022-07-12
          program call               : xtb Zn_Ph3OH_C6_2.xyz --gfn 1 --opt -T 48

   ID    Z sym.   atoms
    1   30 Zn     1, 63
    2    6 C      2-6, 8-11, 13, 15, 17-20, 22-27, 29-32, 34, 36, 38-42,
                  64-68, 70-73, 75, 77, 79-82, 84-89, 91-94, 96, 98, 100-104,
                  125-130
    3    7 N      7, 21, 28, 43, 69, 83, 90, 105
    4    8 O      12, 14, 16, 33, 35, 37, 74, 76, 78, 95, 97, 99
    5    1 H      44-62, 106-124
########################################################################
[WARNING] Please study the warnings concerning your input carefully
-1- prog_main_parseArguments: Unknown option '-T' provided
########################################################################

          :  Hamiltonian                  GFN1-xTB          :
 * total energy  :  -251.6659654 Eh     change       -0.2374918E-09 Eh
 * total energy  :  -251.7815626 Eh     change       -0.1155972E+00 Eh
 * total energy  :  -251.8453621 Eh     change       -0.6379950E-01 Eh
 * total energy  :  -251.8655268 Eh     change       -0.2016466E-01 Eh
 * total energy  :  -251.8757947 Eh     change       -0.1026793E-01 Eh
 * total energy  :  -251.8809173 Eh     change       -0.5122648E-02 Eh
 * total energy  :  -251.8836169 Eh     change       -0.2699527E-02 Eh
 * total energy  :  -251.8852645 Eh     change       -0.1647647E-02 Eh
 * total energy  :  -251.8860560 Eh     change       -0.7914800E-03 Eh
 * total energy  :  -251.8867376 Eh     change       -0.6815864E-03 Eh
 * total energy  :  -251.8915023 Eh     change       -0.7675612E-04 Eh
 * total energy  :  -251.8915603 Eh     change       -0.5803300E-04 Eh
 * total energy  :  -251.8916047 Eh     change       -0.4436703E-04 Eh
 * total energy  :  -251.8916467 Eh     change       -0.4199408E-04 Eh
 * total energy  :  -251.8916862 Eh     change       -0.3946155E-04 Eh
 * total energy  :  -251.8916958 Eh     change       -0.9677504E-05 Eh
 * total energy  :  -251.8917029 Eh     change       -0.7054526E-05 Eh
 * total energy  :  -251.8917114 Eh     change       -0.8540991E-05 Eh
 * total energy  :  -251.8917164 Eh     change       -0.4928864E-05 Eh
   *** GEOMETRY OPTIMIZATION CONVERGED AFTER 41 ITERATIONS ***

 final structure:
================
130
 xtb: 6.5.1 (b24c23e)
Zn          14.69456755154704        0.04430919899252       -0.00332581285894
C           11.29008106537581        0.08199486495973       -0.18399802943714
C           11.91999947789001        1.31885940457611       -0.11591047703403
C           11.24514173042592        2.58588495272592       -0.07589466898299
C           12.20258760799468        3.54335294417516        0.00340118219840
C           13.47621259502369        2.87313619025604        0.00169602954498
N           13.26863056563261        1.52601485452578       -0.06174188875837
C           14.72623509721047        3.50024871658946        0.07774355046346
C           14.74037487748512        4.98502298548411        0.11296289098964
C           14.21429413877308        5.71665570396844       -0.95213927497616
C           14.23186449936352        7.10610217221141       -0.92092241435772
O           13.72927735405254        7.82615111883344       -1.95409216837396
C           14.77233684922538        7.77015818356353        0.18121751311451
O           14.77486203175176        9.14095230545342        0.18510238416837
C           15.29520498917468        7.04032342222792        1.24544253466927
O           15.80592910299849        7.76137791170667        2.29333533108118
C           15.28355310518922        5.65142433206535        1.21488596802479
C           15.96377633165411        2.84782409212640        0.11976805491909
C           17.24529652151211        3.49763527053618        0.13698287544933
C           18.18926318520903        2.52219711217889        0.16252949494393
N           16.15503279839018        1.49155460672764        0.12178300882060
C           17.49598796358199        1.26793773283056        0.15238623601634
C           18.12546438563752        0.00631706526703        0.15831034261897
C           17.47095266048917       -1.24129768261086        0.11474156402242
C           18.13752348777034       -2.51032742942718        0.09961627173665
C           17.17403909482849       -3.46420699037388        0.03421120096127
C           15.90712002670722       -2.78643007017670        0.01478618998117
N           16.12610283655352       -1.43495063971442        0.06091104238372
C           14.65856984990945       -3.40994190041846       -0.07651159746709
C           14.64125785759940       -4.89587131911808       -0.10961144158468
C           15.09873028751794       -5.62779088166717        0.98620383392265
C           15.07466350837725       -7.01731406007278        0.95569391731465
O           15.50683606847251       -7.73894846412270        2.01931463119130
C           14.60100546143521       -7.67978173047158       -0.17797552095474
O           14.59282740828537       -9.05077083568911       -0.18122759606439
C           14.14943540949028       -6.94883528263298       -1.27384967820999
O           13.70435489584171       -7.66831175154378       -2.35267648161964
C           14.16277444405678       -5.55986185076236       -1.24232871971903
C           13.42221147266490       -2.75598079422351       -0.14292865033235
C           12.13722931860051       -3.40152168011736       -0.19488960416917
C           11.19784136635648       -2.42324698559884       -0.22850411633823
C           11.89579200071250       -1.16890471645895       -0.18896581128999
N           13.23978081520558       -1.40391673721704       -0.13615492593221
H           10.20529533385066        0.09384227780804       -0.22650013266613
H           10.17421294188741        2.71406636116171       -0.09848565623373
H           12.06260874267101        4.61040796385496        0.06904080733428
H           13.80766612971973        5.21236671536037       -1.81923394509747
H           13.83426036614356        8.76940724286022       -1.74692408076884
H           15.18593537503266        9.43559582383778        1.01330138940537
H           16.15599647160823        7.17366400527167        2.97554026142770
H           15.67902407655864        5.09061145556964        2.05367814585841
H           17.40302590628714        4.56398836603108        0.11569038346186
H           19.26168394034243        2.63504444100147        0.17879407763851
H           19.20699864205945       -2.64576557802266        0.12962369938380
H           17.30720426292171       -4.53320862211827       -0.00847860937259
H           15.45716359877902       -5.12373305504469        1.87450370507361
H           15.41059126102276       -8.68185105557005        1.80623660181082
H           14.23906741622326       -9.34429340853356       -1.03618760750189
H           13.41870190696667       -7.07919861555049       -3.06316367802472
H           13.82004038587099       -4.99711888071547       -2.10291055209963
H           11.97827098665902       -4.46814244517037       -0.19268636002334
H           10.12502225135549       -2.53014222070854       -0.26867110700226
Zn          30.73065023989377       -0.04426045421808       -0.00831629647450
C           34.13510668503975       -0.06154665325627       -0.19205697812063
C           33.50530336354407       -1.29834171613453       -0.26231542770208
C           34.18008451276611       -2.56200350560993       -0.36374475327179
C           33.22248355778811       -3.52213406631578       -0.39390340193898
C           31.94893476561077       -2.85567395388339       -0.32201204698557
N           32.15661406718735       -1.51002369357253       -0.23320514254698
C           30.69880383590091       -3.48705446278605       -0.31970965542492
C           30.68457797175096       -4.96629616355868       -0.45305193795508
C           31.20937651109597       -5.57238170951260       -1.59482825625339
C           31.19153155651938       -6.95642044800251       -1.72133075000878
O           31.69242110784369       -7.55473835618974       -2.83023192244410
C           30.65266002119100       -7.74111393255361       -0.70069887507079
O           30.65017562899246       -9.10353542732976       -0.85209179665085
C           30.13136004908990       -7.13664727208083        0.44014173193938
O           29.62245491038578       -7.97187208873464        1.40049739705666
C           30.14268905671113       -5.75320614819629        0.56695536562499
C           29.46125283571494       -2.84338995171662       -0.20597214843147
C           28.17971731786344       -3.49073613292122       -0.26505513401317
C           27.23575375652447       -2.52446859443921       -0.12913288819370
N           29.27007918658053       -1.49625548875684       -0.04895688756402
C           27.92911528406180       -1.27745238448782        0.00567228461296
C           27.29983103055789       -0.02484622840861        0.15722732649210
C           27.95452160599977        1.21939539822583        0.25763343907235
C           27.28800530591811        2.48167358795512        0.38942614484585
C           28.25142725749367        3.43689633443767        0.43193987193882
C           29.51831870012136        2.76604401328910        0.33279639782623
N           29.29931042933483        1.41810055014359        0.22442862632403
C           30.76678275658749        3.39615147595342        0.31009896587449
C           30.78412733403779        4.87616557869548        0.44565804146269
C           30.32407882341274        5.47929697627518        1.61634119943594
C           30.34776115689562        6.86331251734940        1.74354671739445
O           29.91253373139688        7.45971473939153        2.88093775201714
C           30.82427162925768        7.65000247883126        0.69356198481115
O           30.83232255056630        9.01250059870113        0.84583284968448
C           31.27875845169644        7.04792676739332       -0.47694615465747
O           31.72679571127583        7.88500071756137       -1.46595851948827
C           31.26515557581610        5.66436434560305       -0.60331037815980
C           32.00299988017137        2.75400229127380        0.16763518069149
C           33.28803173773954        3.40131540315721        0.18653549741039
C           34.22727097954537        2.43300334305868        0.04230572684986
C           33.52926451068973        1.18208993896474       -0.05774927856055
N           32.18533775778446        1.40970564565857        0.02241024608891
H           35.21989597836302       -0.06844151479575       -0.23549028687402
H           35.25104564623718       -2.68704391639668       -0.39896441175738
H           33.36213286314106       -4.58986347097629       -0.44851311168363
H           31.61519731700247       -4.97299249760591       -2.39953620251413
H           31.58743015209125       -8.51538602030212       -2.73117993148254
H           30.24071974172736       -9.49017864445459       -0.06178757853599
H           29.27424686927277       -7.46531771509714        2.14582979531249
H           29.74803491236491       -5.29095118207968        1.46420405591146
H           28.02219049563042       -4.54763919733704       -0.40856400853399
H           26.16327786043110       -2.63816473513841       -0.12753499385950
H           26.21859926874321        2.61268232396056        0.43680110974654
H           28.11798188971519        4.50370765347269        0.51214115598224
H           29.96393440778980        4.87788129411955        2.44108823577672
H           30.00891977013847        8.42070038823247        2.77636945842218
H           31.18856571082790        9.40102095178404        0.03072869902215
H           32.01487684243978        7.38018139414001       -2.23769023253395
H           31.60964450345632        5.20293604966973       -1.52153429605555
H           33.44734413764805        4.46094276020884        0.30802078267150
H           35.30004216567909        2.54380754293022        0.01280208447009
C           23.32689498752147       -0.01243380811737        0.22427511045872
C           22.09842418800512       -0.01109423915723        0.22468657416936
C           20.75417526496391       -0.00924222308707        0.21156374687301
C           19.53018991132201       -0.00614386835844        0.19307493021577
C           24.67114829909622       -0.01377616119869        0.21282936892094
C           25.89510858625142       -0.01619714416970        0.19275631576878

          :  Hamiltonian                  GFN1-xTB          :
         :: total energy            -251.891716361975 Eh    ::
         :: gradient norm              0.000887753498 Eh/a0 ::
         :: HOMO-LUMO gap              1.089694837407 eV    ::
         :: SCC energy              -255.318566893334 Eh    ::
         :: repulsion energy           3.539906190232 Eh    ::

    * Orbital Energies and Occupations

         #    Occupation            Energy/Eh            Energy/eV
      -------------------------------------------------------------
         1        2.0000           -0.8105375             -22.0558
       ...           ...                  ...                  ...
       205        2.0000           -0.4200751             -11.4308
       206        2.0000           -0.4200351             -11.4297
       207        2.0000           -0.4197424             -11.4218
       208        2.0000           -0.4159692             -11.3191
       209        2.0000           -0.4108416             -11.1796
       210        2.0000           -0.4095430             -11.1442
       211        2.0000           -0.4085174             -11.1163
       212        2.0000           -0.4083697             -11.1123
       213        2.0000           -0.4077581             -11.0957
       214        2.0000           -0.3924995             -10.6805
       215        2.0000           -0.3924984             -10.6804
       216        2.0000           -0.3852907             -10.4843
       217        2.0000           -0.3752420             -10.2109 (HOMO)
       218                         -0.3351965              -9.1212 (LUMO)
       219                         -0.3249920              -8.8435
       220                         -0.3249724              -8.8429
       221                         -0.3235626              -8.8046
       222                         -0.2960838              -8.0568
       223                         -0.2886736              -7.8552
       224                         -0.2803213              -7.6279
       225                         -0.2577470              -7.0137
       226                         -0.2520012              -6.8573
       227                         -0.2519947              -6.8571
       228                         -0.2510970              -6.8327
       ...                                ...                  ...
       444                          1.5833131              43.0841
      -------------------------------------------------------------
                  HL-Gap            0.0400455 Eh            1.0897 eV

Wiberg/Mayer (AO) data.
largest (>0.10) Wiberg bond orders for each atom

     #   Z sym  total        # sym  WBO       # sym  WBO       # sym  WBO
 ---------------------------------------------------------------------------
     1  30 Zn   1.997 --     7 N    0.460    43 N    0.459    28 N    0.457
                            21 N    0.456
     2   6 C    3.927 --     3 C    1.358    42 C    1.356    44 H    0.971
     3   6 C    3.922 --     2 C    1.358     7 N    1.233     4 C    1.171
     4   6 C    3.960 --     5 C    1.659     3 C    1.171    45 H    0.976
     5   6 C    3.963 --     4 C    1.659     6 C    1.172    46 H    0.973
     6   6 C    3.917 --     8 C    1.314     7 N    1.244     5 C    1.172
     7   7 N    3.294 --     6 C    1.244     3 C    1.233     1 Zn   0.460
     8   6 C    3.933 --    18 C    1.323     6 C    1.314     9 C    1.028
     9   6 C    3.989 --    10 C    1.398    17 C    1.386     8 C    1.028
    10   6 C    3.977 --     9 C    1.398    11 C    1.380    47 H    0.970
    11   6 C    3.917 --    10 C    1.380    13 C    1.325    12 O    1.051
    12   8 O    2.047 --    11 C    1.051    48 H    0.848
    13   6 C    3.903 --    15 C    1.341    11 C    1.325    14 O    1.020
    14   8 O    2.020 --    13 C    1.020    49 H    0.846
    15   6 C    3.905 --    17 C    1.384    13 C    1.341    16 O    1.013
    16   8 O    2.024 --    15 C    1.013    50 H    0.861
    17   6 C    3.973 --     9 C    1.386    15 C    1.384    51 H    0.969
    18   6 C    3.913 --     8 C    1.323    21 N    1.225    19 C    1.180
    19   6 C    3.960 --    20 C    1.645    18 C    1.180    52 H    0.973
    20   6 C    3.961 --    19 C    1.645    22 C    1.187    53 H    0.974
    21   7 N    3.297 --    22 C    1.263    18 C    1.225     1 Zn   0.456
    22   6 C    3.902 --    21 N    1.263    23 C    1.252    20 C    1.187
    23   6 C    3.938 --    24 C    1.254    22 C    1.252   128 C    1.193
    24   6 C    3.902 --    28 N    1.263    23 C    1.254    25 C    1.186
    25   6 C    3.962 --    26 C    1.647    24 C    1.186    54 H    0.974
    26   6 C    3.960 --    25 C    1.647    27 C    1.179    55 H    0.974
    27   6 C    3.912 --    29 C    1.326    28 N    1.224    26 C    1.179
    28   7 N    3.297 --    24 C    1.263    27 C    1.224     1 Zn   0.457
    29   6 C    3.933 --    27 C    1.326    39 C    1.314    30 C    1.024
    30   6 C    3.989 --    31 C    1.400    38 C    1.388    29 C    1.024
    31   6 C    3.977 --    30 C    1.400    32 C    1.380    56 H    0.970
    32   6 C    3.917 --    31 C    1.380    34 C    1.325    33 O    1.051
    33   8 O    2.047 --    32 C    1.051    57 H    0.848
    34   6 C    3.904 --    36 C    1.342    32 C    1.325    35 O    1.019
    35   8 O    2.020 --    34 C    1.019    58 H    0.847
    36   6 C    3.905 --    38 C    1.384    34 C    1.342    37 O    1.012
    37   8 O    2.023 --    36 C    1.012    59 H    0.861
    38   6 C    3.973 --    30 C    1.388    36 C    1.384    60 H    0.970
    39   6 C    3.918 --    29 C    1.314    43 N    1.244    40 C    1.173
    40   6 C    3.963 --    41 C    1.657    39 C    1.173    61 H    0.974
    41   6 C    3.960 --    40 C    1.657    42 C    1.172    62 H    0.976
    42   6 C    3.922 --     2 C    1.356    43 N    1.233    41 C    1.172
    43   7 N    3.293 --    39 C    1.244    42 C    1.233     1 Zn   0.459
    44   1 H    1.002 --     2 C    0.971
    45   1 H    0.998 --     4 C    0.976
    46   1 H    1.006 --     5 C    0.973
    47   1 H    1.000 --    10 C    0.970
    48   1 H    0.878 --    12 O    0.848
    49   1 H    0.876 --    14 O    0.846
    50   1 H    0.881 --    16 O    0.861
    51   1 H    1.001 --    17 C    0.969
    52   1 H    1.006 --    19 C    0.973
    53   1 H    1.002 --    20 C    0.974
    54   1 H    1.002 --    25 C    0.974
    55   1 H    1.005 --    26 C    0.974
    56   1 H    1.000 --    31 C    0.970
    57   1 H    0.878 --    33 O    0.848
    58   1 H    0.876 --    35 O    0.847
    59   1 H    0.882 --    37 O    0.861
    60   1 H    1.001 --    38 C    0.970
    61   1 H    1.006 --    40 C    0.974
    62   1 H    0.998 --    41 C    0.976
    63  30 Zn   1.997 --    69 N    0.460   105 N    0.459    90 N    0.457
                            83 N    0.456
    64   6 C    3.927 --    65 C    1.358   104 C    1.356   106 H    0.971
    65   6 C    3.922 --    64 C    1.358    69 N    1.233    66 C    1.171
    66   6 C    3.960 --    67 C    1.659    65 C    1.171   107 H    0.976
    67   6 C    3.963 --    66 C    1.659    68 C    1.172   108 H    0.973
    68   6 C    3.917 --    70 C    1.314    69 N    1.244    67 C    1.172
    69   7 N    3.294 --    68 C    1.244    65 C    1.233    63 Zn   0.460
    70   6 C    3.933 --    80 C    1.323    68 C    1.314    71 C    1.028
    71   6 C    3.989 --    72 C    1.398    79 C    1.386    70 C    1.028
    72   6 C    3.977 --    71 C    1.398    73 C    1.380   109 H    0.970
    73   6 C    3.917 --    72 C    1.380    75 C    1.325    74 O    1.051
    74   8 O    2.047 --    73 C    1.051   110 H    0.848
    75   6 C    3.904 --    77 C    1.341    73 C    1.325    76 O    1.020
    76   8 O    2.020 --    75 C    1.020   111 H    0.846
    77   6 C    3.905 --    79 C    1.384    75 C    1.341    78 O    1.013
    78   8 O    2.024 --    77 C    1.013   112 H    0.861
    79   6 C    3.973 --    71 C    1.386    77 C    1.384   113 H    0.969
    80   6 C    3.913 --    70 C    1.323    83 N    1.225    81 C    1.180
    81   6 C    3.960 --    82 C    1.645    80 C    1.180   114 H    0.973
    82   6 C    3.961 --    81 C    1.645    84 C    1.187   115 H    0.974
    83   7 N    3.297 --    84 C    1.263    80 C    1.225    63 Zn   0.456
    84   6 C    3.902 --    83 N    1.263    85 C    1.252    82 C    1.187
    85   6 C    3.938 --    86 C    1.254    84 C    1.252   130 C    1.193
    86   6 C    3.902 --    90 N    1.263    85 C    1.254    87 C    1.186
    87   6 C    3.962 --    88 C    1.647    86 C    1.186   116 H    0.974
    88   6 C    3.960 --    87 C    1.647    89 C    1.179   117 H    0.973
    89   6 C    3.912 --    91 C    1.326    90 N    1.224    88 C    1.179
    90   7 N    3.297 --    86 C    1.263    89 C    1.224    63 Zn   0.457
    91   6 C    3.933 --    89 C    1.326   101 C    1.314    92 C    1.025
    92   6 C    3.989 --    93 C    1.400   100 C    1.388    91 C    1.025
    93   6 C    3.977 --    92 C    1.400    94 C    1.380   118 H    0.970
    94   6 C    3.917 --    93 C    1.380    96 C    1.325    95 O    1.051
    95   8 O    2.047 --    94 C    1.051   119 H    0.848
    96   6 C    3.904 --    98 C    1.341    94 C    1.325    97 O    1.019
    97   8 O    2.019 --    96 C    1.019   120 H    0.847
    98   6 C    3.905 --   100 C    1.384    96 C    1.341    99 O    1.012
    99   8 O    2.023 --    98 C    1.012   121 H    0.861
   100   6 C    3.973 --    92 C    1.388    98 C    1.384   122 H    0.970
   101   6 C    3.918 --    91 C    1.314   105 N    1.244   102 C    1.173
   102   6 C    3.963 --   103 C    1.657   101 C    1.173   123 H    0.974
   103   6 C    3.960 --   102 C    1.657   104 C    1.172   124 H    0.976
   104   6 C    3.922 --    64 C    1.356   105 N    1.233   103 C    1.172
   105   7 N    3.293 --   101 C    1.244   104 C    1.233    63 Zn   0.459
   106   1 H    1.002 --    64 C    0.971
   107   1 H    0.998 --    66 C    0.976
   108   1 H    1.006 --    67 C    0.973
   109   1 H    1.000 --    72 C    0.970
   110   1 H    0.878 --    74 O    0.848
   111   1 H    0.876 --    76 O    0.846
   112   1 H    0.881 --    78 O    0.861
   113   1 H    1.001 --    79 C    0.969
   114   1 H    1.006 --    81 C    0.973
   115   1 H    1.002 --    82 C    0.974
   116   1 H    1.002 --    87 C    0.974
   117   1 H    1.005 --    88 C    0.973
   118   1 H    1.000 --    93 C    0.970
   119   1 H    0.878 --    95 O    0.848
   120   1 H    0.876 --    97 O    0.847
   121   1 H    0.882 --    99 O    0.861
   122   1 H    1.001 --   100 C    0.970
   123   1 H    1.006 --   102 C    0.974
   124   1 H    0.998 --   103 C    0.976
   125   6 C    3.926 --   126 C    2.368   129 C    1.336   128 C    0.190
   126   6 C    3.926 --   125 C    2.368   127 C    1.336   130 C    0.190
   127   6 C    3.933 --   128 C    2.448   126 C    1.336
   128   6 C    3.890 --   127 C    2.448    23 C    1.193   125 C    0.190
   129   6 C    3.933 --   130 C    2.448   125 C    1.336
   130   6 C    3.890 --   129 C    2.448    85 C    1.193   126 C    0.190
 ---------------------------------------------------------------------------

           -------------------------------------------------
          | TOTAL ENERGY             -251.891716361975 Eh   |
          | GRADIENT NORM               0.000887753498 Eh/α |
          | HOMO-LUMO GAP               1.089694837407 eV   |
           -------------------------------------------------

 * finished run on 2022/07/30 at 12:22:01.708
