   * xtb version 6.5.1 (b24c23e) compiled by 'conda@728c89f4b128' on 2022-07-12
          program call               : xtb Fe_H_C2_2.xyz --gfn 1 --opt -T 48

   ID    Z sym.   atoms
    1   26 Fe     1, 37
    2    6 C      2-6, 8-11, 13-18, 20-24, 38-42, 44-47, 49-54, 56-60, 73, 74
    3    7 N      7, 12, 19, 25, 43, 48, 55, 61
    4    1 H      26-36, 62-72
########################################################################
[WARNING] Please study the warnings concerning your input carefully
-1- prog_main_parseArguments: Unknown option '-T' provided
########################################################################

          :  Hamiltonian                  GFN1-xTB          :
 * total energy  :  -132.0214892 Eh     change       -0.3102798E-09 Eh
 * total energy  :  -132.0828353 Eh     change       -0.6134616E-01 Eh
 * total energy  :  -132.1205095 Eh     change       -0.3767419E-01 Eh
 * total energy  :  -132.1286791 Eh     change       -0.8169587E-02 Eh
 * total energy  :  -132.1326276 Eh     change       -0.3948528E-02 Eh
 * total energy  :  -132.1346289 Eh     change       -0.2001295E-02 Eh
 * total energy  :  -132.1358123 Eh     change       -0.1183323E-02 Eh
 * total energy  :  -132.1364268 Eh     change       -0.6144974E-03 Eh
 * total energy  :  -132.1367719 Eh     change       -0.3451614E-03 Eh
 * total energy  :  -132.1368986 Eh     change       -0.1266791E-03 Eh
 * total energy  :  -132.1375345 Eh     change       -0.1265178E-04 Eh
 * total energy  :  -132.1375397 Eh     change       -0.5138774E-05 Eh
 * total energy  :  -132.1375461 Eh     change       -0.6450136E-05 Eh
 * total energy  :  -132.1375553 Eh     change       -0.9169609E-05 Eh
 * total energy  :  -132.1375643 Eh     change       -0.8994140E-05 Eh
 * total energy  :  -132.1375716 Eh     change       -0.7315567E-05 Eh
 * total energy  :  -132.1375793 Eh     change       -0.7750276E-05 Eh
 * total energy  :  -132.1375862 Eh     change       -0.6843236E-05 Eh
 * total energy  :  -132.1375908 Eh     change       -0.4645544E-05 Eh
   *** GEOMETRY OPTIMIZATION CONVERGED AFTER 36 ITERATIONS ***

 final structure:
================
74
 xtb: 6.5.1 (b24c23e)
Fe           9.08803756880193       -0.06500848552273        0.01311570044588
C            5.67733832809750       -0.05055949226182       -0.04030425714680
C            6.33509189138361       -0.89663268072395       -0.90968280113044
C            5.66792096395202       -1.78283813185913       -1.81821088891539
C            6.63357390494687       -2.48658296158547       -2.45448108297582
C            7.88800827828001       -2.02823993577478       -1.93329474629729
N            7.69373284649969       -1.04073693849838       -1.00580171797078
C            9.11046506286839       -2.55136292724540       -2.30524695054049
C           10.32275603758380       -2.12214945184174       -1.80844413083258
C           11.58246389826282       -2.68395012435325       -2.19269166921790
C           12.53679431512375       -1.97882680243355       -1.53924697703990
N           10.50673204207079       -1.08869104458238       -0.92251655015468
C           11.85690322043406       -0.98900697780384       -0.75995183561574
C           12.51764655471418       -0.01587651682013       -0.00317128748006
C           11.83823223640650        0.94715736833472        0.74986675332438
C           12.49983169818189        1.93446153627365        1.54795173628139
C           11.53137426841010        2.62799173483462        2.19277983239392
C           10.28137725316018        2.06046143673620        1.78596452271495
N           10.48472655986118        1.04402170206930        0.88430024383483
C            9.06010296003017        2.47245783614925        2.27507422178084
C            7.84679328653054        1.93864511949631        1.88840439332572
C            6.58264523307584        2.37540656239785        2.40442286406064
C            5.63085920245801        1.66856790371255        1.75065771990487
C            6.31642992633006        0.80044683607384        0.83843597616248
N            7.67149877616548        0.96867911662988        0.93912429412848
H            4.59323998817890       -0.05794379884077       -0.04493937586049
H            4.59735623363063       -1.84578716653538       -1.93337646898116
H            6.52843345961421       -3.25271514631335       -3.20636740133586
H            9.11740180558407       -3.35541791818242       -3.03263951080819
H           11.70113352732149       -3.50927352560162       -2.87657322303362
H           13.60744365552771       -2.09979746453704       -1.57727694587251
H           13.56913523036228        2.06023056780920        1.60435007225010
H           11.63450844347061        3.44521637231453        2.88885305471890
H            9.05220383422392        3.26867015772860        3.01106324997173
H            6.46196749103397        3.12948790462234        3.16609762441998
H            4.55879864653820        1.71546764112502        1.85929552447546
Fe          19.97821586740691        0.03928058650048        0.05338779221952
C           23.38892066140185        0.06449528302293        0.00415260432446
C           22.73117668924387        1.27536531089833       -0.06975238511410
C           23.39836168085369        2.54225389324261       -0.14561992638382
C           22.43271861608614        3.49099540945712       -0.14278391355144
C           21.17827703788746        2.80125645431144       -0.06560626910355
N           21.37253771628599        1.44665655865419       -0.04389779581204
C           19.95582742568531        3.43853836264165        0.01116227371036
C           18.74351993638821        2.78676494675677        0.08983588390994
C           17.48381368846157        3.46093806410563        0.18346904286013
C           16.52946861175052        2.49964651562826        0.19242169978897
N           18.55952778306304        1.42613903160449        0.04991009834798
C           17.20935071010810        1.24303607934006        0.10303161911519
C           16.54860637142299        0.01392747063513        0.00823288558242
C           17.22801817535846       -1.20519459522742       -0.08258116899180
C           16.56640897132417       -2.47257246075835       -0.15639389878834
C           17.53485540851986       -3.41951401913522       -0.14591835932933
C           18.78485571653712       -2.72594749446291       -0.06501514754231
N           18.58151999868810       -1.36731863158004       -0.04827229531842
C           20.00611946960430       -3.35984009847618        0.01968563744606
C           21.21943670872225       -2.70477496009794        0.09275699486574
C           22.48357704963422       -3.37509347937288        0.18066465539431
C           23.43537455777360       -2.41231624810807        0.17252586914090
C           22.74981788659429       -1.15630961249913        0.08170411844159
N           21.39474659704610       -1.34849822916038        0.04301936149796
H           24.47301945725406        0.07306670571357        0.00567622355516
H           24.46892770857196        2.66629850171975       -0.18848986051003
H           22.53787089191931        4.56366845642543       -0.18354280597151
H           19.94891046206243        4.52278734753245        0.01404452790916
H           17.36515409838302        4.53165061052158        0.23279978152774
H           15.45881650690157        2.61474449391161        0.24560337829648
H           15.49710657148303       -2.60355390868894       -0.19932102350233
H           17.43171165720045       -4.49243353193546       -0.18077287600316
H           20.01400309670185       -4.44407120883632        0.02851160634021
H           22.60424060242067       -4.44543617628230        0.23685031160287
H           24.50743359548156       -2.52011798718096        0.22134161259821
C           13.92455216145400       -0.00825441012091        0.00346470926428
C           15.14170222514547        0.00376566443215        0.00817407518415

          :  Hamiltonian                  GFN1-xTB          :
         :: total energy            -132.137590831655 Eh    ::
         :: gradient norm              0.000451781101 Eh/a0 ::
         :: HOMO-LUMO gap              0.110954464191 eV    ::
         :: SCC energy              -134.178279588794 Eh    ::
         :: repulsion energy           2.105926117889 Eh    ::

    * Orbital Energies and Occupations

         #    Occupation            Energy/Eh            Energy/eV
      -------------------------------------------------------------
         1        2.0000           -0.7709044             -20.9774
       ...           ...                  ...                  ...
       111        2.0000           -0.4314771             -11.7411
       112        2.0000           -0.4293413             -11.6830
       113        2.0000           -0.4293376             -11.6829
       114        2.0000           -0.4035114             -10.9801
       115        2.0000           -0.3985061             -10.8439
       116        2.0000           -0.3985039             -10.8438
       117        1.9913           -0.3928331             -10.6895
       118        1.9906           -0.3927652             -10.6877
       119        1.9335           -0.3908742             -10.6362
       120        1.9334           -0.3908731             -10.6362
       121        1.9222           -0.3907206             -10.6320
       122        1.9190           -0.3906798             -10.6309
       123        1.8438           -0.3900187             -10.6129 (HOMO)
       124        0.2781           -0.3859412             -10.5020 (LUMO)
       125        0.1882           -0.3855216             -10.4906
       126                         -0.3394357              -9.2365
       127                         -0.3291862              -8.9576
       128                         -0.3291844              -8.9576
       129                         -0.3244200              -8.8279
       130                         -0.3048855              -8.2964
       131                         -0.3048675              -8.2959
       132                         -0.2966617              -8.0726
       133                         -0.2889730              -7.8634
       134                         -0.2309900              -6.2856
       ...                                ...                  ...
       262                          1.3360345              36.3553
      -------------------------------------------------------------
                  HL-Gap            0.0040775 Eh            0.1110 eV

Wiberg/Mayer (AO) data.
largest (>0.10) Wiberg bond orders for each atom

     #   Z sym  total        # sym  WBO       # sym  WBO       # sym  WBO
 ---------------------------------------------------------------------------
     1  26 Fe   3.199 --     7 N    0.680    25 N    0.676    19 N    0.673
                            12 N    0.669
     2   6 C    3.933 --     3 C    1.364    24 C    1.363    26 H    0.971
     3   6 C    3.924 --     2 C    1.364     7 N    1.213     4 C    1.169
     4   6 C    3.958 --     5 C    1.655     3 C    1.169    27 H    0.975
     5   6 C    3.960 --     4 C    1.655     6 C    1.170    28 H    0.975
     6   6 C    3.921 --     8 C    1.358     7 N    1.216     5 C    1.170
     7   7 N    3.390 --     6 C    1.216     3 C    1.213     1 Fe   0.680
     8   6 C    3.937 --     9 C    1.372     6 C    1.358    29 H    0.970
     9   6 C    3.917 --     8 C    1.372    12 N    1.197    10 C    1.174
    10   6 C    3.957 --    11 C    1.644     9 C    1.174    30 H    0.975
    11   6 C    3.960 --    10 C    1.644    13 C    1.183    31 H    0.971
    12   7 N    3.389 --    13 C    1.244     9 C    1.197     1 Fe   0.669
    13   6 C    3.911 --    14 C    1.261    12 N    1.244    11 C    1.183
    14   6 C    3.933 --    15 C    1.262    13 C    1.261    73 C    1.179
    15   6 C    3.911 --    14 C    1.262    19 N    1.245    16 C    1.183
    16   6 C    3.960 --    17 C    1.644    15 C    1.183    32 H    0.971
    17   6 C    3.956 --    16 C    1.644    18 C    1.175    33 H    0.975
    18   6 C    3.917 --    20 C    1.373    19 N    1.196    17 C    1.175
    19   7 N    3.389 --    15 C    1.245    18 C    1.196     1 Fe   0.673
    20   6 C    3.937 --    18 C    1.373    21 C    1.357    34 H    0.970
    21   6 C    3.921 --    20 C    1.357    25 N    1.216    22 C    1.170
    22   6 C    3.960 --    23 C    1.655    21 C    1.170    35 H    0.975
    23   6 C    3.958 --    22 C    1.655    24 C    1.169    36 H    0.975
    24   6 C    3.924 --     2 C    1.363    25 N    1.214    23 C    1.169
    25   7 N    3.389 --    21 C    1.216    24 C    1.214     1 Fe   0.676
    26   1 H    1.000 --     2 C    0.971
    27   1 H    0.998 --     4 C    0.975
    28   1 H    0.997 --     5 C    0.975
    29   1 H    1.000 --     8 C    0.970
    30   1 H    0.997 --    10 C    0.975
    31   1 H    1.004 --    11 C    0.971
    32   1 H    1.004 --    16 C    0.971
    33   1 H    0.997 --    17 C    0.975
    34   1 H    1.000 --    20 C    0.970
    35   1 H    0.997 --    22 C    0.975
    36   1 H    0.998 --    23 C    0.975
    37  26 Fe   3.199 --    43 N    0.680    61 N    0.676    55 N    0.673
                            48 N    0.669
    38   6 C    3.933 --    39 C    1.364    60 C    1.363    62 H    0.971
    39   6 C    3.924 --    38 C    1.364    43 N    1.213    40 C    1.169
    40   6 C    3.958 --    41 C    1.655    39 C    1.169    63 H    0.975
    41   6 C    3.960 --    40 C    1.655    42 C    1.170    64 H    0.975
    42   6 C    3.921 --    44 C    1.358    43 N    1.216    41 C    1.170
    43   7 N    3.390 --    42 C    1.216    39 C    1.213    37 Fe   0.680
    44   6 C    3.937 --    45 C    1.372    42 C    1.358    65 H    0.970
    45   6 C    3.917 --    44 C    1.372    48 N    1.197    46 C    1.174
    46   6 C    3.957 --    47 C    1.644    45 C    1.174    66 H    0.975
    47   6 C    3.960 --    46 C    1.644    49 C    1.183    67 H    0.971
    48   7 N    3.389 --    49 C    1.244    45 C    1.197    37 Fe   0.669
    49   6 C    3.911 --    50 C    1.261    48 N    1.244    47 C    1.183
    50   6 C    3.933 --    51 C    1.262    49 C    1.261    74 C    1.179
    51   6 C    3.911 --    50 C    1.262    55 N    1.245    52 C    1.183
    52   6 C    3.960 --    53 C    1.644    51 C    1.183    68 H    0.971
    53   6 C    3.956 --    52 C    1.644    54 C    1.175    69 H    0.975
    54   6 C    3.917 --    56 C    1.373    55 N    1.196    53 C    1.175
    55   7 N    3.389 --    51 C    1.245    54 C    1.196    37 Fe   0.673
    56   6 C    3.937 --    54 C    1.373    57 C    1.357    70 H    0.970
    57   6 C    3.921 --    56 C    1.357    61 N    1.216    58 C    1.170
    58   6 C    3.960 --    59 C    1.655    57 C    1.170    71 H    0.975
    59   6 C    3.958 --    58 C    1.655    60 C    1.169    72 H    0.975
    60   6 C    3.924 --    38 C    1.363    61 N    1.214    59 C    1.169
    61   7 N    3.389 --    57 C    1.216    60 C    1.214    37 Fe   0.676
    62   1 H    1.000 --    38 C    0.971
    63   1 H    0.998 --    40 C    0.975
    64   1 H    0.997 --    41 C    0.975
    65   1 H    1.000 --    44 C    0.970
    66   1 H    0.997 --    46 C    0.975
    67   1 H    1.004 --    47 C    0.971
    68   1 H    1.004 --    52 C    0.971
    69   1 H    0.997 --    53 C    0.975
    70   1 H    1.000 --    56 C    0.970
    71   1 H    0.997 --    58 C    0.975
    72   1 H    0.998 --    59 C    0.975
    73   6 C    3.926 --    74 C    2.565    14 C    1.179
    74   6 C    3.926 --    73 C    2.565    50 C    1.179
 ---------------------------------------------------------------------------

           -------------------------------------------------
          | TOTAL ENERGY             -132.137590831655 Eh   |
          | GRADIENT NORM               0.000451781101 Eh/α |
          | HOMO-LUMO GAP               0.110954464191 eV   |
           -------------------------------------------------

 * finished run on 2022/07/29 at 15:49:54.801
