   * xtb version 6.4.1 (bd6e46d) compiled by 'conda@4901f00b25ba' on 2021-06-10
          program call               : xtb Ni_TPP.xyz --gfn 2 --opt
          number of atoms            :                    77
          number of electrons        :                   234
          charge                     :                     0
          spin                       :                   0.0

   ID    Z sym.   atoms
    1   28 Ni     1
    2    6 C      2-23, 25-34, 36-47
    3    7 N      24, 35, 48, 49
    4    1 H      50-77

          :  Hamiltonian                  GFN2-xTB          :
 * total energy  :  -125.0027801 Eh     change       -0.8423669E-08 Eh
 * total energy  :  -125.0470268 Eh     change       -0.4424663E-01 Eh
 * total energy  :  -125.0699445 Eh     change       -0.2291773E-01 Eh
 * total energy  :  -125.0759113 Eh     change       -0.5966808E-02 Eh
 * total energy  :  -125.0792463 Eh     change       -0.3335020E-02 Eh
 * total energy  :  -125.0803367 Eh     change       -0.1090399E-02 Eh
 * total energy  :  -125.0808856 Eh     change       -0.5488560E-03 Eh
 * total energy  :  -125.0812597 Eh     change       -0.3741598E-03 Eh
 * total energy  :  -125.0816638 Eh     change       -0.4040854E-03 Eh
 * total energy  :  -125.0819975 Eh     change       -0.3336414E-03 Eh
 * total energy  :  -125.0831523 Eh     change       -0.4406772E-04 Eh
 * total energy  :  -125.0831636 Eh     change       -0.1136568E-04 Eh
 * total energy  :  -125.0831786 Eh     change       -0.1494060E-04 Eh
 * total energy  :  -125.0831851 Eh     change       -0.6534204E-05 Eh
 * total energy  :  -125.0832017 Eh     change       -0.1656290E-04 Eh
 * total energy  :  -125.0832121 Eh     change       -0.1040938E-04 Eh
 * total energy  :  -125.0832284 Eh     change       -0.1635691E-04 Eh
 * total energy  :  -125.0832367 Eh     change       -0.8272659E-05 Eh
 * total energy  :  -125.0832415 Eh     change       -0.4832089E-05 Eh
   *** GEOMETRY OPTIMIZATION CONVERGED AFTER 29 ITERATIONS ***

 final structure:
================
77
 xtb: 6.4.1 (bd6e46d)
Ni       -0.08821451629722    0.17079296954261    0.01469381410834
C        -3.46838249496916    0.63690337979431    0.09824657065046
C        -4.92962900764841    0.83637200726736    0.13800866484089
C        -5.55543685937321    1.65567456417887   -0.79691763479491
C        -6.92613818276027    1.83557299605841   -0.76303864521806
C        -7.68698874430879    1.20710492968794    0.20873137992497
C        -7.07104119449638    0.39370447798073    1.14524262855122
C        -5.70158507438567    0.20505301022005    1.10881336822947
C        -2.96617851428012   -0.64292580623797   -0.10288799430902
C        -3.79555860492151   -1.78071120861965   -0.36946532054867
C        -2.97896779125252   -2.85729184810460   -0.40076901717320
C        -1.65311966604454   -2.37505713571815   -0.14903482960296
C        -0.55458284065715   -3.21068128182189    0.01191496353119
C        -0.75643342012281   -4.67205830698491    0.01000084719454
C        -0.13649442891350   -5.47029676347024   -0.94672416746938
C        -0.33150816843361   -6.83944208580551   -0.94814511082226
C        -1.13997235608777   -7.42883517996738    0.00953233888947
C        -1.75653554256491   -6.64180440978398    0.96798034374582
C        -1.57005535095596   -5.27165700733073    0.96705006501147
C         0.72757661014721   -2.70377915646615    0.18545148015957
C         1.86873529219675   -3.52668118430959    0.45760957833894
C         2.94513573825684   -2.70931454583372    0.45887384830893
C         2.45965352225269   -1.38947825022164    0.18305048937937
N         1.09660112167995   -1.39212358089222    0.06946388880159
C         3.29281368401347   -0.29458837565841   -0.01123594712384
C         4.75477535359575   -0.49191748905222   -0.01494724069939
C         5.35299437032127   -1.32562746169308   -0.95521361384251
C         6.72442294016984   -1.50318423404287   -0.96069696850532
C         7.51392903454075   -0.85762412750149   -0.02366575470156
C         6.92579270718137   -0.02940987071909    0.91779220023903
C         5.55552696636531    0.15655404276073    0.92076084896831
C         2.78334764903372    0.98313084498683   -0.20965316818029
C         3.60267511323975    2.11710726710198   -0.52011244001015
C         2.78506074643743    3.19321981889629   -0.53769162910498
N         1.47331781794094    1.35496547131303   -0.08631130939742
C         1.46894878336415    2.71495071201994   -0.23267678878557
C         0.37633008049415    3.55231725675630   -0.04385862034522
C         0.57310631857254    5.01366843629320   -0.08383261914352
C         1.42757011412092    5.63852323991327    0.81980672674315
C         1.60904272485394    7.00884232637321    0.77811305529187
C         0.94604322684776    7.77067191246620   -0.16953585031708
C         0.09550922852677    7.15617634765100   -1.07344002344393
C        -0.09379108078651    5.78710316678562   -1.02955346744309
C        -0.89836519698626    3.04708856473922    0.18358200113453
C        -2.02947514238304    3.87287390754180    0.48749438842605
C        -3.10520697476894    3.05579656498861    0.53347412806260
C        -2.62914015031910    1.73332202195857    0.25404655951995
N        -1.27076789565821    1.73441050340761    0.09447633200275
N        -1.65248502332058   -1.01350661253415   -0.02058230426207
H        -4.96080582522718    2.13930180420084   -1.55839836569197
H        -7.40266282814447    2.46790695394039   -1.49800396183635
H        -8.75705842418095    1.35043725460313    0.23588011397705
H        -7.66025375560284   -0.09576703029890    1.90697860913745
H        -5.21824698245215   -0.42443976849514    1.84189804981377
H        -4.85616044706747   -1.74205998633253   -0.52280866191329
H        -3.23298333376593   -3.88261577359424   -0.58518407166364
H         0.48858607682856   -5.00807369086235   -1.69699946171813
H         0.14878182383422   -7.44915434781673   -1.69951278549399
H        -1.28907087766213   -8.49847677314084    0.00913302816980
H        -2.38491394837956   -7.09738459100202    1.71940398762814
H        -2.04436993655899   -4.65645306703706    1.71790078683314
H         1.83266108617432   -4.58362681520459    0.63493769929393
H         3.97259425129440   -2.95864201210194    0.63773708149512
H         4.73618705261121   -1.82231268246609   -1.69012102395027
H         7.17918725200902   -2.14709088592572   -1.69931576817457
H         8.58456403117419   -0.99928330921834   -0.02731047080779
H         7.53729412460182    0.47369791575065    1.65260884482379
H         5.09395995969157    0.79743317656579    1.65798191334791
H         4.65729874758736    2.07681223101522   -0.71002547028354
H         3.03191223795331    4.21578985110646   -0.74561326312176
H         1.93825265139299    5.04367367227907    1.56319769803292
H         2.27043240425289    7.48441289523184    1.48759509503394
H         1.09159509903958    8.84025352599960   -0.20340360293919
H        -0.42201918484782    7.74595682271927   -1.81589975141168
H        -0.75116141229348    5.30468578765274   -1.73828628943732
H        -1.98760543427007    4.93138298539861    0.65376030540092
H        -4.12610732945015    3.30720603911923    0.74413669064682

          :  Hamiltonian                  GFN2-xTB          :
         :: total energy            -125.083241530221 Eh    ::
         :: gradient norm              0.000434071552 Eh/a0 ::
         :: HOMO-LUMO gap              1.695807179461 eV    ::
         :: SCC energy              -127.316716805663 Eh    ::
         :: -> dispersion             -0.121200750041 Eh    ::
         :: repulsion energy           2.234083185551 Eh    ::

    * Orbital Energies and Occupations

         #    Occupation            Energy/Eh            Energy/eV
      -------------------------------------------------------------
         1        2.0000           -0.6695910             -18.2205
       ...           ...                  ...                  ...
       105        2.0000           -0.4053422             -11.0299
       106        2.0000           -0.3994206             -10.8688
       107        2.0000           -0.3994103             -10.8685
       108        2.0000           -0.3972168             -10.8088
       109        2.0000           -0.3971856             -10.8080
       110        2.0000           -0.3969118             -10.8005
       111        2.0000           -0.3962750             -10.7832
       112        2.0000           -0.3677494             -10.0070
       113        2.0000           -0.3643538              -9.9146
       114        2.0000           -0.3606377              -9.8135
       115        2.0000           -0.3606309              -9.8133
       116        2.0000           -0.3549747              -9.6594
       117        2.0000           -0.3549161              -9.6578 (HOMO)
       118                         -0.2925963              -7.9620 (LUMO)
       119                         -0.2925641              -7.9611
       120                         -0.2891792              -7.8690
       121                         -0.2557628              -6.9597
       122                         -0.2268412              -6.1727
       123                         -0.2252777              -6.1301
       124                         -0.2252714              -6.1299
       125                         -0.2252218              -6.1286
       126                         -0.2250070              -6.1228
       127                         -0.2245594              -6.1106
       128                         -0.2245375              -6.1100
       ...                                ...                  ...
       229                          0.9908742              26.9631
      -------------------------------------------------------------
                  HL-Gap            0.0623198 Eh            1.6958 eV

     #   Z          covCN         q      C6AA      α(0)
     1  28 Ni       3.049    -0.306   189.691    28.418
     2   6 C        2.963    -0.001    28.047     8.687
     3   6 C        2.981     0.016    27.654     8.626
     4   6 C        2.924    -0.031    28.768     8.796
     5   6 C        2.919    -0.029    28.723     8.789
     6   6 C        2.920    -0.030    28.761     8.794
     7   6 C        2.919    -0.029    28.723     8.789
     8   6 C        2.924    -0.031    28.767     8.796
     9   6 C        3.168     0.068    26.126     8.352
    10   6 C        3.020    -0.052    29.263     8.873
    11   6 C        3.020    -0.052    29.263     8.873
    12   6 C        3.168     0.068    26.125     8.352
    13   6 C        2.963    -0.001    28.048     8.687
    14   6 C        2.981     0.016    27.654     8.626
    15   6 C        2.924    -0.031    28.767     8.796
    16   6 C        2.919    -0.029    28.723     8.789
    17   6 C        2.920    -0.030    28.760     8.794
    18   6 C        2.919    -0.029    28.723     8.789
    19   6 C        2.925    -0.031    28.768     8.796
    20   6 C        3.167     0.068    26.127     8.352
    21   6 C        3.020    -0.052    29.263     8.873
    22   6 C        3.020    -0.052    29.263     8.873
    23   6 C        3.167     0.068    26.128     8.352
    24   7 N        2.632    -0.051    22.231     7.003
    25   6 C        2.963    -0.001    28.049     8.687
    26   6 C        2.981     0.016    27.654     8.626
    27   6 C        2.924    -0.031    28.768     8.796
    28   6 C        2.919    -0.029    28.724     8.789
    29   6 C        2.920    -0.030    28.760     8.794
    30   6 C        2.919    -0.029    28.723     8.789
    31   6 C        2.924    -0.031    28.767     8.796
    32   6 C        3.168     0.068    26.126     8.352
    33   6 C        3.020    -0.052    29.264     8.874
    34   6 C        3.020    -0.052    29.265     8.874
    35   7 N        2.632    -0.051    22.231     7.003
    36   6 C        3.167     0.068    26.129     8.352
    37   6 C        2.963    -0.001    28.048     8.687
    38   6 C        2.981     0.016    27.655     8.626
    39   6 C        2.924    -0.031    28.769     8.796
    40   6 C        2.919    -0.029    28.724     8.789
    41   6 C        2.920    -0.030    28.760     8.794
    42   6 C        2.919    -0.029    28.723     8.789
    43   6 C        2.925    -0.031    28.767     8.796
    44   6 C        3.168     0.068    26.127     8.352
    45   6 C        3.020    -0.052    29.263     8.873
    46   6 C        3.020    -0.052    29.264     8.874
    47   6 C        3.168     0.068    26.127     8.352
    48   7 N        2.632    -0.051    22.229     7.002
    49   7 N        2.632    -0.051    22.230     7.002
    50   1 H        0.926     0.034     2.534     2.489
    51   1 H        0.926     0.032     2.557     2.500
    52   1 H        0.926     0.031     2.568     2.506
    53   1 H        0.926     0.032     2.556     2.500
    54   1 H        0.926     0.034     2.534     2.489
    55   1 H        0.926     0.033     2.544     2.494
    56   1 H        0.926     0.033     2.542     2.493
    57   1 H        0.926     0.034     2.533     2.489
    58   1 H        0.926     0.032     2.557     2.500
    59   1 H        0.926     0.031     2.569     2.506
    60   1 H        0.926     0.032     2.557     2.500
    61   1 H        0.926     0.034     2.534     2.489
    62   1 H        0.926     0.033     2.544     2.494
    63   1 H        0.926     0.033     2.541     2.493
    64   1 H        0.926     0.034     2.533     2.489
    65   1 H        0.926     0.032     2.557     2.500
    66   1 H        0.926     0.031     2.569     2.506
    67   1 H        0.926     0.032     2.556     2.500
    68   1 H        0.926     0.034     2.534     2.489
    69   1 H        0.926     0.033     2.544     2.494
    70   1 H        0.926     0.033     2.541     2.492
    71   1 H        0.926     0.034     2.532     2.488
    72   1 H        0.926     0.032     2.557     2.501
    73   1 H        0.926     0.031     2.568     2.506
    74   1 H        0.926     0.032     2.556     2.500
    75   1 H        0.926     0.034     2.533     2.489
    76   1 H        0.926     0.033     2.544     2.494
    77   1 H        0.926     0.033     2.542     2.493

Wiberg/Mayer (AO) data.
largest (>0.10) Wiberg bond orders for each atom

     #   Z sym  total        # sym  WBO       # sym  WBO       # sym  WBO
 ---------------------------------------------------------------------------
     1  28 Ni   3.497 --    24 N    0.753    48 N    0.753    35 N    0.753
                            49 N    0.753
     2   6 C    3.934 --    47 C    1.310     9 C    1.309     3 C    1.028
     3   6 C    3.988 --     8 C    1.393     4 C    1.393     2 C    1.028
                             6 C    0.108
     4   6 C    3.984 --     5 C    1.448     3 C    1.393    50 H    0.970
                             7 C    0.109
     5   6 C    3.991 --     4 C    1.448     6 C    1.436    51 H    0.970
                             8 C    0.109
     6   6 C    3.986 --     7 C    1.436     5 C    1.436    52 H    0.972
                             3 C    0.108
     7   6 C    3.991 --     8 C    1.448     6 C    1.436    53 H    0.970
                             4 C    0.109
     8   6 C    3.984 --     7 C    1.448     3 C    1.393    54 H    0.970
                             5 C    0.109
     9   6 C    3.936 --     2 C    1.309    49 N    1.238    10 C    1.173
    10   6 C    3.958 --    11 C    1.647     9 C    1.173    55 H    0.970
    11   6 C    3.958 --    10 C    1.647    12 C    1.173    56 H    0.970
    12   6 C    3.936 --    13 C    1.310    49 N    1.238    11 C    1.173
    13   6 C    3.934 --    12 C    1.310    20 C    1.309    14 C    1.028
    14   6 C    3.988 --    15 C    1.393    19 C    1.392    13 C    1.028
                            17 C    0.107
    15   6 C    3.984 --    16 C    1.448    14 C    1.393    57 H    0.970
                            18 C    0.109
    16   6 C    3.991 --    15 C    1.448    17 C    1.436    58 H    0.970
                            19 C    0.109
    17   6 C    3.986 --    16 C    1.436    18 C    1.436    59 H    0.972
                            14 C    0.107
    18   6 C    3.991 --    19 C    1.448    17 C    1.436    60 H    0.970
                            15 C    0.109
    19   6 C    3.984 --    18 C    1.448    14 C    1.392    61 H    0.970
                            16 C    0.109
    20   6 C    3.936 --    13 C    1.309    24 N    1.238    21 C    1.173
    21   6 C    3.958 --    22 C    1.647    20 C    1.173    62 H    0.970
    22   6 C    3.958 --    21 C    1.647    23 C    1.173    63 H    0.970
    23   6 C    3.936 --    25 C    1.310    24 N    1.237    22 C    1.173
    24   7 N    3.568 --    20 C    1.238    23 C    1.237     1 Ni   0.753
    25   6 C    3.934 --    23 C    1.310    32 C    1.309    26 C    1.028
    26   6 C    3.988 --    27 C    1.393    31 C    1.392    25 C    1.028
                            29 C    0.107
    27   6 C    3.984 --    28 C    1.448    26 C    1.393    64 H    0.970
                            30 C    0.109
    28   6 C    3.991 --    27 C    1.448    29 C    1.436    65 H    0.970
                            31 C    0.109
    29   6 C    3.986 --    28 C    1.436    30 C    1.436    66 H    0.972
                            26 C    0.107
    30   6 C    3.991 --    31 C    1.448    29 C    1.436    67 H    0.970
                            27 C    0.109
    31   6 C    3.984 --    30 C    1.448    26 C    1.392    68 H    0.970
                            28 C    0.109
    32   6 C    3.936 --    25 C    1.309    35 N    1.239    33 C    1.173
    33   6 C    3.958 --    34 C    1.647    32 C    1.173    69 H    0.970
    34   6 C    3.958 --    33 C    1.647    36 C    1.173    70 H    0.970
    35   7 N    3.568 --    32 C    1.239    36 C    1.237     1 Ni   0.753
    36   6 C    3.936 --    37 C    1.310    35 N    1.237    34 C    1.173
    37   6 C    3.934 --    36 C    1.310    44 C    1.308    38 C    1.029
    38   6 C    3.988 --    39 C    1.392    43 C    1.392    37 C    1.029
                            41 C    0.107
    39   6 C    3.984 --    40 C    1.448    38 C    1.392    71 H    0.970
                            42 C    0.109
    40   6 C    3.991 --    39 C    1.448    41 C    1.436    72 H    0.970
                            43 C    0.109
    41   6 C    3.986 --    40 C    1.436    42 C    1.436    73 H    0.972
                            38 C    0.107
    42   6 C    3.991 --    43 C    1.448    41 C    1.436    74 H    0.970
                            39 C    0.109
    43   6 C    3.984 --    42 C    1.448    38 C    1.392    75 H    0.970
                            40 C    0.109
    44   6 C    3.936 --    37 C    1.308    48 N    1.239    45 C    1.173
    45   6 C    3.958 --    46 C    1.647    44 C    1.173    76 H    0.970
    46   6 C    3.958 --    45 C    1.647    47 C    1.173    77 H    0.970
    47   6 C    3.936 --     2 C    1.310    48 N    1.237    46 C    1.173
    48   7 N    3.568 --    44 C    1.239    47 C    1.237     1 Ni   0.753
    49   7 N    3.568 --     9 C    1.238    12 C    1.238     1 Ni   0.753
    50   1 H    0.999 --     4 C    0.970
    51   1 H    0.998 --     5 C    0.970
    52   1 H    0.999 --     6 C    0.972
    53   1 H    0.998 --     7 C    0.970
    54   1 H    0.999 --     8 C    0.970
    55   1 H    0.998 --    10 C    0.970
    56   1 H    0.998 --    11 C    0.970
    57   1 H    0.999 --    15 C    0.970
    58   1 H    0.998 --    16 C    0.970
    59   1 H    0.999 --    17 C    0.972
    60   1 H    0.998 --    18 C    0.970
    61   1 H    0.999 --    19 C    0.970
    62   1 H    0.998 --    21 C    0.970
    63   1 H    0.998 --    22 C    0.970
    64   1 H    0.999 --    27 C    0.970
    65   1 H    0.998 --    28 C    0.970
    66   1 H    0.999 --    29 C    0.972
    67   1 H    0.998 --    30 C    0.970
    68   1 H    0.999 --    31 C    0.970
    69   1 H    0.998 --    33 C    0.970
    70   1 H    0.998 --    34 C    0.970
    71   1 H    0.999 --    39 C    0.970
    72   1 H    0.998 --    40 C    0.970
    73   1 H    0.999 --    41 C    0.972
    74   1 H    0.998 --    42 C    0.970
    75   1 H    0.999 --    43 C    0.970
    76   1 H    0.998 --    45 C    0.970
    77   1 H    0.998 --    46 C    0.970
 ---------------------------------------------------------------------------

molecular dipole:
                 x           y           z       tot (Debye)
 q only:        0.000       0.001      -0.002
   full:       -0.000       0.001      -0.002       0.007

           -------------------------------------------------
          | TOTAL ENERGY             -125.083241530221 Eh   |
          | GRADIENT NORM               0.000434071552 Eh/α |
          | HOMO-LUMO GAP               1.695807179461 eV   |
           -------------------------------------------------

 * finished run on 2022/07/26 at 11:21:49.694
