   * xtb version 6.5.1 (b24c23e) compiled by 'conda@728c89f4b128' on 2022-07-12
          program call               : xtb Cu_PhNO2_C6_2.xyz --gfn 1 --opt -T 48

   ID    Z sym.   atoms
    1   29 Cu     1, 61
    2    6 C      2-6, 8-12, 16-20, 22-27, 29-33, 37-42, 62-66, 68-72, 76-80,
                  82-87, 89-93, 97-102, 121-126
    3    7 N      7, 13, 21, 28, 34, 43, 67, 73, 81, 88, 94, 103
    4    8 O      14, 15, 35, 36, 74, 75, 95, 96
    5    1 H      44-60, 104-120
########################################################################
[WARNING] Please study the warnings concerning your input carefully
-1- prog_main_parseArguments: Unknown option '-T' provided
########################################################################

          :  Hamiltonian                  GFN1-xTB          :
 * total energy  :  -250.3457525 Eh     change       -0.2464162E-08 Eh
 * total energy  :  -250.5005266 Eh     change       -0.1547741E+00 Eh
 * total energy  :  -250.5723397 Eh     change       -0.7181309E-01 Eh
 * total energy  :  -250.5889227 Eh     change       -0.1658304E-01 Eh
 * total energy  :  -250.5980030 Eh     change       -0.9080287E-02 Eh
 * total energy  :  -250.6021072 Eh     change       -0.4104207E-02 Eh
 * total energy  :  -250.6065548 Eh     change       -0.4447573E-02 Eh
 * total energy  :  -250.6088623 Eh     change       -0.2307451E-02 Eh
 * total energy  :  -250.6105184 Eh     change       -0.1656157E-02 Eh
 * total energy  :  -250.6118724 Eh     change       -0.1353968E-02 Eh
 * total energy  :  -250.6155809 Eh     change       -0.1108895E-04 Eh
 * total energy  :  -250.6155944 Eh     change       -0.1341722E-04 Eh
 * total energy  :  -250.6156029 Eh     change       -0.8490195E-05 Eh
 * total energy  :  -250.6156121 Eh     change       -0.9265828E-05 Eh
 * total energy  :  -250.6156143 Eh     change       -0.2201088E-05 Eh
 * total energy  :  -250.6156253 Eh     change       -0.1097700E-04 Eh
 * total energy  :  -250.6156316 Eh     change       -0.6320357E-05 Eh
 * total energy  :  -250.6156371 Eh     change       -0.5487450E-05 Eh
 * total energy  :  -250.6156419 Eh     change       -0.4760072E-05 Eh
   *** GEOMETRY OPTIMIZATION CONVERGED AFTER 39 ITERATIONS ***

 final structure:
================
126
 xtb: 6.5.1 (b24c23e)
Cu          14.64881452064818       -0.03250247049105       -0.01493486745579
C           11.24562102116080       -0.04530793450297       -0.15082173559290
C           11.88098042778122       -1.26630178448877       -0.31839091490074
C           11.20584811013173       -2.51996897994568       -0.49847494978229
C           12.16458024918499       -3.46955559696263       -0.62825560925983
C           13.43546954232489       -2.80134099967677       -0.54161988959307
N           13.23197088050647       -1.46684451673046       -0.34328907950893
C           14.68230275990671       -3.42731536464903       -0.62360466807862
C           14.69871655431276       -4.88562675904305       -0.88616589632348
C           15.27296167394142       -5.76381378329198        0.03829888310828
C           15.29223868355790       -7.12537293294371       -0.20254748788163
C           14.73564774698765       -7.61428835390487       -1.38116170108710
N           14.75598987337390       -9.04259784950085       -1.64080623755468
O           14.25313340971558       -9.43073451920461       -2.66419001809403
O           15.27552870305937       -9.75188781130865       -0.81757000071935
C           14.16004703715663       -6.75739885043622       -2.31510070558522
C           14.14222027692548       -5.39791870460914       -2.06229415011945
C           15.91572374749817       -2.78660610021031       -0.48073148292523
C           17.19506672220908       -3.42008771563336       -0.63507793347592
C           18.13820654394701       -2.46554409483266       -0.43389767716105
N           16.09986122490364       -1.45857230633474       -0.20357886056066
C           17.44316352132569       -1.24259898955613       -0.16482196940558
C           18.07607878746706       -0.01590836474416        0.10281131463051
C           17.41547077536156        1.20355254057085        0.33305526563166
C           18.07860104454684        2.43220617101801        0.65157746786116
C           17.11440011979303        3.37682540753099        0.79151235541435
C           15.85482400059110        2.73162638616915        0.54850602529821
N           16.07046280832135        1.40607379007544        0.28214186322964
C           14.60828989826762        3.36038444235026        0.60293586234652
C           14.58882557245707        4.81776690675208        0.87150688339287
C           13.94372472863389        5.31652597273069        2.00750170051708
C           13.92202555985826        6.67503908980145        2.26488856001204
C           14.54672776941070        7.54460855510418        1.37524523475047
N           14.52439604005851        8.97217003423957        1.63887331767467
O           13.95434751075312        9.34729266003842        2.63128647280076
O           15.07712357943312        9.69407437598186        0.84885706299740
C           15.19193918276930        7.06913997966203        0.23713389832675
C           15.21222939054363        5.70822695807854       -0.00796485005786
C           13.37662492351446        2.72468074264162        0.42334237864088
C           12.09772731514770        3.38316437804863        0.41222613605774
C           11.15973424632768        2.42758953368335        0.20058236059278
C           11.85654193425701        1.17976858669628        0.06950307238056
N           13.19969022346647        1.38986635791103        0.20327329732086
H           10.16148798077162       -0.04916573264856       -0.19504987345094
H           10.13465561133929       -2.64442645676528       -0.51089186658329
H           12.02963715718196       -4.53129503462495       -0.75761014947162
H           15.69180051297378       -5.37202524995547        0.95789554840666
H           15.73041990916637       -7.81344576202912        0.51036766188560
H           13.73722757708560       -7.16245088481552       -3.22661260567092
H           13.70933591585074       -4.71948756512820       -2.78819233816332
H           17.34970245768516       -4.45776748198493       -0.88236417938286
H           19.21068428376446       -2.56960301536882       -0.46986406182525
H           19.14522323482441        2.54581668942016        0.76059561791383
H           17.24099612838857        4.41546504920917        1.05056489861787
H           13.47135122154301        4.62839642554691        2.69879124321249
H           13.42984947746536        7.06981634033640        3.14552642827355
H           15.66682396259544        7.76705172973229       -0.44188799912866
H           15.70029669394601        5.32692381212896       -0.89724556108810
H           11.94482081191027        4.44303870269388        0.53670907546713
H           10.09009966597386        2.54452946834739        0.12764402909959
Cu          30.67897439405981        0.03524459795337       -0.00200138527869
C           34.08216308556931        0.09783788437757       -0.12310324142719
C           33.44689694587731        1.29200820496547        0.18181901502086
C           34.12210267397337        2.52094232618168        0.48786036169090
C           33.16341723884596        3.44997035356313        0.72361451603134
C           31.89250358801381        2.79885365652895        0.55047211646527
N           32.09589808502066        1.48766647755103        0.23262470345728
C           30.64567752838635        3.41050896177308        0.70709419982877
C           30.62939173186802        4.86072745356851        1.01092772830298
C           30.05146067815947        5.32832703775124        2.19539807168482
C           30.03224927930116        6.68079740018299        2.48291408310250
C           30.59264504950504        7.57581456404903        1.57580607244640
N           30.57231572159049        8.99718417128631        1.87094866193353
O           31.07587174513504        9.74090381435097        1.06838413444702
O           30.05103933682009        9.34597300706668        2.89928331899728
C           31.17195655656904        7.13151478488094        0.39054460604934
C           31.18968807940090        5.77649881932162        0.11488748503820
C           29.41214139130934        2.76355065965958        0.59685693815967
C           28.13288091539678        3.40929284159569        0.68816656942524
C           27.18966962464589        2.44902998934759        0.51665571871274
N           29.22792447773859        1.42826485540343        0.35723314898592
C           27.88460020695019        1.21378772088698        0.31108619739659
C           27.25178099946472       -0.02436938805756        0.10249844857457
C           27.91256026480934       -1.24153952845063       -0.13909614501345
C           27.24962795717217       -2.50061602907807       -0.30045484437151
C           28.21376452737177       -3.42884028457437       -0.52499512660624
C           29.47301654232776       -2.73891980563614       -0.51307970262827
N           29.25738347116687       -1.40983716662203       -0.26486467639682
C           30.71931461681762       -3.34174160746203       -0.70174087911803
C           30.73879422041364       -4.79353552521092       -0.99859435630807
C           31.39005400285557       -5.68058426651768       -0.13576026531258
C           31.41202555060363       -7.03659888841263       -0.40596598276010
C           30.78124994188486       -7.51059965058217       -1.55281365146449
N           30.80406208070668       -8.93300667264839       -1.84321574844248
O           31.37942948874050       -9.65164205268913       -1.06657003892875
O           30.24566207777285       -9.30740702866684       -2.84253860060633
C           30.12962982492538       -6.64445244477626       -2.42625389294660
C           30.10929817719728       -5.29080203272059       -2.14385003395692
C           31.95083533510737       -2.68436904946787       -0.63323493505959
C           33.22934144775433       -3.28960895318157       -0.89476400240603
C           34.16744255237018       -2.32460346574453       -0.73198204729340
C           33.47102291601639       -1.11972455965235       -0.38125187867545
N           32.12798620858745       -1.36496165884016       -0.33448039240702
H           35.16630282037950        0.11792804075233       -0.16244412748617
H           35.19328478415054        2.64051290407064        0.52474312190012
H           33.29846886620915        4.48226111218708        1.00353641322416
H           29.62967139112228        4.62045841980393        2.89937788417989
H           29.59119240592493        7.05147128785180        3.40039538059904
H           31.59776953470603        7.84861427652634       -0.30092978342302
H           31.62541939597581        5.41964208020802       -0.81105836109886
H           27.97838393246460        4.46429989327218        0.84607656436993
H           26.11722148585184        2.55935373209658        0.52030686011914
H           26.18321858188742       -2.64717783746710       -0.23909388600167
H           28.08730220917986       -4.48926868568045       -0.67123579322238
H           31.86707116882784       -5.30078599038242        0.76020308933620
H           31.90909635851642       -7.73176082093409        0.25984215477256
H           29.64999440608780       -7.03793234770699       -3.31439339893258
H           29.61643431774143       -4.60491795702610       -2.82290110587082
H           33.38191668779520       -4.31795415202591       -1.18014509691396
H           35.23687033610030       -2.40509012833104       -0.84580671326136
C           23.27790911230607       -0.03804136515922        0.16207773174884
C           22.04998048612933       -0.02558194698304        0.16316348933781
C           20.70524144677313       -0.01775943863747        0.15454350323589
C           19.48180069264741       -0.01166121819134        0.13766502422569
C           24.62264355140686       -0.04175100694568        0.15129649562153
C           25.84604424545391       -0.04163549460226        0.13210668922455

          :  Hamiltonian                  GFN1-xTB          :
         :: total energy            -250.615641866730 Eh    ::
         :: gradient norm              0.000699397934 Eh/a0 ::
         :: HOMO-LUMO gap              0.001913547389 eV    ::
         :: SCC energy              -254.073199098035 Eh    ::
         :: repulsion energy           3.569834732691 Eh    ::

    * Orbital Energies and Occupations

         #    Occupation            Energy/Eh            Energy/eV
      -------------------------------------------------------------
         1        2.0000           -0.9221774             -25.0937
       ...           ...                  ...                  ...
       210        2.0000           -0.4341054             -11.8126
       211        2.0000           -0.4337289             -11.8024
       212        2.0000           -0.4309947             -11.7280
       213        2.0000           -0.4309849             -11.7277
       214        2.0000           -0.4309264             -11.7261
       215        2.0000           -0.4308679             -11.7245
       216        2.0000           -0.4308608             -11.7243
       217        2.0000           -0.4308499             -11.7240
       218        2.0000           -0.4191972             -11.4069
       219        2.0000           -0.4191866             -11.4066
       220        2.0000           -0.4161452             -11.3239
       221        2.0000           -0.4051893             -11.0258
       222        1.0185           -0.3787737             -10.3070 (HOMO)
       223        0.9815           -0.3787033             -10.3050 (LUMO)
       224                         -0.3612232              -9.8294
       225                         -0.3579687              -9.7408
       226                         -0.3579278              -9.7397
       227                         -0.3494447              -9.5089
       228                         -0.3489422              -9.4952
       229                         -0.3487843              -9.4909
       230                         -0.3423918              -9.3170
       231                         -0.3423647              -9.3162
       232                         -0.3205665              -8.7231
       233                         -0.3131969              -8.5225
       ...                                ...                  ...
       446                          1.5603729              42.4599
      -------------------------------------------------------------
                  HL-Gap            0.0000703 Eh            0.0019 eV

Wiberg/Mayer (AO) data.
largest (>0.10) Wiberg bond orders for each atom

     #   Z sym  total        # sym  WBO       # sym  WBO       # sym  WBO
 ---------------------------------------------------------------------------
     1  29 Cu   2.176 --    43 N    0.503     7 N    0.503    21 N    0.500
                            28 N    0.499
     2   6 C    3.931 --    42 C    1.362     3 C    1.362    44 H    0.971
     3   6 C    3.914 --     2 C    1.362     7 N    1.229     4 C    1.169
     4   6 C    3.955 --     5 C    1.658     3 C    1.169    45 H    0.975
     5   6 C    3.958 --     4 C    1.658     6 C    1.170    46 H    0.973
     6   6 C    3.914 --     8 C    1.316     7 N    1.242     5 C    1.170
     7   7 N    3.243 --     6 C    1.242     3 C    1.229     1 Cu   0.503
     8   6 C    3.932 --    18 C    1.322     6 C    1.316     9 C    1.034
     9   6 C    3.984 --    17 C    1.383    10 C    1.383     8 C    1.034
    10   6 C    3.986 --    11 C    1.464     9 C    1.383    47 H    0.971
                            16 C    0.101
    11   6 C    3.987 --    10 C    1.464    12 C    1.386    48 H    0.965
                            17 C    0.101
    12   6 C    3.940 --    16 C    1.386    11 C    1.386    13 N    0.922
    13   7 N    3.865 --    15 O    1.454    14 O    1.454    12 C    0.922
    14   8 O    1.828 --    13 N    1.454    15 O    0.251
    15   8 O    1.828 --    13 N    1.454    14 O    0.251
    16   6 C    3.987 --    17 C    1.464    12 C    1.386    49 H    0.965
                            10 C    0.101
    17   6 C    3.986 --    16 C    1.464     9 C    1.383    50 H    0.971
                            11 C    0.101
    18   6 C    3.908 --     8 C    1.322    21 N    1.225    19 C    1.178
    19   6 C    3.954 --    20 C    1.644    18 C    1.178    51 H    0.973
    20   6 C    3.956 --    19 C    1.644    22 C    1.186    52 H    0.973
    21   7 N    3.247 --    22 C    1.256    18 C    1.225     1 Cu   0.500
    22   6 C    3.895 --    23 C    1.260    21 N    1.256    20 C    1.186
    23   6 C    3.940 --    24 C    1.260    22 C    1.260   124 C    1.187
    24   6 C    3.895 --    23 C    1.260    28 N    1.256    25 C    1.186
    25   6 C    3.956 --    26 C    1.644    24 C    1.186    53 H    0.973
    26   6 C    3.954 --    25 C    1.644    27 C    1.178    54 H    0.973
    27   6 C    3.908 --    29 C    1.322    28 N    1.225    26 C    1.178
    28   7 N    3.247 --    24 C    1.256    27 C    1.225     1 Cu   0.499
    29   6 C    3.931 --    27 C    1.322    39 C    1.316    30 C    1.034
    30   6 C    3.984 --    38 C    1.383    31 C    1.383    29 C    1.034
    31   6 C    3.986 --    32 C    1.464    30 C    1.383    55 H    0.971
                            37 C    0.101
    32   6 C    3.987 --    31 C    1.464    33 C    1.386    56 H    0.965
                            38 C    0.101
    33   6 C    3.940 --    37 C    1.387    32 C    1.386    34 N    0.921
    34   7 N    3.865 --    35 O    1.454    36 O    1.454    33 C    0.921
    35   8 O    1.828 --    34 N    1.454    36 O    0.251
    36   8 O    1.828 --    34 N    1.454    35 O    0.251
    37   6 C    3.987 --    38 C    1.464    33 C    1.387    57 H    0.965
                            31 C    0.101
    38   6 C    3.987 --    37 C    1.464    30 C    1.383    58 H    0.971
                            32 C    0.101
    39   6 C    3.914 --    29 C    1.316    43 N    1.242    40 C    1.170
    40   6 C    3.958 --    41 C    1.658    39 C    1.170    59 H    0.973
    41   6 C    3.955 --    40 C    1.658    42 C    1.169    60 H    0.975
    42   6 C    3.914 --     2 C    1.362    43 N    1.229    41 C    1.169
    43   7 N    3.243 --    39 C    1.242    42 C    1.229     1 Cu   0.503
    44   1 H    1.001 --     2 C    0.971
    45   1 H    0.997 --     4 C    0.975
    46   1 H    1.003 --     5 C    0.973
    47   1 H    1.004 --    10 C    0.971
    48   1 H    1.006 --    11 C    0.965
    49   1 H    1.006 --    16 C    0.965
    50   1 H    1.003 --    17 C    0.971
    51   1 H    1.003 --    19 C    0.973
    52   1 H    1.001 --    20 C    0.973
    53   1 H    1.001 --    25 C    0.973
    54   1 H    1.003 --    26 C    0.973
    55   1 H    1.003 --    31 C    0.971
    56   1 H    1.006 --    32 C    0.965
    57   1 H    1.006 --    37 C    0.965
    58   1 H    1.003 --    38 C    0.971
    59   1 H    1.003 --    40 C    0.973
    60   1 H    0.997 --    41 C    0.975
    61  29 Cu   2.176 --   103 N    0.503    67 N    0.503    81 N    0.500
                            88 N    0.499
    62   6 C    3.931 --   102 C    1.362    63 C    1.362   104 H    0.971
    63   6 C    3.914 --    62 C    1.362    67 N    1.229    64 C    1.169
    64   6 C    3.955 --    65 C    1.658    63 C    1.169   105 H    0.975
    65   6 C    3.958 --    64 C    1.658    66 C    1.170   106 H    0.973
    66   6 C    3.914 --    68 C    1.316    67 N    1.242    65 C    1.170
    67   7 N    3.243 --    66 C    1.242    63 C    1.229    61 Cu   0.503
    68   6 C    3.931 --    78 C    1.322    66 C    1.316    69 C    1.034
    69   6 C    3.984 --    77 C    1.383    70 C    1.383    68 C    1.034
    70   6 C    3.986 --    71 C    1.464    69 C    1.383   107 H    0.971
                            76 C    0.101
    71   6 C    3.987 --    70 C    1.464    72 C    1.386   108 H    0.965
                            77 C    0.101
    72   6 C    3.940 --    76 C    1.386    71 C    1.386    73 N    0.922
    73   7 N    3.865 --    75 O    1.454    74 O    1.454    72 C    0.922
    74   8 O    1.828 --    73 N    1.454    75 O    0.251
    75   8 O    1.828 --    73 N    1.454    74 O    0.251
    76   6 C    3.987 --    77 C    1.464    72 C    1.386   109 H    0.965
                            70 C    0.101
    77   6 C    3.986 --    76 C    1.464    69 C    1.383   110 H    0.971
                            71 C    0.101
    78   6 C    3.908 --    68 C    1.322    81 N    1.226    79 C    1.178
    79   6 C    3.954 --    80 C    1.644    78 C    1.178   111 H    0.973
    80   6 C    3.956 --    79 C    1.644    82 C    1.186   112 H    0.973
    81   7 N    3.247 --    82 C    1.256    78 C    1.226    61 Cu   0.500
    82   6 C    3.895 --    83 C    1.260    81 N    1.256    80 C    1.186
    83   6 C    3.940 --    84 C    1.260    82 C    1.260   126 C    1.187
    84   6 C    3.895 --    83 C    1.260    88 N    1.256    85 C    1.186
    85   6 C    3.956 --    86 C    1.644    84 C    1.186   113 H    0.973
    86   6 C    3.954 --    85 C    1.644    87 C    1.178   114 H    0.973
    87   6 C    3.908 --    89 C    1.322    88 N    1.225    86 C    1.178
    88   7 N    3.247 --    84 C    1.256    87 C    1.225    61 Cu   0.499
    89   6 C    3.931 --    87 C    1.322    99 C    1.316    90 C    1.034
    90   6 C    3.984 --    98 C    1.383    91 C    1.383    89 C    1.034
    91   6 C    3.986 --    92 C    1.464    90 C    1.383   115 H    0.971
                            97 C    0.101
    92   6 C    3.987 --    91 C    1.464    93 C    1.386   116 H    0.965
                            98 C    0.101
    93   6 C    3.940 --    97 C    1.387    92 C    1.386    94 N    0.921
    94   7 N    3.865 --    96 O    1.454    95 O    1.454    93 C    0.921
    95   8 O    1.828 --    94 N    1.454    96 O    0.251
    96   8 O    1.828 --    94 N    1.454    95 O    0.251
    97   6 C    3.987 --    98 C    1.464    93 C    1.387   117 H    0.965
                            91 C    0.101
    98   6 C    3.987 --    97 C    1.464    90 C    1.383   118 H    0.971
                            92 C    0.101
    99   6 C    3.914 --    89 C    1.316   103 N    1.242   100 C    1.170
   100   6 C    3.958 --   101 C    1.658    99 C    1.170   119 H    0.973
   101   6 C    3.955 --   100 C    1.658   102 C    1.169   120 H    0.975
   102   6 C    3.914 --    62 C    1.362   103 N    1.229   101 C    1.169
   103   7 N    3.243 --    99 C    1.242   102 C    1.229    61 Cu   0.503
   104   1 H    1.001 --    62 C    0.971
   105   1 H    0.997 --    64 C    0.975
   106   1 H    1.003 --    65 C    0.973
   107   1 H    1.004 --    70 C    0.971
   108   1 H    1.006 --    71 C    0.965
   109   1 H    1.006 --    76 C    0.965
   110   1 H    1.003 --    77 C    0.971
   111   1 H    1.003 --    79 C    0.973
   112   1 H    1.001 --    80 C    0.973
   113   1 H    1.001 --    85 C    0.973
   114   1 H    1.003 --    86 C    0.973
   115   1 H    1.003 --    91 C    0.971
   116   1 H    1.006 --    92 C    0.965
   117   1 H    1.006 --    97 C    0.965
   118   1 H    1.004 --    98 C    0.971
   119   1 H    1.003 --   100 C    0.973
   120   1 H    0.997 --   101 C    0.975
   121   6 C    3.927 --   122 C    2.373   125 C    1.332   124 C    0.191
   122   6 C    3.927 --   121 C    2.373   123 C    1.332   126 C    0.191
   123   6 C    3.936 --   124 C    2.454   122 C    1.332
   124   6 C    3.892 --   123 C    2.454    23 C    1.187   121 C    0.191
   125   6 C    3.936 --   126 C    2.454   121 C    1.332
   126   6 C    3.892 --   125 C    2.454    83 C    1.187   122 C    0.191
 ---------------------------------------------------------------------------

           -------------------------------------------------
          | TOTAL ENERGY             -250.615641866730 Eh   |
          | GRADIENT NORM               0.000699397934 Eh/α |
          | HOMO-LUMO GAP               0.001913547389 eV   |
           -------------------------------------------------

 * finished run on 2022/07/30 at 08:13:56.208
