   * xtb version 6.5.1 (b24c23e) compiled by 'conda@728c89f4b128' on 2022-07-12
          program call               : xtb Zn_m-CP_C6_3.xyz --gfn 1 --opt -T 48

   ID    Z sym.   atoms
    1   30 Zn     1, 63, 137
    2    6 C      2-6, 8-12, 15-20, 22-27, 29-35, 38-42, 64-68, 70-74, 77-82,
                  84-89, 91-97, 100-104, 125-136, 138-142, 144-148, 151-156,
                  158-163, 165-171, 174-178
    3    7 N      7, 21, 28, 43, 69, 83, 90, 105, 143, 157, 164, 179
    4    8 O      13, 14, 36, 37, 75, 76, 98, 99, 149, 150, 172, 173
    5    1 H      44-62, 106-124, 180-197
########################################################################
[WARNING] Please study the warnings concerning your input carefully
-1- prog_main_parseArguments: Unknown option '-T' provided
########################################################################

          :  Hamiltonian                  GFN1-xTB          :
 * total energy  :  -367.2234699 Eh     change        0.6504251E-08 Eh
 * total energy  :  -367.4703325 Eh     change       -0.2468626E+00 Eh
 * total energy  :  -367.6249706 Eh     change       -0.1546382E+00 Eh
 * total energy  :  -367.7003789 Eh     change       -0.7540830E-01 Eh
 * total energy  :  -367.7555074 Eh     change       -0.5512849E-01 Eh
 * total energy  :  -367.7942751 Eh     change       -0.3876771E-01 Eh
 * total energy  :  -367.8242610 Eh     change       -0.2998591E-01 Eh
 * total energy  :  -367.8535195 Eh     change       -0.2925847E-01 Eh
 * total energy  :  -367.8828234 Eh     change       -0.2930387E-01 Eh
 * total energy  :  -367.9015947 Eh     change       -0.1877137E-01 Eh
 * total energy  :  -368.0498050 Eh     change        0.5169865E-04 Eh
 * total energy  :  -368.0498575 Eh     change       -0.5252129E-04 Eh
 * total energy  :  -368.0497402 Eh     change        0.1172905E-03 Eh
 * total energy  :  -368.0498599 Eh     change       -0.1196921E-03 Eh
 * total energy  :  -368.0497845 Eh     change        0.7541759E-04 Eh
 * total energy  :  -368.0498708 Eh     change       -0.8633783E-04 Eh
 * total energy  :  -368.0498779 Eh     change       -0.7085692E-05 Eh
 * total energy  :  -368.0498871 Eh     change       -0.9157562E-05 Eh
 * total energy  :  -368.0498900 Eh     change       -0.2928321E-05 Eh
   *** GEOMETRY OPTIMIZATION CONVERGED AFTER 105 ITERATIONS ***

 final structure:
================
197
 xtb: 6.5.1 (b24c23e)
Zn          29.08721495323122        0.14031327402165       -0.39514607304601
C           25.69360267503030        0.10336593190056       -0.07122215651268
C           26.31184144333334        1.34325209801543        0.03512363667890
C           25.62991195397641        2.59045611821785        0.24182340363186
C           26.57865092088250        3.55815868909847        0.29237537372811
C           27.85423483875127        2.91174605470306        0.12802402319119
N           27.65607888017661        1.57227759400575       -0.03642377646110
C           29.09784859249133        3.55494757519254        0.11707527812692
C           29.10278848375673        5.02312249079923        0.33786009968509
C           28.62442841819255        5.56197659279708        1.52889676478958
C           28.63019098791451        6.94109044411553        1.73485448957857
C           28.10839477506321        7.45354411767321        3.02636929570357
O           28.16401363605650        8.78920395662191        3.13525614581878
O           27.67146768003531        6.75845362063821        3.90780590430413
C           29.11522567163555        7.79419389427940        0.74355240379345
C           29.59081180743672        7.26061686506247       -0.44394441403327
C           29.58687131677663        5.88777133697150       -0.64693830720323
C           30.33675926634152        2.93573141546822       -0.08130377967030
C           31.61243680775526        3.59552903213380       -0.03274568355144
C           32.55991851908922        2.65207890560802       -0.26693907275876
N           30.53491707782705        1.60369977045473       -0.32870987837533
C           31.87472883205790        1.40664301947409       -0.45175402335296
C           32.50819399545640        0.17697729663043       -0.72390905636466
C           31.86132073523656       -1.06600292975233       -0.87670761711063
C           32.52646658883540       -2.29823353669914       -1.18318019034349
C           31.57240636766622       -3.26263698989901       -1.23266128330228
C           30.31448840994755       -2.62890547105585       -0.94761636554008
N           30.52647163780937       -1.29102130302784       -0.74765918780860
C           29.07458694142293       -3.27558017624918       -0.90403664037299
C           29.06970621630076       -4.74616514158416       -1.11059519299764
C           29.74458288728755       -5.58761919691599       -0.22324793157497
C           29.73851773149423       -6.96318623366028       -0.40866245345243
C           29.06146625140024       -7.51619237876383       -1.48262110419785
C           28.38437046764157       -6.68613471616716       -2.37753444167555
C           27.67134422371431       -7.31670212491587       -3.51605537857232
O           27.04628975096913       -6.43699745998634       -4.31292084659036
O           27.64009591858620       -8.50244261960372       -3.72611294992292
C           28.38868613001613       -5.30529219100416       -2.18979571390464
C           27.83769835429658       -2.65889026511472       -0.67959360505513
C           26.56899278531339       -3.33344678200988       -0.59520056870813
C           25.62610968661885       -2.38588310360413       -0.36572832433410
C           26.30712926426612       -1.12325397816478       -0.29558144149121
N           27.64462267729897       -1.32276289302547       -0.48435189743182
H           24.61317131746897        0.09130044088343        0.03411850305924
H           24.56033848046690        2.70028670184802        0.32884225575926
H           26.43165325756565        4.61866034925388        0.41992661740990
H           28.25625331923931        4.91352564243581        2.31643376669186
H           27.80757744805664        9.04254739405651        4.00218212144622
H           29.11760509560612        8.86540983569947        0.90446740734156
H           29.96645435357447        7.91779755845584       -1.22013660863352
H           29.94872895943771        5.47826081973450       -1.58350944242485
H           31.76378374811477        4.64364912110165        0.16956110579691
H           33.63003291577687        2.77971126960296       -0.30499784807710
H           33.58741594885291       -2.40297459442992       -1.34550713585869
H           31.70538315269019       -4.30915627733381       -1.45518022351842
H           30.26443065036523       -5.15767538243411        0.62567378189916
H           30.26346203895282       -7.60345394687695        0.29112253636214
H           29.04644382233920       -8.58838224208396       -1.64241826427425
H           26.60782040006865       -6.92699418791160       -5.02732047711046
H           27.87348525202673       -4.66237705253951       -2.89366898493649
H           26.42392564102874       -4.39775055165928       -0.68932096898269
H           24.56248856533055       -2.51931726203779       -0.24493440306349
Zn          61.13313045969880        0.16926666154854       -0.27722338786523
C           64.54198933565868        0.10188283640030       -0.31020719481623
C           63.89613502547925       -1.10372018238194       -0.55554512528221
C           64.55349938803919       -2.34705976682375       -0.84706783174757
C           63.58305091676863       -3.27863456153073       -1.01852382305074
C           62.31940790711483       -2.61730710867688       -0.82310830021360
N           62.54455614423558       -1.29885064224690       -0.55593128256717
C           61.06011432090416       -3.22298378311182       -0.91625216970335
C           61.03175258648149       -4.68178579421238       -1.18911381037401
C           61.62380010756919       -5.57906122669568       -0.30440823717785
C           61.60296146792166       -6.94877271397996       -0.56463206372240
C           62.25536548344628       -7.85270524374380        0.41526525767160
O           62.18020602298621       -9.14960337752206        0.08144469064086
O           62.80858613542443       -7.48262591241564        1.41925998402337
C           60.98555613270381       -7.43209065588283       -1.71831043733899
C           60.39484985554308       -6.54143404303456       -2.60082179996403
C           60.41645047884391       -5.17836588195808       -2.34100936694689
C           59.82832966828527       -2.57306349589743       -0.77948415603542
C           58.54128140959677       -3.21015659286914       -0.83211985865115
C           57.60701732448756       -2.23905960193589       -0.66753980775809
N           59.65133846289329       -1.23278713228173       -0.56190383988482
C           58.31253074975940       -1.00288263588394       -0.49873485746465
C           57.69686797912150        0.24992262915927       -0.30111343058620
C           58.36682975484938        1.46889013695333       -0.07249239940767
C           57.71696088830141        2.73235045073846        0.11817201877509
C           58.69295086457569        3.65509263821814        0.31485463820689
C           59.95000353919821        2.96184903012244        0.25064030477315
N           59.71404796134485        1.63528280566765        0.00700871416498
C           61.20868040220991        3.55752767503706        0.38332679584310
C           61.24110268969073        5.01389139547136        0.67351233418119
C           60.69968781812604        5.51184128031267        1.86061797440175
C           60.73182787384524        6.87172460325116        2.13712858559738
C           61.29987169166646        7.75142905930072        1.23098199342566
C           61.84142223224226        7.26651268512292        0.03940001399136
C           62.43651665354415        8.24128262350748       -0.90827785822629
O           62.92753940644229        7.67740931830383       -2.02203731553710
O           62.48659869326008        9.42984995846558       -0.71911233529209
C           61.81331980663082        5.90071623696015       -0.23576816115663
C           62.44058077874202        2.90401074303777        0.26098721767500
C           63.73269377667940        3.51549042151397        0.42874016396467
C           64.66218325249207        2.54782939871938        0.23061227570753
C           63.95040464511245        1.33198969989031       -0.04917444910805
N           62.60807592202642        1.57954361449200       -0.01867890836673
H           65.62731772702436        0.08007772065302       -0.32233507979834
H           65.62209836803858       -2.47709889669091       -0.91636909278873
H           63.70746589176464       -4.32043670067161       -1.26680590267454
H           62.09567051431274       -5.22331700150682        0.60502024394478
H           62.62858101484264       -9.67040049004838        0.76740163620292
H           60.97145947680664       -8.49631924493441       -1.91985076694527
H           59.91588143380039       -6.90949566108484       -3.50115258907394
H           59.96626039088238       -4.48664658755881       -3.04432281997277
H           58.37447109775925       -4.26715819296610       -0.96371791789084
H           56.53396064768913       -2.34481343252105       -0.64993647048422
H           56.64989151628730        2.88682961015603        0.09790181534441
H           58.57478072818651        4.71459313265145        0.47586173474343
H           60.26405652414731        4.82323786841571        2.57603489842972
H           60.31222968639771        7.24288603247734        3.06524089558449
H           61.33219411824259        8.81656845759117        1.43044850739577
H           63.29433063401781        8.37814624608315       -2.58522071855869
H           62.22384167637529        5.52786508959870       -1.16671462295757
H           63.90175753444505        4.55133376036946        0.67600080588285
H           65.73639802560575        2.63607633334388        0.27493233212904
C           37.69671684313715        0.27554107884989       -1.07804006800736
C           36.47010396322074        0.24280518503943       -1.01682741957452
C           35.12879700211816        0.21482509382317       -0.93375347291928
C           33.90822025490495        0.19277521500617       -0.84327797795619
C           39.03956654146403        0.30963196487649       -1.12359775834481
C           40.26310835534662        0.34396535731773       -1.14869076401319
C           53.72924091303419        0.36113957616678       -0.48325906634122
C           52.50383923510948        0.39305887184275       -0.56597409819001
C           51.16332380939225        0.41898675244500       -0.66088986389684
C           49.94263664819686        0.43764823721490       -0.75344829597220
C           55.07073908583514        0.32443684481920       -0.40585894602869
C           56.29278177138967        0.28781523339628       -0.34358609807211
Zn          45.10612723648350        0.42806327815168       -1.04520339990606
C           41.66727340922471        0.37855457095148       -1.14826823003721
C           42.34157035640559       -0.76783506663110       -1.61561042712862
C           41.69629043646145       -1.92736111540405       -2.15666172975163
C           42.67566223832599       -2.80234052338415       -2.50035845862296
C           43.92891056093091       -2.19054903372362       -2.15604288752166
N           43.68907587423131       -0.94830436009771       -1.63228600927966
C           45.19028972681710       -2.76748024787318       -2.33732959688279
C           45.23193002047503       -4.13418016460731       -2.91701437577659
C           44.64052768783049       -5.20683826827545       -2.25610154854503
C           44.68011911335049       -6.48674319281861       -2.80828917225685
C           44.03157975143309       -7.58950661117951       -2.05549376370767
O           44.12653151148075       -8.78150347983907       -2.66292808800183
O           43.46685877379077       -7.45308963873218       -1.00041234908272
C           45.31336706505018       -6.70125208473835       -4.03243797708404
C           45.90341548145481       -5.63486406088240       -4.69250706665732
C           45.86570355917778       -4.36201279363450       -4.14102262446977
C           46.41839928537073       -2.17653414634866       -2.02011575236519
C           47.70016637591922       -2.81361434270720       -2.13742632987955
C           48.63082021278187       -1.91981504700587       -1.71469082674241
N           46.59268793053354       -0.91402298415287       -1.52030445757146
C           47.92718287036245       -0.73142947980008       -1.33289325529614
C           48.54160758392399        0.44383114002215       -0.85396692779264
C           47.87055401370577        1.62389984421190       -0.47336798376006
C           48.51993801622916        2.82789971057605       -0.04662587410700
C           47.54305863701662        3.73112650755017        0.22425846009815
C           46.28621770627844        3.08059675995360       -0.02101911884237
N           46.52293265932100        1.80350101947383       -0.45484251899077
C           45.02549270216358        3.66359863837910        0.14473031317303
C           44.98680791760660        5.06392427535988        0.63910629030693
C           44.44507965211707        6.07666599529128       -0.15561150599851
C           44.40806954665429        7.38823198831223        0.29710548351089
C           44.90699006484737        7.70456974193927        1.54954461919022
C           45.44785497971780        6.70091442863300        2.35468581511473
C           45.96838312270567        7.08004964248683        3.69203781245284
O           46.46824136376483        6.04762193319410        4.38677316763088
O           45.95538860175092        8.20077381353761        4.13332525595533
C           45.48849197600054        5.38477730725842        1.89843232656509
C           43.79479726429247        3.04771387919684       -0.10776282774890
C           42.50754517455893        3.63340482012858        0.14244414535991
C           41.57423685968528        2.71246046263551       -0.21029192371919
C           42.28152186039415        1.55665038907433       -0.67624788089077
N           43.62031528590051        1.78202011228127       -0.59948251772253
H           40.63006471933633       -2.04556217564263       -2.26612097838900
H           42.56041917062694       -3.77336496572897       -2.95413892565185
H           44.15534321948167       -5.06173408466832       -1.29706983666820
H           43.67993022141783       -9.44446318961703       -2.11170773265135
H           45.34109139036821       -7.69575997692163       -4.46090700995712
H           46.39533391230982       -5.79362968761327       -5.64552810003721
H           46.31864755022512       -3.52985226290186       -4.66845168820488
H           47.86484251397427       -3.82130174060975       -2.48357803704418
H           49.69999371064652       -2.04895592643849       -1.65974031451851
H           49.58764908282846        2.96102809192506        0.02507810848444
H           47.66248152790352        4.75088599935872        0.55302650461028
H           44.06368197020683        5.83229209624778       -1.14082094290710
H           43.98873396331076        8.16417696595332       -0.33320365736964
H           44.88524579108179        8.72346867559956        1.91932914333571
H           46.78441296684372        6.37746632406949        5.24353987120737
H           45.89719695633293        4.60551699567650        2.53077717163921
H           42.34032635101315        4.61716666424958        0.55060878520949
H           40.50070314516436        2.79995333933962       -0.15838866025695

          :  Hamiltonian                  GFN1-xTB          :
         :: total energy            -368.049890018281 Eh    ::
         :: gradient norm              0.000341075186 Eh/a0 ::
         :: HOMO-LUMO gap              0.942947484407 eV    ::
         :: SCC energy              -373.608357987630 Eh    ::
         :: repulsion energy           5.733556419599 Eh    ::

    * Orbital Energies and Occupations

         #    Occupation            Energy/Eh            Energy/eV
      -------------------------------------------------------------
         1        2.0000           -0.8330734             -22.6691
       ...           ...                  ...                  ...
       313        2.0000           -0.4268174             -11.6143
       314        2.0000           -0.4267713             -11.6130
       315        2.0000           -0.4265263             -11.6064
       316        2.0000           -0.4244753             -11.5506
       317        2.0000           -0.4174397             -11.3591
       318        2.0000           -0.4159538             -11.3187
       319        2.0000           -0.4153705             -11.3028
       320        2.0000           -0.4007526             -10.9050
       321        2.0000           -0.3995182             -10.8714
       322        2.0000           -0.3991342             -10.8610
       323        2.0000           -0.3943671             -10.7313
       324        2.0000           -0.3878251             -10.5533
       325        2.0000           -0.3806608             -10.3583 (HOMO)
       326                         -0.3460081              -9.4154 (LUMO)
       327                         -0.3368204              -9.1653
       328                         -0.3339699              -9.0878
       329                         -0.3331010              -9.0641
       330                         -0.3327137              -9.0536
       331                         -0.3303862              -8.9903
       332                         -0.3120450              -8.4912
       333                         -0.3109136              -8.4604
       334                         -0.3105957              -8.4517
       335                         -0.3101419              -8.4394
       336                         -0.3097374              -8.4284
       ...                                ...                  ...
       676                          1.5766209              42.9020
      -------------------------------------------------------------
                  HL-Gap            0.0346527 Eh            0.9429 eV

Wiberg/Mayer (AO) data.
largest (>0.10) Wiberg bond orders for each atom

     #   Z sym  total        # sym  WBO       # sym  WBO       # sym  WBO
 ---------------------------------------------------------------------------
     1  30 Zn   1.994 --     7 N    0.460    43 N    0.459    21 N    0.455
                            28 N    0.455
     2   6 C    3.928 --     3 C    1.358    42 C    1.357    44 H    0.971
     3   6 C    3.921 --     2 C    1.358     7 N    1.232     4 C    1.169
     4   6 C    3.961 --     5 C    1.661     3 C    1.169    45 H    0.975
     5   6 C    3.963 --     4 C    1.661     6 C    1.170    46 H    0.973
     6   6 C    3.919 --     8 C    1.315     7 N    1.245     5 C    1.170
     7   7 N    3.294 --     6 C    1.245     3 C    1.232     1 Zn   0.460
     8   6 C    3.932 --    18 C    1.323     6 C    1.315     9 C    1.027
     9   6 C    3.988 --    10 C    1.408    17 C    1.387     8 C    1.027
                            15 C    0.102
    10   6 C    3.984 --     9 C    1.408    11 C    1.396    47 H    0.968
                            16 C    0.104
    11   6 C    3.988 --    10 C    1.396    15 C    1.391    12 C    1.006
    12   6 C    3.836 --    14 O    1.692    13 O    1.089    11 C    1.006
    13   8 O    2.098 --    12 C    1.089    48 H    0.838    14 O    0.129
    14   8 O    1.961 --    12 C    1.692    13 O    0.129
    15   6 C    3.987 --    16 C    1.448    11 C    1.391    49 H    0.971
                             9 C    0.102
    16   6 C    3.994 --    15 C    1.448    17 C    1.441    50 H    0.972
                            10 C    0.104
    17   6 C    3.987 --    16 C    1.441     9 C    1.387    51 H    0.973
    18   6 C    3.913 --     8 C    1.323    21 N    1.226    19 C    1.178
    19   6 C    3.959 --    20 C    1.646    18 C    1.178    52 H    0.973
    20   6 C    3.962 --    19 C    1.646    22 C    1.186    53 H    0.974
    21   7 N    3.296 --    22 C    1.263    18 C    1.226     1 Zn   0.455
    22   6 C    3.901 --    21 N    1.263    23 C    1.253    20 C    1.186
    23   6 C    3.939 --    24 C    1.253    22 C    1.253   128 C    1.193
    24   6 C    3.901 --    28 N    1.263    23 C    1.253    25 C    1.186
    25   6 C    3.962 --    26 C    1.647    24 C    1.186    54 H    0.974
    26   6 C    3.959 --    25 C    1.647    27 C    1.178    55 H    0.973
    27   6 C    3.913 --    29 C    1.324    28 N    1.226    26 C    1.178
    28   7 N    3.296 --    24 C    1.263    27 C    1.226     1 Zn   0.455
    29   6 C    3.932 --    27 C    1.324    39 C    1.314    30 C    1.027
    30   6 C    3.988 --    38 C    1.406    31 C    1.389    29 C    1.027
                            33 C    0.102
    31   6 C    3.987 --    32 C    1.440    30 C    1.389    56 H    0.973
    32   6 C    3.994 --    33 C    1.451    31 C    1.440    57 H    0.972
                            38 C    0.104
    33   6 C    3.986 --    32 C    1.451    34 C    1.387    58 H    0.969
                            30 C    0.102
    34   6 C    3.988 --    38 C    1.399    33 C    1.387    35 C    1.006
    35   6 C    3.835 --    37 O    1.692    36 O    1.089    34 C    1.006
    36   8 O    2.098 --    35 C    1.089    59 H    0.838    37 O    0.129
    37   8 O    1.960 --    35 C    1.692    36 O    0.129
    38   6 C    3.985 --    30 C    1.406    34 C    1.399    60 H    0.969
                            32 C    0.104
    39   6 C    3.919 --    29 C    1.314    43 N    1.245    40 C    1.171
    40   6 C    3.963 --    41 C    1.660    39 C    1.171    61 H    0.973
    41   6 C    3.960 --    40 C    1.660    42 C    1.170    62 H    0.975
    42   6 C    3.921 --     2 C    1.357    43 N    1.233    41 C    1.170
    43   7 N    3.294 --    39 C    1.245    42 C    1.233     1 Zn   0.459
    44   1 H    1.001 --     2 C    0.971
    45   1 H    0.998 --     4 C    0.975
    46   1 H    1.004 --     5 C    0.973
    47   1 H    1.007 --    10 C    0.968
    48   1 H    0.873 --    13 O    0.838
    49   1 H    1.005 --    15 C    0.971
    50   1 H    1.002 --    16 C    0.972
    51   1 H    1.005 --    17 C    0.973
    52   1 H    1.004 --    19 C    0.973
    53   1 H    1.002 --    20 C    0.974
    54   1 H    1.002 --    25 C    0.974
    55   1 H    1.004 --    26 C    0.973
    56   1 H    1.005 --    31 C    0.973
    57   1 H    1.002 --    32 C    0.972
    58   1 H    1.005 --    33 C    0.969
    59   1 H    0.873 --    36 O    0.838
    60   1 H    1.008 --    38 C    0.969
    61   1 H    1.004 --    40 C    0.973
    62   1 H    0.998 --    41 C    0.975
    63  30 Zn   1.994 --    69 N    0.460   105 N    0.459    90 N    0.455
                            83 N    0.455
    64   6 C    3.928 --    65 C    1.358   104 C    1.357   106 H    0.971
    65   6 C    3.921 --    64 C    1.358    69 N    1.232    66 C    1.169
    66   6 C    3.961 --    67 C    1.661    65 C    1.169   107 H    0.975
    67   6 C    3.963 --    66 C    1.661    68 C    1.170   108 H    0.973
    68   6 C    3.919 --    70 C    1.314    69 N    1.245    67 C    1.170
    69   7 N    3.295 --    68 C    1.245    65 C    1.232    63 Zn   0.460
    70   6 C    3.932 --    80 C    1.323    68 C    1.314    71 C    1.029
    71   6 C    3.988 --    72 C    1.407    79 C    1.387    70 C    1.029
                            77 C    0.102
    72   6 C    3.984 --    71 C    1.407    73 C    1.396   109 H    0.968
                            78 C    0.103
    73   6 C    3.988 --    72 C    1.396    77 C    1.390    74 C    1.006
    74   6 C    3.836 --    76 O    1.692    75 O    1.089    73 C    1.006
    75   8 O    2.098 --    74 C    1.089   110 H    0.838    76 O    0.129
    76   8 O    1.961 --    74 C    1.692    75 O    0.129
    77   6 C    3.986 --    78 C    1.448    73 C    1.390   111 H    0.971
                            71 C    0.102
    78   6 C    3.994 --    77 C    1.448    79 C    1.441   112 H    0.973
                            72 C    0.103
    79   6 C    3.987 --    78 C    1.441    71 C    1.387   113 H    0.972
    80   6 C    3.913 --    70 C    1.323    83 N    1.226    81 C    1.178
    81   6 C    3.959 --    82 C    1.646    80 C    1.178   114 H    0.973
    82   6 C    3.962 --    81 C    1.646    84 C    1.186   115 H    0.974
    83   7 N    3.296 --    84 C    1.263    80 C    1.226    63 Zn   0.455
    84   6 C    3.901 --    83 N    1.263    85 C    1.253    82 C    1.186
    85   6 C    3.939 --    86 C    1.253    84 C    1.253   136 C    1.193
    86   6 C    3.901 --    90 N    1.263    85 C    1.253    87 C    1.186
    87   6 C    3.962 --    88 C    1.647    86 C    1.186   116 H    0.974
    88   6 C    3.959 --    87 C    1.647    89 C    1.178   117 H    0.973
    89   6 C    3.913 --    91 C    1.324    90 N    1.226    88 C    1.178
    90   7 N    3.296 --    86 C    1.263    89 C    1.226    63 Zn   0.455
    91   6 C    3.932 --    89 C    1.324   101 C    1.315    92 C    1.025
    92   6 C    3.988 --   100 C    1.407    93 C    1.390    91 C    1.025
                            95 C    0.103
    93   6 C    3.987 --    94 C    1.439    92 C    1.390   118 H    0.973
                            96 C    0.100
    94   6 C    3.994 --    95 C    1.451    93 C    1.439   119 H    0.972
                           100 C    0.104
    95   6 C    3.986 --    94 C    1.451    96 C    1.387   120 H    0.969
                            92 C    0.103
    96   6 C    3.988 --   100 C    1.399    95 C    1.387    97 C    1.006
                            93 C    0.100
    97   6 C    3.835 --    99 O    1.692    98 O    1.089    96 C    1.006
    98   8 O    2.098 --    97 C    1.089   121 H    0.838    99 O    0.129
    99   8 O    1.960 --    97 C    1.692    98 O    0.129
   100   6 C    3.985 --    92 C    1.407    96 C    1.399   122 H    0.969
                            94 C    0.104
   101   6 C    3.919 --    91 C    1.315   105 N    1.245   102 C    1.171
   102   6 C    3.963 --   103 C    1.660   101 C    1.171   123 H    0.973
   103   6 C    3.960 --   102 C    1.660   104 C    1.170   124 H    0.975
   104   6 C    3.921 --    64 C    1.357   105 N    1.233   103 C    1.170
   105   7 N    3.294 --   101 C    1.245   104 C    1.233    63 Zn   0.459
   106   1 H    1.001 --    64 C    0.971
   107   1 H    0.998 --    66 C    0.975
   108   1 H    1.004 --    67 C    0.973
   109   1 H    1.007 --    72 C    0.968
   110   1 H    0.873 --    75 O    0.838
   111   1 H    1.005 --    77 C    0.971
   112   1 H    1.002 --    78 C    0.973
   113   1 H    1.005 --    79 C    0.972
   114   1 H    1.004 --    81 C    0.973
   115   1 H    1.002 --    82 C    0.974
   116   1 H    1.002 --    87 C    0.974
   117   1 H    1.004 --    88 C    0.973
   118   1 H    1.004 --    93 C    0.973
   119   1 H    1.002 --    94 C    0.972
   120   1 H    1.005 --    95 C    0.969
   121   1 H    0.873 --    98 O    0.838
   122   1 H    1.008 --   100 C    0.969
   123   1 H    1.004 --   102 C    0.973
   124   1 H    0.998 --   103 C    0.975
   125   6 C    3.925 --   126 C    2.366   129 C    1.337   128 C    0.190
   126   6 C    3.924 --   125 C    2.366   127 C    1.336   130 C    0.190
   127   6 C    3.933 --   128 C    2.447   126 C    1.336
   128   6 C    3.889 --   127 C    2.447    23 C    1.193   125 C    0.190
   129   6 C    3.931 --   130 C    2.445   125 C    1.337
   130   6 C    3.890 --   129 C    2.445   138 C    1.195   126 C    0.190
   131   6 C    3.924 --   132 C    2.366   135 C    1.336   134 C    0.190
   132   6 C    3.925 --   131 C    2.366   133 C    1.337   136 C    0.190
   133   6 C    3.931 --   134 C    2.445   132 C    1.337
   134   6 C    3.890 --   133 C    2.445   159 C    1.195   131 C    0.190
   135   6 C    3.933 --   136 C    2.447   131 C    1.336
   136   6 C    3.889 --   135 C    2.447    85 C    1.193   132 C    0.190
   137  30 Zn   1.991 --   157 N    0.456   179 N    0.456   143 N    0.456
                           164 N    0.455
   138   6 C    3.927 --   139 C    1.251   178 C    1.251   130 C    1.195
   139   6 C    3.901 --   143 N    1.264   138 C    1.251   140 C    1.187
   140   6 C    3.960 --   141 C    1.645   139 C    1.187   180 H    0.974
   141   6 C    3.960 --   140 C    1.645   142 C    1.180   181 H    0.973
   142   6 C    3.911 --   144 C    1.321   143 N    1.225   141 C    1.180
   143   7 N    3.291 --   139 C    1.264   142 C    1.225   137 Zn   0.456
   144   6 C    3.928 --   142 C    1.321   154 C    1.319   145 C    1.026
   145   6 C    3.988 --   146 C    1.409   153 C    1.387   144 C    1.026
                           151 C    0.103
   146   6 C    3.984 --   145 C    1.409   147 C    1.396   182 H    0.968
                           152 C    0.104
   147   6 C    3.988 --   146 C    1.396   151 C    1.391   148 C    1.005
   148   6 C    3.836 --   150 O    1.692   149 O    1.089   147 C    1.005
   149   8 O    2.098 --   148 C    1.089   183 H    0.838   150 O    0.129
   150   8 O    1.961 --   148 C    1.692   149 O    0.129
   151   6 C    3.987 --   152 C    1.448   147 C    1.391   184 H    0.971
                           145 C    0.103
   152   6 C    3.994 --   151 C    1.448   153 C    1.441   185 H    0.972
                           146 C    0.104
   153   6 C    3.987 --   152 C    1.441   145 C    1.387   186 H    0.973
   154   6 C    3.911 --   144 C    1.319   157 N    1.226   155 C    1.181
   155   6 C    3.960 --   156 C    1.643   154 C    1.181   187 H    0.973
   156   6 C    3.960 --   155 C    1.643   158 C    1.188   188 H    0.974
   157   7 N    3.291 --   158 C    1.263   154 C    1.226   137 Zn   0.456
   158   6 C    3.901 --   157 N    1.263   159 C    1.251   156 C    1.188
   159   6 C    3.927 --   160 C    1.251   158 C    1.251   134 C    1.195
   160   6 C    3.901 --   164 N    1.264   159 C    1.251   161 C    1.188
   161   6 C    3.960 --   162 C    1.644   160 C    1.188   189 H    0.974
   162   6 C    3.960 --   161 C    1.644   163 C    1.181   190 H    0.973
   163   6 C    3.911 --   165 C    1.321   164 N    1.224   162 C    1.181
   164   7 N    3.291 --   160 C    1.264   163 C    1.224   137 Zn   0.455
   165   6 C    3.928 --   163 C    1.321   175 C    1.319   166 C    1.025
   166   6 C    3.988 --   174 C    1.407   167 C    1.389   165 C    1.025
                           169 C    0.103
   167   6 C    3.987 --   168 C    1.440   166 C    1.389   191 H    0.973
                           170 C    0.100
   168   6 C    3.994 --   169 C    1.450   167 C    1.440   192 H    0.972
                           174 C    0.104
   169   6 C    3.986 --   168 C    1.450   170 C    1.388   193 H    0.969
                           166 C    0.103
   170   6 C    3.988 --   174 C    1.399   169 C    1.388   171 C    1.005
                           167 C    0.100
   171   6 C    3.836 --   173 O    1.692   172 O    1.090   170 C    1.005
   172   8 O    2.098 --   171 C    1.090   194 H    0.838   173 O    0.129
   173   8 O    1.961 --   171 C    1.692   172 O    0.129
   174   6 C    3.985 --   166 C    1.407   170 C    1.399   195 H    0.969
                           168 C    0.104
   175   6 C    3.911 --   165 C    1.319   179 N    1.225   176 C    1.181
   176   6 C    3.960 --   177 C    1.643   175 C    1.181   196 H    0.973
   177   6 C    3.960 --   176 C    1.643   178 C    1.188   197 H    0.974
   178   6 C    3.901 --   179 N    1.263   138 C    1.251   177 C    1.188
   179   7 N    3.291 --   178 C    1.263   175 C    1.225   137 Zn   0.456
   180   1 H    1.002 --   140 C    0.974
   181   1 H    1.004 --   141 C    0.973
   182   1 H    1.007 --   146 C    0.968
   183   1 H    0.873 --   149 O    0.838
   184   1 H    1.005 --   151 C    0.971
   185   1 H    1.002 --   152 C    0.972
   186   1 H    1.005 --   153 C    0.973
   187   1 H    1.004 --   155 C    0.973
   188   1 H    1.002 --   156 C    0.974
   189   1 H    1.002 --   161 C    0.974
   190   1 H    1.004 --   162 C    0.973
   191   1 H    1.005 --   167 C    0.973
   192   1 H    1.002 --   168 C    0.972
   193   1 H    1.005 --   169 C    0.969
   194   1 H    0.873 --   172 O    0.838
   195   1 H    1.007 --   174 C    0.969
   196   1 H    1.004 --   176 C    0.973
   197   1 H    1.002 --   177 C    0.974
 ---------------------------------------------------------------------------

           -------------------------------------------------
          | TOTAL ENERGY             -368.049890018281 Eh   |
          | GRADIENT NORM               0.000341075186 Eh/α |
          | HOMO-LUMO GAP               0.942947484407 eV   |
           -------------------------------------------------

 * finished run on 2022/07/30 at 10:31:22.148
