   * xtb version 6.5.1 (b24c23e) compiled by 'conda@728c89f4b128' on 2022-07-12
          program call               : xtb Ni_BSA_C2_3.xyz --gfn 1 --opt -T 48

   ID    Z sym.   atoms
    1   28 Ni     1, 65, 133
    2    6 C      2-6, 8-12, 17-21, 23-28, 30-34, 39-44, 66-70, 72-76, 81-85,
                  87-92, 94-98, 103-108, 129-132, 134-138, 140-144, 149-153,
                  155-160, 162-166, 171-176
    3    7 N      7, 22, 29, 45, 71, 86, 93, 109, 139, 154, 161, 177
    4   16 S      13, 35, 77, 99, 145, 167
    5    8 O      14-16, 36-38, 78-80, 100-102, 146-148, 168-170
    6    1 H      46-64, 110-128, 178-195

          :  Hamiltonian                  GFN1-xTB          :
 * total energy  :  -397.8533072 Eh     change       -0.8094958E-08 Eh
 * total energy  :  -398.0500412 Eh     change       -0.1967340E+00 Eh
 * total energy  :  -398.1940440 Eh     change       -0.1440028E+00 Eh
 * total energy  :  -398.2618607 Eh     change       -0.6781674E-01 Eh
 * total energy  :  -398.3008392 Eh     change       -0.3897843E-01 Eh
 * total energy  :  -398.3245567 Eh     change       -0.2371759E-01 Eh
 * total energy  :  -398.3449478 Eh     change       -0.2039106E-01 Eh
 * total energy  :  -398.3620437 Eh     change       -0.1709591E-01 Eh
 * total energy  :  -398.3767545 Eh     change       -0.1471078E-01 Eh
 * total energy  :  -398.3892144 Eh     change       -0.1245990E-01 Eh
 * total energy  :  -398.4598145 Eh     change       -0.1848803E-04 Eh
 * total energy  :  -398.4598245 Eh     change       -0.9982540E-05 Eh
 * total energy  :  -398.4598364 Eh     change       -0.1198685E-04 Eh
 * total energy  :  -398.4598502 Eh     change       -0.1375837E-04 Eh
 * total energy  :  -398.4598568 Eh     change       -0.6646865E-05 Eh
 * total energy  :  -398.4598727 Eh     change       -0.1585299E-04 Eh
 * total energy  :  -398.4598850 Eh     change       -0.1228388E-04 Eh
 * total energy  :  -398.4598946 Eh     change       -0.9590395E-05 Eh
 * total energy  :  -398.4598994 Eh     change       -0.4846618E-05 Eh
   *** GEOMETRY OPTIMIZATION CONVERGED AFTER 68 ITERATIONS ***

 final structure:
================
195
 xtb: 6.5.1 (b24c23e)
Ni          36.62415808491675        0.05927665417589        0.02181174612672
C           33.24219288159790        0.18452584596836        0.06767012247240
C           33.89043923986891       -0.28056182378393        1.19352350081648
C           33.21735336545916       -0.75675636125863        2.36361585629997
C           34.17390949854514       -1.00650409207105        3.28821432397534
C           35.43080425454021       -0.66313080569162        2.68853532248405
N           35.24926729099381       -0.26916414751627        1.38653651080283
C           36.64360955397096       -0.64822388105315        3.36598444576235
C           36.66218110327261       -0.97861307265055        4.80963716282729
C           35.93349632850310       -0.21162994125713        5.72216003438533
C           35.95422887250286       -0.51831136389535        7.07283768848788
C           36.70616043936702       -1.60160764688853        7.49758568281142
S           36.74443080446816       -1.99015414083662        9.20693814665569
O           36.42135793383822       -0.84019412705735        9.99908709390311
O           35.47587068914589       -3.00327799111078        9.24500391818033
O           37.92480836392511       -2.73502018678572        9.53227380148386
C           37.44088550861421       -2.37949485096105        6.61754928218610
C           37.41669065188087       -2.06105823308705        5.26989972507264
C           37.84476754810391       -0.32956373857138        2.74309550250585
C           39.09737136878192       -0.20916948354894        3.42648323748749
C           40.04329489381644       -0.00920230446658        2.47721990982261
N           38.01682800772610       -0.15128944096418        1.39095700260488
C           39.36736865805580       -0.00481270990196        1.21851229287332
C           40.02515184087655       -0.00354960044682       -0.01212633900091
C           39.34383440082303        0.00596900634649       -1.22992373058755
C           39.99325906043751       -0.03768862508352       -2.50162417095323
C           39.03404255521230        0.16950400093947       -3.43604832405497
C           37.80141154864226        0.34997367975081       -2.72989338818371
N           37.99564771206310        0.19297637870901       -1.37788664650196
C           36.60378486744877        0.71703430537565       -3.33214861184234
C           36.60493374750813        1.02281224609834       -4.78153133526213
C           35.81377200064186        0.28387523733283       -5.66430248947595
C           35.81420246033799        0.57333485290624       -7.01913638141114
C           36.60998318401903        1.61036260562957       -7.47772989015490
S           36.60296784347204        1.99571247420636       -9.18827225249516
O           36.94056866534832        3.37198368977393       -9.40623896315977
O           37.87858478461775        1.09830171593725       -9.64092958512847
O           35.42744587215135        1.47030040003179       -9.81590837563607
C           37.40097484171671        2.36464399520015       -6.62605331134167
C           37.39732863948365        2.06307775541924       -5.27453828985435
C           35.41244092749555        0.82299917214521       -2.62538691698348
C           34.16790446912233        1.24812757310828       -3.19777553225543
C           33.22360987315191        1.09563146385888       -2.24013027649690
C           33.89228615568866        0.58968492628697       -1.07988858546262
N           35.23997507721800        0.46867939260501       -1.31098256700399
H           32.15957130587242        0.22829082134800        0.08350810954603
H           32.14924762923690       -0.87849158336425        2.44708854615190
H           34.05222287982684       -1.38810755236579        4.28891418599807
H           35.36298604510751        0.64026176207627        5.37106253002782
H           35.40244168206043        0.07607292384330        7.79019202710684
H           35.32145498058865       -3.31335343313097       10.14564634276748
H           38.02267260283623       -3.21549517896291        6.98495990182263
H           37.97641575395536       -2.66249936146413        4.56310986289766
H           39.22607539767170       -0.26587089865068        4.49501162860261
H           41.10667918421010        0.11629204323144        2.60265098341254
H           41.04918813246007       -0.20128007777797       -2.64523722207199
H           39.14126956608694        0.19691885883657       -4.50813643157275
H           35.20627340610383       -0.53022021892023       -5.28656898603617
H           35.20488868264408        0.00751987679420       -7.71264439201927
H           38.14922455398347        1.33198066184860      -10.53723466387685
H           38.00136269349390        3.17657160908242       -7.01686460348042
H           37.99945810278308        2.64801570319255       -4.58908549626688
H           34.04614577098577        1.61569246421099       -4.20369518302486
H           32.16618140924566        1.29898600967267       -2.29585195269144
Ni          58.31928568865410        0.04966315960634       -0.02076019475071
C           61.70815006046818        0.19372465477524       -0.02390002833460
C           61.05842471676790        0.20645832750817       -1.24026092807473
C           61.73809330935213        0.24310087937830       -2.49942654477534
C           60.78263098084761        0.32390237870504       -3.45404640335536
C           59.51934336791683        0.35246299361389       -2.77530906094414
N           59.69798906710202        0.24277468632586       -1.41912740963422
C           58.29847745048204        0.51582275306601       -3.41643872420368
C           58.28585675344138        0.71609660388388       -4.88494263159073
C           58.91345106494436        1.82947785553434       -5.44903121677713
C           58.89821009122905        2.02557145708285       -6.82019105731137
C           58.25399581636863        1.09394787504496       -7.61785658739848
S           58.22429344659792        1.33973092640007       -9.35364048829466
O           58.41799453094460        2.72277491995595       -9.67536919012874
O           59.58486749145179        0.53497173410267       -9.72605589702964
O           57.11874384764422        0.64770785758741       -9.94812354933392
C           57.62164542302460       -0.01901732257721       -7.08795158982522
C           57.63921592661934       -0.20284723843333       -5.71515575998440
C           57.08657618988424        0.51156325426599       -2.73764597642070
C           55.82137539461736        0.74998544388568       -3.36569901672558
C           54.87586222716084        0.60549047132829       -2.40747917859918
N           56.91961685551234        0.25917251227539       -1.39660121932206
C           55.56474383249967        0.28509732678013       -1.19687770214525
C           54.91207495613091       -0.02641589304185       -0.00654263163326
C           55.58773086962398       -0.32837390847858        1.17345552027378
C           54.92493242276985       -0.70543092338668        2.38215858993963
C           55.88598592444448       -0.83896199489679        3.32658531699548
C           57.13305673840601       -0.52853096348556        2.69391854932394
N           56.94231818485547       -0.25249296679989        1.36056831211454
C           58.34709051345555       -0.47338497268392        3.36610731176795
C           58.35605168812007       -0.70076080127290        4.83104671630623
C           59.05038198256018       -1.78521798865391        5.37207499717770
C           59.05777994654827       -2.00297646213487        6.74018683687398
C           58.36798219839365       -1.12244741307333        7.55744865519941
S           58.38649091431999       -1.38176675360151        9.29153457056824
O           58.16449401086973       -0.15360388184281        9.99717132123356
O           57.03452295382701       -2.27337622574566        9.41506436359818
O           59.50531585090941       -2.19463723444633        9.66532374504870
C           57.67677192230170       -0.03374383411154        7.05083575777463
C           57.67124523457885        0.17124407322941        5.68104998146425
C           59.54929542924515       -0.20454343949245        2.72570112219347
C           60.80736003763950       -0.08214763718398        3.40358994757460
C           61.74837390674515        0.10986305353135        2.45059042668905
C           61.06460616822893        0.11202709017053        1.19296186245863
N           59.71335696113773       -0.05002982613633        1.37213072972259
H           62.79064877379506        0.24394223934952       -0.02472308076198
H           62.80936988537910        0.20747803105987       -2.61648304336689
H           60.90804932570728        0.35831587791287       -4.52401266168906
H           59.40068264415898        2.55286065031735       -4.80575819756061
H           59.37157607199625        2.89070071868867       -7.26720839648906
H           59.72968138735649        0.54413209325870      -10.68001358719297
H           57.12238752966464       -0.72388377091253       -7.74085192608912
H           57.15860850466392       -1.07157134419260       -5.28059419918609
H           55.68510282618774        1.00285841801853       -4.40438383318951
H           53.80580565358492        0.70159705340468       -2.49596233473997
H           53.86067325263122       -0.84838545380646        2.47745824095922
H           55.77196301003668       -1.12527714248658        4.35929396418120
H           59.57591236045691       -2.46708126013757        4.71378159698739
H           59.59214090496847       -2.84037004064893        7.17095634489383
H           56.78226183744589       -2.36788124300040       10.34170826185473
H           57.15921394600990        0.64204459499552        7.72005216425884
H           57.14562966983382        1.02249396685518        5.26438204965696
H           60.93817163111810       -0.13285582758535        4.47226696819242
H           62.81246736361442        0.23889159156169        2.56740176353637
C           41.43661136093122       -0.01575729860039       -0.02411822674112
C           42.65139764406325       -0.01935617287024       -0.02694441259240
C           52.28207158167059       -0.04037776677810        0.00815365340472
C           53.49572491949364       -0.03943437627184        0.00251501902346
Ni          47.46499078655685       -0.02660102284279       -0.01423465147208
C           44.06266714231485       -0.02083672343005       -0.02674959930691
C           44.73259697819694        0.87731619197680        0.80559533743125
C           44.07108794574192        1.79086150608547        1.68260656829023
C           45.02342238104129        2.62375111783949        2.16812610220487
C           46.26454710034999        2.21971063058942        1.57980024657482
N           46.08127719176136        1.11125715867806        0.78708243869760
C           47.46167825911920        2.90987571494370        1.72634001210099
C           47.45547555589472        4.19313587538845        2.46565524924775
C           48.23952289248415        4.35297377958843        3.61090633942673
C           48.23929049989198        5.55393425084212        4.30113100420832
C           47.45007834102350        6.59094817226357        3.83126151967355
S           47.45865081272953        8.11991704621437        4.68998208303754
O           47.11891456669095        9.20345331183003        3.81480378449102
O           46.18595702975307        7.85367369483642        5.66248369084123
O           48.63640847282964        8.23372028262124        5.49714127260311
C           46.66513471514688        6.46414822274799        2.69660034426442
C           46.66895527882549        5.25742963040594        2.01691524811544
C           48.66294927900612        2.44512436167624        1.20533795953495
C           49.90724895540119        3.14892325216815        1.29351623242077
C           50.86272437686191        2.31548292906310        0.81634641690987
N           48.84789643721997        1.21489888260087        0.61986428363589
C           50.19928823057665        1.11189473717298        0.42448829097949
C           50.86638583002564       -0.03831483517648        0.00644882764461
C           50.19641335043365       -1.18382327910824       -0.41972749449003
C           50.85639731599937       -2.39060958474877       -0.80751928969908
C           49.90164987630294       -3.21446495451273       -1.30253925615612
C           48.66143706625648       -2.50190248203232       -1.22810591741359
N           48.84708886008595       -1.27620692095695       -0.63366925245575
C           47.46392904524161       -2.95571933873905       -1.76705072490001
C           47.46021291441318       -4.23379546883907       -2.51534528539974
C           48.25498893065404       -4.38821258620151       -3.65394520169574
C           48.25666803722710       -5.58384941567463       -4.35332975862026
C           47.45882227128477       -6.62118051260657       -3.89889307952089
S           47.46823329316900       -8.14307479913898       -4.76986897334798
O           47.10572011978391       -9.23071048009712       -3.90898446594136
O           46.21351030092286       -7.85750079007372       -5.76038840493255
O           48.65722448654365       -8.26104438332554       -5.55992871618114
C           46.66409769626383       -6.50011334574660       -2.77041928114111
C           46.66590257393867       -5.29853311522675       -2.08173175513133
C           46.26866471672792       -2.26064472271186       -1.62867224002855
C           45.03071486737656       -2.65729038437502       -2.22863609359118
C           44.07703320937565       -1.82535307002689       -1.74387861529449
C           44.73492609636063       -0.91857533514343       -0.85742194696346
N           46.08292242115709       -1.15610743665632       -0.83102097495648
H           43.01211461335338        1.78880401854956        1.88465422332186
H           44.90631728523899        3.43858866108448        2.86377121051258
H           48.84140329578158        3.52542356775399        3.96780685053291
H           48.84391499740740        5.68926801144828        5.18905930172673
H           45.91250247096743        8.67502713321948        6.08886003103879
H           46.06950348741111        7.29952787054580        2.35045620770468
H           46.07226590302661        5.14127558112133        1.11968475735646
H           50.02441289176478        4.15148247781988        1.67116509601786
H           51.92415306510524        2.48430756484124        0.73276943523083
H           51.91521313697844       -2.56784857293186       -0.70920392878517
H           50.01672679592852       -4.21589001272915       -1.68385874815660
H           48.86379573408971       -3.56043863787220       -3.99839474780780
H           48.86919102589937       -5.71487257455332       -5.23648997226823
H           45.94598621129629       -8.67092628143575       -6.20526245474108
H           46.06253297309753       -7.33605110001080       -2.43609738899293
H           46.06141795291683       -5.18684069074811       -1.18917836644286
H           44.91655015837824       -3.46732409132584       -2.93037284206480
H           43.01945340948848       -1.81895406400271       -1.95321424721270

          :  Hamiltonian                  GFN1-xTB          :
         :: total energy            -398.459899418680 Eh    ::
         :: gradient norm              0.000552365292 Eh/a0 ::
         :: HOMO-LUMO gap              1.279376526002 eV    ::
         :: SCC energy              -403.577733608596 Eh    ::
         :: repulsion energy           5.303383641239 Eh    ::

    * Orbital Energies and Occupations

         #    Occupation            Energy/Eh            Energy/eV
      -------------------------------------------------------------
         1        2.0000           -1.0390679             -28.2745
       ...           ...                  ...                  ...
       333        2.0000           -0.4175135             -11.3611
       334        2.0000           -0.4174914             -11.3605
       335        2.0000           -0.4172639             -11.3543
       336        2.0000           -0.4170981             -11.3498
       337        2.0000           -0.4169772             -11.3465
       338        2.0000           -0.4165375             -11.3346
       339        2.0000           -0.4160224             -11.3205
       340        2.0000           -0.4159817             -11.3194
       341        2.0000           -0.4158587             -11.3161
       342        2.0000           -0.4150087             -11.2930
       343        2.0000           -0.4148759             -11.2893
       344        2.0000           -0.4104767             -11.1696
       345        2.0000           -0.4062669             -11.0551 (HOMO)
       346                         -0.3592507              -9.7757 (LUMO)
       347                         -0.3531572              -9.6099
       348                         -0.3518371              -9.5740
       349                         -0.3507001              -9.5430
       350                         -0.3503067              -9.5323
       351                         -0.3479548              -9.4683
       352                         -0.3472322              -9.4487
       353                         -0.3471150              -9.4455
       354                         -0.3464494              -9.4274
       355                         -0.3251960              -8.8490
       356                         -0.3208716              -8.7314
       ...                                ...                  ...
       713                          1.3260196              36.0828
      -------------------------------------------------------------
                  HL-Gap            0.0470162 Eh            1.2794 eV

Wiberg/Mayer (AO) data.
largest (>0.10) Wiberg bond orders for each atom

     #   Z sym  total        # sym  WBO       # sym  WBO       # sym  WBO
 ---------------------------------------------------------------------------
     1  28 Ni   3.027 --    45 N    0.666     7 N    0.666    22 N    0.662
                            29 N    0.662
     2   6 C    3.938 --    44 C    1.365     3 C    1.364    46 H    0.970
     3   6 C    3.921 --     2 C    1.364     7 N    1.212     4 C    1.174
     4   6 C    3.960 --     5 C    1.651     3 C    1.174    47 H    0.975
     5   6 C    3.963 --     4 C    1.651     6 C    1.174    48 H    0.973
     6   6 C    3.922 --     8 C    1.324     7 N    1.220     5 C    1.174
     7   7 N    3.403 --     6 C    1.220     3 C    1.212     1 Ni   0.666
     8   6 C    3.939 --     6 C    1.324    19 C    1.322     9 C    1.031
     9   6 C    3.986 --    10 C    1.390    18 C    1.390     8 C    1.031
    10   6 C    3.987 --    11 C    1.450     9 C    1.390    49 H    0.971
                            17 C    0.106
    11   6 C    3.989 --    10 C    1.450    12 C    1.408    50 H    0.967
                            18 C    0.106
    12   6 C    3.930 --    11 C    1.408    17 C    1.407    13 S    0.754
    13  16 S    5.265 --    16 O    1.720    14 O    1.719    15 O    1.013
                            12 C    0.754
    14   8 O    2.078 --    13 S    1.719    16 O    0.139
    15   8 O    2.088 --    13 S    1.013    51 H    0.827
    16   8 O    2.079 --    13 S    1.720    14 O    0.139
    17   6 C    3.989 --    18 C    1.450    12 C    1.407    52 H    0.967
                            10 C    0.106
    18   6 C    3.987 --    17 C    1.450     9 C    1.390    53 H    0.971
                            11 C    0.106
    19   6 C    3.916 --     8 C    1.322    22 N    1.212    20 C    1.183
    20   6 C    3.961 --    21 C    1.637    19 C    1.183    54 H    0.973
    21   6 C    3.962 --    20 C    1.637    23 C    1.189    55 H    0.972
    22   7 N    3.406 --    23 C    1.230    19 C    1.212     1 Ni   0.662
    23   6 C    3.911 --    24 C    1.276    22 N    1.230    21 C    1.189
    24   6 C    3.945 --    23 C    1.276    25 C    1.275   129 C    1.156
    25   6 C    3.911 --    24 C    1.275    29 N    1.231    26 C    1.190
    26   6 C    3.962 --    27 C    1.637    25 C    1.190    56 H    0.972
    27   6 C    3.960 --    26 C    1.637    28 C    1.183    57 H    0.973
    28   6 C    3.916 --    30 C    1.323    29 N    1.211    27 C    1.183
    29   7 N    3.406 --    25 C    1.231    28 C    1.211     1 Ni   0.662
    30   6 C    3.939 --    41 C    1.324    28 C    1.323    31 C    1.030
    31   6 C    3.986 --    32 C    1.392    40 C    1.389    30 C    1.030
    32   6 C    3.987 --    33 C    1.449    31 C    1.392    58 H    0.971
                            39 C    0.106
    33   6 C    3.989 --    32 C    1.449    34 C    1.408    59 H    0.966
                            40 C    0.106
    34   6 C    3.931 --    33 C    1.408    39 C    1.406    35 S    0.754
    35  16 S    5.267 --    38 O    1.725    36 O    1.715    37 O    1.014
                            34 C    0.754
    36   8 O    2.074 --    35 S    1.715    38 O    0.139
    37   8 O    2.088 --    35 S    1.014    60 H    0.827
    38   8 O    2.084 --    35 S    1.725    36 O    0.139
    39   6 C    3.989 --    40 C    1.451    34 C    1.406    61 H    0.967
                            32 C    0.106
    40   6 C    3.987 --    39 C    1.451    31 C    1.389    62 H    0.971
                            33 C    0.106
    41   6 C    3.921 --    30 C    1.324    45 N    1.221    42 C    1.174
    42   6 C    3.963 --    43 C    1.652    41 C    1.174    63 H    0.973
    43   6 C    3.960 --    42 C    1.652    44 C    1.173    64 H    0.974
    44   6 C    3.921 --     2 C    1.365    45 N    1.211    43 C    1.173
    45   7 N    3.403 --    41 C    1.221    44 C    1.211     1 Ni   0.666
    46   1 H    0.999 --     2 C    0.970
    47   1 H    0.997 --     4 C    0.975
    48   1 H    1.003 --     5 C    0.973
    49   1 H    1.003 --    10 C    0.971
    50   1 H    0.999 --    11 C    0.967
    51   1 H    0.854 --    15 O    0.827
    52   1 H    0.999 --    17 C    0.967
    53   1 H    1.003 --    18 C    0.971
    54   1 H    1.003 --    20 C    0.973
    55   1 H    1.002 --    21 C    0.972
    56   1 H    1.002 --    26 C    0.972
    57   1 H    1.003 --    27 C    0.973
    58   1 H    1.003 --    32 C    0.971
    59   1 H    1.000 --    33 C    0.966
    60   1 H    0.854 --    37 O    0.827
    61   1 H    0.999 --    39 C    0.967
    62   1 H    1.003 --    40 C    0.971
    63   1 H    1.003 --    42 C    0.973
    64   1 H    0.997 --    43 C    0.974
    65  28 Ni   3.014 --   109 N    0.665    71 N    0.665    86 N    0.661
                            93 N    0.660
    66   6 C    3.941 --   108 C    1.366    67 C    1.365   110 H    0.970
    67   6 C    3.921 --    66 C    1.365    71 N    1.213    68 C    1.173
    68   6 C    3.961 --    69 C    1.652    67 C    1.173   111 H    0.974
    69   6 C    3.963 --    68 C    1.652    70 C    1.174   112 H    0.972
    70   6 C    3.922 --    72 C    1.325    71 N    1.222    69 C    1.174
    71   7 N    3.406 --    70 C    1.222    67 C    1.213    65 Ni   0.665
    72   6 C    3.941 --    70 C    1.325    83 C    1.324    73 C    1.028
    73   6 C    3.986 --    74 C    1.391    82 C    1.391    72 C    1.028
    74   6 C    3.987 --    75 C    1.449    73 C    1.391   113 H    0.971
                            81 C    0.106
    75   6 C    3.989 --    74 C    1.449    76 C    1.408   114 H    0.967
                            82 C    0.106
    76   6 C    3.931 --    75 C    1.408    81 C    1.407    77 S    0.754
    77  16 S    5.265 --    78 O    1.720    80 O    1.719    79 O    1.013
                            76 C    0.754
    78   8 O    2.079 --    77 S    1.720    80 O    0.139
    79   8 O    2.087 --    77 S    1.013   115 H    0.827
    80   8 O    2.078 --    77 S    1.719    78 O    0.139
    81   6 C    3.989 --    82 C    1.450    76 C    1.407   116 H    0.967
                            74 C    0.106
    82   6 C    3.987 --    81 C    1.450    73 C    1.391   117 H    0.971
                            75 C    0.106
    83   6 C    3.917 --    72 C    1.324    86 N    1.214    84 C    1.180
    84   6 C    3.962 --    85 C    1.642    83 C    1.180   118 H    0.973
    85   6 C    3.962 --    84 C    1.642    87 C    1.186   119 H    0.973
    86   7 N    3.407 --    87 C    1.228    83 C    1.214    65 Ni   0.661
    87   6 C    3.916 --    88 C    1.285    86 N    1.228    85 C    1.186
    88   6 C    3.945 --    87 C    1.285    89 C    1.284   132 C    1.136
    89   6 C    3.916 --    88 C    1.284    93 N    1.229    90 C    1.186
    90   6 C    3.962 --    91 C    1.641    89 C    1.186   120 H    0.973
    91   6 C    3.962 --    90 C    1.641    92 C    1.180   121 H    0.973
    92   6 C    3.917 --    94 C    1.325    93 N    1.213    91 C    1.180
    93   7 N    3.407 --    89 C    1.229    92 C    1.213    65 Ni   0.660
    94   6 C    3.940 --   105 C    1.325    92 C    1.325    95 C    1.027
    95   6 C    3.986 --    96 C    1.393   104 C    1.391    94 C    1.027
    96   6 C    3.987 --    97 C    1.449    95 C    1.393   122 H    0.971
                           103 C    0.106
    97   6 C    3.989 --    96 C    1.449    98 C    1.408   123 H    0.967
                           104 C    0.106
    98   6 C    3.931 --    97 C    1.408   103 C    1.407    99 S    0.754
    99  16 S    5.266 --   102 O    1.725   100 O    1.716   101 O    1.013
                            98 C    0.754
   100   8 O    2.075 --    99 S    1.716   102 O    0.139
   101   8 O    2.088 --    99 S    1.013   124 H    0.827
   102   8 O    2.083 --    99 S    1.725   100 O    0.139
   103   6 C    3.989 --   104 C    1.450    98 C    1.407   125 H    0.967
                            96 C    0.106
   104   6 C    3.987 --   103 C    1.450    95 C    1.391   126 H    0.971
                            97 C    0.106
   105   6 C    3.922 --    94 C    1.325   109 N    1.222   106 C    1.174
   106   6 C    3.963 --   107 C    1.653   105 C    1.174   127 H    0.973
   107   6 C    3.961 --   106 C    1.653   108 C    1.173   128 H    0.974
   108   6 C    3.921 --    66 C    1.366   109 N    1.212   107 C    1.173
   109   7 N    3.406 --   105 C    1.222   108 C    1.212    65 Ni   0.665
   110   1 H    1.000 --    66 C    0.970
   111   1 H    0.997 --    68 C    0.974
   112   1 H    1.003 --    69 C    0.972
   113   1 H    1.003 --    74 C    0.971
   114   1 H    0.999 --    75 C    0.967
   115   1 H    0.854 --    79 O    0.827
   116   1 H    0.999 --    81 C    0.967
   117   1 H    1.003 --    82 C    0.971
   118   1 H    1.003 --    84 C    0.973
   119   1 H    1.001 --    85 C    0.973
   120   1 H    1.001 --    90 C    0.973
   121   1 H    1.003 --    91 C    0.973
   122   1 H    1.002 --    96 C    0.971
   123   1 H    0.999 --    97 C    0.967
   124   1 H    0.854 --   101 O    0.827
   125   1 H    0.999 --   103 C    0.967
   126   1 H    1.003 --   104 C    0.971
   127   1 H    1.003 --   106 C    0.973
   128   1 H    0.997 --   107 C    0.974
   129   6 C    3.933 --   130 C    2.596    24 C    1.156
   130   6 C    3.935 --   129 C    2.596   134 C    1.157
   131   6 C    3.932 --   132 C    2.610   156 C    1.139
   132   6 C    3.929 --   131 C    2.610    88 C    1.136
   133  28 Ni   3.022 --   154 N    0.663   139 N    0.663   161 N    0.663
                           177 N    0.662
   134   6 C    3.940 --   176 C    1.275   135 C    1.275   130 C    1.157
   135   6 C    3.911 --   134 C    1.275   139 N    1.231   136 C    1.189
   136   6 C    3.961 --   137 C    1.637   135 C    1.189   178 H    0.972
   137   6 C    3.961 --   136 C    1.637   138 C    1.183   179 H    0.973
   138   6 C    3.915 --   140 C    1.322   139 N    1.209   137 C    1.183
   139   7 N    3.403 --   135 C    1.231   138 C    1.209   133 Ni   0.663
   140   6 C    3.936 --   151 C    1.324   138 C    1.322   141 C    1.031
   141   6 C    3.986 --   142 C    1.391   150 C    1.389   140 C    1.031
   142   6 C    3.986 --   143 C    1.449   141 C    1.391   180 H    0.971
                           149 C    0.106
   143   6 C    3.989 --   142 C    1.449   144 C    1.408   181 H    0.966
                           150 C    0.106
   144   6 C    3.931 --   143 C    1.408   149 C    1.407   145 S    0.754
   145  16 S    5.268 --   148 O    1.725   146 O    1.716   147 O    1.015
                           144 C    0.754
   146   8 O    2.075 --   145 S    1.716   148 O    0.139
   147   8 O    2.088 --   145 S    1.015   182 H    0.827
   148   8 O    2.084 --   145 S    1.725   146 O    0.139
   149   6 C    3.989 --   150 C    1.451   144 C    1.407   183 H    0.967
                           142 C    0.106
   150   6 C    3.986 --   149 C    1.451   141 C    1.389   184 H    0.971
                           143 C    0.106
   151   6 C    3.916 --   140 C    1.324   154 N    1.210   152 C    1.181
   152   6 C    3.963 --   153 C    1.640   151 C    1.181   185 H    0.973
   153   6 C    3.961 --   152 C    1.640   155 C    1.187   186 H    0.973
   154   7 N    3.402 --   155 C    1.228   151 C    1.210   133 Ni   0.663
   155   6 C    3.915 --   156 C    1.283   154 N    1.228   153 C    1.187
   156   6 C    3.937 --   155 C    1.283   157 C    1.283   131 C    1.139
   157   6 C    3.915 --   156 C    1.283   161 N    1.228   158 C    1.187
   158   6 C    3.961 --   159 C    1.640   157 C    1.187   187 H    0.973
   159   6 C    3.963 --   158 C    1.640   160 C    1.181   188 H    0.973
   160   6 C    3.916 --   162 C    1.323   161 N    1.210   159 C    1.181
   161   7 N    3.401 --   157 C    1.228   160 C    1.210   133 Ni   0.663
   162   6 C    3.936 --   160 C    1.323   173 C    1.323   163 C    1.031
   163   6 C    3.986 --   164 C    1.391   172 C    1.390   162 C    1.031
   164   6 C    3.986 --   165 C    1.449   163 C    1.391   189 H    0.971
                           171 C    0.106
   165   6 C    3.989 --   164 C    1.449   166 C    1.408   190 H    0.966
                           172 C    0.106
   166   6 C    3.931 --   165 C    1.408   171 C    1.407   167 S    0.754
   167  16 S    5.267 --   170 O    1.725   168 O    1.716   169 O    1.014
                           166 C    0.754
   168   8 O    2.075 --   167 S    1.716   170 O    0.139
   169   8 O    2.088 --   167 S    1.014   191 H    0.827
   170   8 O    2.084 --   167 S    1.725   168 O    0.139
   171   6 C    3.989 --   172 C    1.451   166 C    1.407   192 H    0.967
                           164 C    0.106
   172   6 C    3.986 --   171 C    1.451   163 C    1.390   193 H    0.971
                           165 C    0.106
   173   6 C    3.916 --   162 C    1.323   177 N    1.209   174 C    1.183
   174   6 C    3.961 --   175 C    1.637   173 C    1.183   194 H    0.973
   175   6 C    3.961 --   174 C    1.637   176 C    1.190   195 H    0.972
   176   6 C    3.912 --   134 C    1.275   177 N    1.231   175 C    1.190
   177   7 N    3.402 --   176 C    1.231   173 C    1.209   133 Ni   0.662
   178   1 H    1.002 --   136 C    0.972
   179   1 H    1.003 --   137 C    0.973
   180   1 H    1.003 --   142 C    0.971
   181   1 H    0.999 --   143 C    0.966
   182   1 H    0.854 --   147 O    0.827
   183   1 H    0.999 --   149 C    0.967
   184   1 H    1.003 --   150 C    0.971
   185   1 H    1.003 --   152 C    0.973
   186   1 H    1.001 --   153 C    0.973
   187   1 H    1.001 --   158 C    0.973
   188   1 H    1.003 --   159 C    0.973
   189   1 H    1.003 --   164 C    0.971
   190   1 H    0.999 --   165 C    0.966
   191   1 H    0.854 --   169 O    0.827
   192   1 H    0.999 --   171 C    0.967
   193   1 H    1.003 --   172 C    0.971
   194   1 H    1.003 --   174 C    0.973
   195   1 H    1.002 --   175 C    0.972
 ---------------------------------------------------------------------------

           -------------------------------------------------
          | TOTAL ENERGY             -398.459899418680 Eh   |
          | GRADIENT NORM               0.000552365292 Eh/α |
          | HOMO-LUMO GAP               1.279376526002 eV   |
           -------------------------------------------------

 * finished run on 2022/07/30 at 10:50:36.576
