   * xtb version 6.5.1 (b24c23e) compiled by 'conda@728c89f4b128' on 2022-07-12
          program call               : xtb Co_BSA_C8_3.xyz --gfn 1 --opt -T 48

   ID    Z sym.   atoms
    1   27 Co     1, 65, 145
    2    6 C      2-6, 8-12, 17-21, 23-28, 30-34, 39-44, 66-70, 72-76, 81-85,
                  87-92, 94-98, 103-108, 129-144, 146-150, 152-156, 161-165,
                  167-172, 174-178, 183-188
    3    7 N      7, 22, 29, 45, 71, 86, 93, 109, 151, 166, 173, 189
    4   16 S      13, 35, 77, 99, 157, 179
    5    8 O      14-16, 36-38, 78-80, 100-102, 158-160, 180-182
    6    1 H      46-64, 110-128, 190-207

          :  Hamiltonian                  GFN1-xTB          :
 * total energy  :  -420.5115924 Eh     change        0.3457842E-08 Eh
 * total energy  :  -420.9178106 Eh     change       -0.4062183E+00 Eh
 * total energy  :  -421.0785245 Eh     change       -0.1607139E+00 Eh
 * total energy  :  -421.1491257 Eh     change       -0.7060118E-01 Eh
 * total energy  :  -421.1966944 Eh     change       -0.4756874E-01 Eh
 * total energy  :  -421.2447356 Eh     change       -0.4804115E-01 Eh
 * total energy  :  -421.2996821 Eh     change       -0.5494659E-01 Eh
 * total energy  :  -421.3471160 Eh     change       -0.4743389E-01 Eh
 * total energy  :  -421.3824947 Eh     change       -0.3537869E-01 Eh
 * total energy  :  -421.4086847 Eh     change       -0.2619003E-01 Eh
 * total energy  :  -421.5968601 Eh     change       -0.1821549E-04 Eh
 * total energy  :  -421.5968798 Eh     change       -0.1969672E-04 Eh
 * total energy  :  -421.5968949 Eh     change       -0.1515063E-04 Eh
 * total energy  :  -421.5969039 Eh     change       -0.9006150E-05 Eh
 * total energy  :  -421.5969116 Eh     change       -0.7662105E-05 Eh
 * total energy  :  -421.5969206 Eh     change       -0.9010449E-05 Eh
 * total energy  :  -421.5969270 Eh     change       -0.6373940E-05 Eh
 * total energy  :  -421.5969350 Eh     change       -0.7966305E-05 Eh
 * total energy  :  -421.5969375 Eh     change       -0.2526303E-05 Eh
   *** GEOMETRY OPTIMIZATION CONVERGED AFTER 89 ITERATIONS ***

 final structure:
================
207
 xtb: 6.5.1 (b24c23e)
Co          28.96478258439643        0.09143945524241        0.02556826151491
C           25.59745864337261        0.22481806840147        0.07520251259468
C           26.24734944826401       -0.34812165218389        1.14757974948818
C           25.58224405490684       -0.92938338716575        2.27393976268573
C           26.53925317510288       -1.20506933955913        3.19094667082186
C           27.78676611626653       -0.77388003814567        2.63014384395158
N           27.60445712023102       -0.31790065490139        1.34976273123394
C           28.98119955371147       -0.70202761564666        3.33474850120538
C           28.99386547390609       -1.05880918059448        4.77128526248198
C           28.19104858106331       -0.36444477723785        5.67990777534199
C           28.20293183533081       -0.69609104897715        7.02465839637591
C           29.02013176375221       -1.73213031214804        7.44700290743325
S           29.04434278275720       -2.15400763797847        9.14871556019830
O           28.63994033961365       -1.04259411807486        9.95928118418789
O           27.83126275597365       -3.23400806819649        9.14087497375082
O           30.25880003627013       -2.83761849172365        9.48222940663761
C           29.82922830461809       -2.43712419187999        6.57085070872455
C           29.81410960838828       -2.09307207806062        5.22932725531508
C           30.16379871332396       -0.29670790304198        2.73296573586812
C           31.40459803216559       -0.11873852598951        3.42549763176655
C           32.35093585966187        0.10138815784052        2.48100735291903
N           30.33985821920182       -0.11655860871477        1.38089519506760
C           31.68553099091964        0.06090986904960        1.21740639758476
C           32.35358147086072        0.02640321980439       -0.00930536345271
C           31.66054819446030       -0.00380271058996       -1.22254394584979
C           32.29704750595411       -0.10149137535115       -2.49764762407741
C           31.33627576943662        0.11276873424671       -3.42895252640019
C           30.11788020993630        0.35557555379543       -2.71638788089568
N           30.31785220504110        0.20883956013184       -1.36306062847992
C           28.94311289669243        0.80459377718762       -3.30190216095322
C           28.93420190039168        1.11578838317517       -4.74884799503390
C           28.05404971921303        0.45341695256673       -5.60836799172441
C           28.04177693047736        0.74385295407179       -6.96264883564916
C           28.91540482154814        1.70498383979788       -7.44469694531046
S           28.89429115042595        2.08844445010833       -9.15546684434718
O           29.41065705540261        3.40456421835209       -9.39365745906176
O           30.01172368751162        1.01905790819227       -9.65193194659242
O           27.63386802381421        1.73196831390652       -9.73600998452755
C           29.79559546904383        2.38278179468889       -6.61679195872100
C           29.80290651574093        2.08094933850380       -5.26516653281422
C           27.77782180212637        0.98030119812025       -2.56663434411798
C           26.55274413823837        1.50099026049252       -3.10015078285585
C           25.60910519566441        1.33922719007389       -2.14306940690959
C           26.25975653533380        0.72918962841114       -1.02335139834769
N           27.60153764470212        0.57462169801412       -1.26909117543679
H           24.51524202419729        0.27354737736105        0.09311503452560
H           24.51824235728761       -1.09211586371567        2.33785907554215
H           26.42428236865068       -1.65399410307802        4.16419132713037
H           27.56853890706709        0.45108823168233        5.33083534545991
H           27.59366902524648       -0.15723631517046        7.73939170577768
H           27.61561474689355       -3.50190705947808       10.04244735733988
H           30.46028389218408       -3.23732520399954        6.93657583239108
H           30.43190953843943       -2.63815774470441        4.52524854641768
H           31.52440882217655       -0.15817640894645        4.49590591870327
H           33.40852623839074        0.26502542682385        2.61075140495883
H           33.34624154423159       -0.30129672438045       -2.64409969369005
H           31.43347118163414        0.11172912337575       -4.50237372198597
H           27.38632483966304       -0.30297597548165       -5.21278231350076
H           27.36353306922036        0.23716588850291       -7.63762585507952
H           30.24209690751878        1.18224236053019      -10.57464743837514
H           30.45601834498341        3.13729487095035       -7.02538833916846
H           30.47411678646789        2.60905628049582       -4.59801162693252
H           26.44270713394907        1.93061148658597       -4.08260766874616
H           24.56183511429658        1.59361283257871       -2.17673665092413
Co          65.99143697736719        0.07978622468997       -0.00150439692592
C           69.35965081164298        0.21161588018993       -0.00513186907947
C           68.70662474154746        0.07631599503753       -1.21148939917510
C           69.36867596554033       -0.04967411044105       -2.47428001511163
C           68.41035430848768        0.03744906205557       -3.42642435147855
C           67.16461220978321        0.23482278906976       -2.74390300769508
N           67.34931342837776        0.18315952149981       -1.38567543759402
C           65.97036756330226        0.56479183529854       -3.36990309579512
C           65.95683288087551        0.76797064862957       -4.83607464375135
C           66.76201731895583        1.74869230115747       -5.42108292995620
C           66.75039655184230        1.94167000232226       -6.79256517158150
C           65.93089736809458        1.13949603387916       -7.57012546737948
S           65.90787776121860        1.38156757248370       -9.30643180019041
O           66.30850930691143        2.71624752992495       -9.64382901713231
O           67.12416378878021        0.37914983967606       -9.69948049307011
O           64.69617968870578        0.86763675045856       -9.87339020992468
C           65.11937981074239        0.16106145521354       -7.01930551011485
C           65.13444313606665       -0.01927211302106       -5.64614050255788
C           64.78851760480775        0.71714019436921       -2.65897607536846
C           63.54623327312144        1.13574439744591       -3.23520139323865
C           62.60072261855925        0.98648845937409       -2.27619933818076
N           64.61451648990365        0.38324134255413       -1.33630327887770
C           63.26792322607751        0.48313917247162       -1.11761283270712
C           62.60256919123591       -0.00105107579314        0.01051586644960
C           63.29691813586735       -0.46985430921969        1.12779355824692
C           62.66283551807205       -1.02621329482977        2.28050936070135
C           63.62467744766448       -1.16398131888994        3.22500725598372
C           64.84192079706547       -0.67732484013468        2.64857703107114
N           64.64057341164718       -0.32157890467017        1.33509834614987
C           66.01796241482354       -0.47442167436428        3.35627793999363
C           66.02897949473352       -0.71277764362262        4.81707270220978
C           66.90775210904191       -1.64564452224331        5.37357507561378
C           66.92387140495732       -1.86831709834064        6.74057939372486
C           66.05530267741067       -1.14574422949180        7.54234739513326
S           66.08212546503621       -1.41064320093242        9.27530428401960
O           65.57830764751728       -0.26714045681336        9.97845589863070
O           64.95486381570034       -2.57766049586664        9.35507015207060
O           67.34009325516716       -1.96401025872954        9.68040415561725
C           65.17597394621002       -0.21061133225363        7.02083117519826
C           65.16480466049217        0.00040664227562        5.65210799128459
C           67.18274897364512       -0.04546258911899        2.73414230540947
C           68.41020715766244        0.24001341927073        3.41857893192113
C           69.35283828708393        0.43561015459444        2.46696152788693
C           68.69956474489828        0.27971423270131        1.20281304749015
N           67.35718436596011        0.05099497479209        1.37739266605108
H           70.44199446229462        0.25986588495095       -0.00594816120082
H           70.43197688483525       -0.18121421496443       -2.59581978357140
H           68.52312961854183       -0.02000732310265       -4.49692035938026
H           67.38642745824609        2.37383982502442       -4.79355210806958
H           67.36164710903731        2.70620113397885       -7.25546018245783
H           67.32458280663380        0.44903767748627      -10.64076332177171
H           64.48665097036745       -0.44383503275759       -7.65654980306156
H           64.51492417627506       -0.78592632536487       -5.19563086682851
H           63.42478009337219        1.49592446963923       -4.24376338407827
H           61.54246468238918        1.18317413827331       -2.33561775073387
H           61.61404147807770       -1.26714399493916        2.34515387855635
H           63.52909224949926       -1.55553602692656        4.22462914987672
H           67.57169866785027       -2.20808810346414        4.72756999096255
H           67.60134501309388       -2.58809633344647        7.18248810782108
H           64.71653821962590       -2.74806977798358       10.27445634224771
H           64.51944161115797        0.34539862460099        7.67826876870027
H           64.49424781307481        0.73704546015219        5.22521208697396
H           68.52236868234533        0.28043168764715        4.48988625255499
H           70.40114285621364        0.65628937424674        2.58939690674283
C           33.75550745452187        0.01235149269895       -0.02333656279229
C           34.98047784396810        0.00587784698841       -0.03345667485633
C           36.32159839469487       -0.00368206576910       -0.04400403102526
C           37.55313701228819       -0.01068724028404       -0.04904296003619
C           38.88923516901185       -0.01722845922951       -0.05135329556148
C           40.12096278079065       -0.02012482686629       -0.05095568241815
C           41.46160921124840       -0.02433670690162       -0.04644096510927
C           42.68714242755202       -0.02514676151384       -0.04267999997123
C           52.26652262329114       -0.05966191255270        0.00929901830712
C           53.49149051808697       -0.06251150293316        0.01367565418197
C           54.83323017592789       -0.06369477181956        0.01918361065613
C           56.06427879215016       -0.06217891615400        0.02342731590258
C           57.40158978410736       -0.05768152840077        0.02570773158789
C           58.63238840189220       -0.05066501448085        0.02638671162059
C           59.97482530462437       -0.03784180644590        0.02294561604849
C           61.19903798254013       -0.02319566363881        0.01825633078574
Co          47.47659035797128       -0.02032066549531       -0.05628230819495
C           44.08759097065398       -0.02853847713843       -0.03767025794881
C           44.77034661825329        0.84232974440099        0.81770036967545
C           44.12398610201363        1.73073330074443        1.73063156679519
C           45.07948915457190        2.57219505396225        2.19603390055978
C           46.30427449910624        2.19929192822383        1.55510178370673
N           46.11380456872234        1.08553357736078        0.77090599773505
C           47.47837357052052        2.93806141159912        1.60695322871045
C           47.47931273624821        4.23518808232255        2.31902350384712
C           48.35235961577860        4.44987141758686        3.38857318877693
C           48.35426816421125        5.66000157718329        4.06237298575041
C           47.47872763953823        6.65158908110600        3.65086373306017
S           47.48423652793890        8.19011128757590        4.49262970391076
O           46.98428721925919        9.23844033879487        3.65198269737586
O           46.34385546880213        7.85823324798820        5.60013784997663
O           48.73254620655727        8.38833109991390        5.16668174109966
C           46.60738457484765        6.47159717820702        2.58884783378002
C           46.60913208968335        5.25544394711361        1.92607080603751
C           48.65280908796097        2.49521390865023        1.01221760648718
C           49.87790427424969        3.23493772736905        0.97831649847377
C           50.83313895258227        2.38683260634929        0.52350890423842
N           48.84371348759149        1.23023117331563        0.50952609208231
C           50.18609051735341        1.13883919707654        0.27159482608121
C           50.86491080117180       -0.05331677877083       -0.00024631534988
C           50.17817440897864       -1.23726113487402       -0.28559657828633
C           50.81904149021709       -2.48829463530724       -0.53972528904152
C           49.86365393473714       -3.32491780995326       -1.01403797267644
C           48.64451753554748       -2.57540182120657       -1.05715557252250
N           48.83645342675170       -1.31911207063518       -0.53248777691026
C           47.47507099892680       -3.00610030199832       -1.66994658813530
C           47.47671790239759       -4.29660080853689       -2.39363905296758
C           48.36519329015204       -4.50934047782976       -3.45091426045846
C           48.36795998312586       -5.71339699761058       -4.13542665317272
C           47.47704033670489       -6.70083752400385       -3.74754310969381
S           47.48323722066298       -8.23156419032169       -4.60317291970215
O           46.95352638824203       -9.28166020349610       -3.78331089637971
O           46.37090357486549       -7.87583161410326       -5.73181103307910
O           48.74316864906248       -8.43833740604194       -5.25268554750066
C           46.58952285636836       -6.52251893691143       -2.69871966276177
C           46.59114066556000       -5.31259263780007       -2.02467414747228
C           46.30459586477268       -2.26048255130775       -1.62604147722093
C           45.08446737249365       -2.61910437510618       -2.28335821639899
C           44.12903448165818       -1.77614923259279       -1.81941686303806
C           44.77128438191404       -0.90055191425071       -0.89182734042815
N           46.11090832243378       -1.15868419199369       -0.82663020132857
H           43.07206155327074        1.70852743554170        1.96522749346565
H           44.97395342813518        3.37758127845360        2.90443841515792
H           49.02133944335682        3.65679244477120        3.70154105458038
H           49.02563755710349        5.83697216936021        4.89319276142632
H           46.07258258579877        8.66644153022916        6.05257833761500
H           45.94579987215943        7.27329173377990        2.28549099528424
H           45.94409870376101        5.09809972532139        1.08496632389022
H           49.98377179965454        4.26754576618982        1.26841173428979
H           51.88485936440782        2.57211673372868        0.37637910154607
H           51.86775300192519       -2.68194689857830       -0.38228310146647
H           49.96582886089888       -4.35516521694122       -1.31359606972821
H           49.04582851117018       -3.71930373876336       -3.74593497315262
H           49.05157941689628       -5.88886387491953       -4.95652720575199
H           46.10765638047952       -8.67485741234873       -6.20470218088080
H           45.91573814339639       -7.32085772725982       -2.41394353080942
H           45.91378011586545       -5.15707924154690       -1.19312404173302
H           44.98161105312577       -3.41479911800619       -3.00306342051062
H           43.08006575790259       -1.74456327498039       -2.06599416062055

          :  Hamiltonian                  GFN1-xTB          :
         :: total energy            -421.596937484124 Eh    ::
         :: gradient norm              0.000789319746 Eh/a0 ::
         :: HOMO-LUMO gap              0.002819362140 eV    ::
         :: SCC energy              -427.531503952716 Eh    ::
         :: repulsion energy           6.122279670307 Eh    ::

    * Orbital Energies and Occupations

         #    Occupation            Energy/Eh            Energy/eV
      -------------------------------------------------------------
         1        2.0000           -1.0386703             -28.2637
       ...           ...                  ...                  ...
       356        2.0000           -0.4141769             -11.2703
       357        2.0000           -0.4132804             -11.2459
       358        1.9998           -0.4110913             -11.1864
       359        1.9998           -0.4110085             -11.1841
       360        1.9998           -0.4108175             -11.1789
       361        1.9997           -0.4106000             -11.1730
       362        1.9997           -0.4104395             -11.1686
       363        1.9996           -0.4103042             -11.1649
       364        1.9995           -0.4101208             -11.1600
       365        1.9838           -0.4067830             -11.0691
       366        1.8109           -0.4043369             -11.0026
       367        1.1065           -0.4022708             -10.9463
       368        1.0752           -0.4022051             -10.9446 (HOMO)
       369        1.0257           -0.4021014             -10.9417 (LUMO)
       370                         -0.3604111              -9.8073
       371                         -0.3515834              -9.5671
       372                         -0.3509523              -9.5499
       373                         -0.3506872              -9.5427
       374                         -0.3483463              -9.4790
       375                         -0.3468661              -9.4387
       376                         -0.3328024              -9.0560
       377                         -0.3235601              -8.8045
       378                         -0.3223171              -8.7707
       379                         -0.3180553              -8.6547
       ...                                ...                  ...
       761                          1.5874752              43.1974
      -------------------------------------------------------------
                  HL-Gap            0.0001036 Eh            0.0028 eV

Wiberg/Mayer (AO) data.
largest (>0.10) Wiberg bond orders for each atom

     #   Z sym  total        # sym  WBO       # sym  WBO       # sym  WBO
 ---------------------------------------------------------------------------
     1  27 Co   3.041 --    45 N    0.640     7 N    0.640    29 N    0.634
                            22 N    0.634
     2   6 C    3.931 --    44 C    1.367     3 C    1.365    46 H    0.969
     3   6 C    3.922 --     2 C    1.365     7 N    1.200     4 C    1.174
     4   6 C    3.960 --     5 C    1.650     3 C    1.174    47 H    0.975
     5   6 C    3.963 --     4 C    1.650     6 C    1.174    48 H    0.973
     6   6 C    3.921 --     8 C    1.320     7 N    1.211     5 C    1.174
     7   7 N    3.347 --     6 C    1.211     3 C    1.200     1 Co   0.640
     8   6 C    3.932 --    19 C    1.328     6 C    1.320     9 C    1.032
     9   6 C    3.986 --    18 C    1.390    10 C    1.390     8 C    1.032
    10   6 C    3.986 --    11 C    1.450     9 C    1.390    49 H    0.971
                            17 C    0.106
    11   6 C    3.989 --    10 C    1.450    12 C    1.407    50 H    0.967
                            18 C    0.106
    12   6 C    3.930 --    17 C    1.407    11 C    1.407    13 S    0.754
    13  16 S    5.265 --    16 O    1.722    14 O    1.717    15 O    1.013
                            12 C    0.754
    14   8 O    2.075 --    13 S    1.717    16 O    0.139
    15   8 O    2.087 --    13 S    1.013    51 H    0.827
    16   8 O    2.081 --    13 S    1.722    14 O    0.139
    17   6 C    3.989 --    18 C    1.450    12 C    1.407    52 H    0.967
                            10 C    0.106
    18   6 C    3.986 --    17 C    1.450     9 C    1.390    53 H    0.971
                            11 C    0.106
    19   6 C    3.917 --     8 C    1.328    22 N    1.195    20 C    1.181
    20   6 C    3.958 --    21 C    1.638    19 C    1.181    54 H    0.973
    21   6 C    3.961 --    20 C    1.638    23 C    1.189    55 H    0.973
    22   7 N    3.349 --    23 C    1.227    19 C    1.195     1 Co   0.634
    23   6 C    3.900 --    24 C    1.260    22 N    1.227    21 C    1.189
    24   6 C    3.937 --    23 C    1.260    25 C    1.258   129 C    1.193
    25   6 C    3.900 --    24 C    1.258    29 N    1.228    26 C    1.190
    26   6 C    3.961 --    27 C    1.637    25 C    1.190    56 H    0.973
    27   6 C    3.957 --    26 C    1.637    28 C    1.181    57 H    0.973
    28   6 C    3.917 --    30 C    1.330    29 N    1.193    27 C    1.181
    29   7 N    3.348 --    25 C    1.228    28 C    1.193     1 Co   0.634
    30   6 C    3.932 --    28 C    1.330    41 C    1.318    31 C    1.032
    31   6 C    3.986 --    32 C    1.390    40 C    1.389    30 C    1.032
    32   6 C    3.986 --    33 C    1.450    31 C    1.390    58 H    0.971
                            39 C    0.106
    33   6 C    3.989 --    32 C    1.450    34 C    1.407    59 H    0.967
                            40 C    0.106
    34   6 C    3.930 --    33 C    1.407    39 C    1.407    35 S    0.754
    35  16 S    5.265 --    38 O    1.723    36 O    1.716    37 O    1.013
                            34 C    0.754
    36   8 O    2.075 --    35 S    1.716    38 O    0.139
    37   8 O    2.087 --    35 S    1.013    60 H    0.828
    38   8 O    2.082 --    35 S    1.723    36 O    0.139
    39   6 C    3.989 --    40 C    1.451    34 C    1.407    61 H    0.967
                            32 C    0.106
    40   6 C    3.986 --    39 C    1.451    31 C    1.389    62 H    0.971
                            33 C    0.106
    41   6 C    3.921 --    30 C    1.318    45 N    1.213    42 C    1.175
    42   6 C    3.963 --    43 C    1.651    41 C    1.175    63 H    0.973
    43   6 C    3.960 --    42 C    1.651    44 C    1.173    64 H    0.975
    44   6 C    3.922 --     2 C    1.367    45 N    1.198    43 C    1.173
    45   7 N    3.347 --    41 C    1.213    44 C    1.198     1 Co   0.640
    46   1 H    0.999 --     2 C    0.969
    47   1 H    0.997 --     4 C    0.975
    48   1 H    1.003 --     5 C    0.973
    49   1 H    1.003 --    10 C    0.971
    50   1 H    0.999 --    11 C    0.967
    51   1 H    0.854 --    15 O    0.827
    52   1 H    0.999 --    17 C    0.967
    53   1 H    1.003 --    18 C    0.971
    54   1 H    1.002 --    20 C    0.973
    55   1 H    1.000 --    21 C    0.973
    56   1 H    1.000 --    26 C    0.973
    57   1 H    1.003 --    27 C    0.973
    58   1 H    1.003 --    32 C    0.971
    59   1 H    0.999 --    33 C    0.967
    60   1 H    0.854 --    37 O    0.828
    61   1 H    0.999 --    39 C    0.967
    62   1 H    1.003 --    40 C    0.971
    63   1 H    1.003 --    42 C    0.973
    64   1 H    0.997 --    43 C    0.975
    65  27 Co   3.052 --    71 N    0.644   109 N    0.643    93 N    0.638
                            86 N    0.638
    66   6 C    3.935 --   108 C    1.367    67 C    1.366   110 H    0.969
    67   6 C    3.922 --    66 C    1.366    71 N    1.198    68 C    1.174
    68   6 C    3.960 --    69 C    1.651    67 C    1.174   111 H    0.975
    69   6 C    3.963 --    68 C    1.651    70 C    1.174   112 H    0.973
    70   6 C    3.921 --    72 C    1.322    71 N    1.209    69 C    1.174
    71   7 N    3.350 --    70 C    1.209    67 C    1.198    65 Co   0.644
    72   6 C    3.937 --    83 C    1.327    70 C    1.322    73 C    1.032
    73   6 C    3.986 --    82 C    1.390    74 C    1.390    72 C    1.032
    74   6 C    3.986 --    75 C    1.451    73 C    1.390   113 H    0.971
                            81 C    0.106
    75   6 C    3.989 --    74 C    1.451    76 C    1.407   114 H    0.967
                            82 C    0.106
    76   6 C    3.930 --    81 C    1.407    75 C    1.407    77 S    0.754
    77  16 S    5.264 --    80 O    1.722    78 O    1.717    79 O    1.013
                            76 C    0.754
    78   8 O    2.076 --    77 S    1.717    80 O    0.139
    79   8 O    2.087 --    77 S    1.013   115 H    0.828
    80   8 O    2.080 --    77 S    1.722    78 O    0.139
    81   6 C    3.989 --    82 C    1.450    76 C    1.407   116 H    0.967
                            74 C    0.106
    82   6 C    3.987 --    81 C    1.450    73 C    1.390   117 H    0.971
                            75 C    0.106
    83   6 C    3.916 --    72 C    1.327    86 N    1.196    84 C    1.181
    84   6 C    3.958 --    85 C    1.638    83 C    1.181   118 H    0.973
    85   6 C    3.961 --    84 C    1.638    87 C    1.189   119 H    0.973
    86   7 N    3.353 --    87 C    1.223    83 C    1.196    65 Co   0.638
    87   6 C    3.901 --    88 C    1.264    86 N    1.223    85 C    1.189
    88   6 C    3.943 --    87 C    1.264    89 C    1.263   144 C    1.186
    89   6 C    3.901 --    88 C    1.263    93 N    1.224    90 C    1.190
    90   6 C    3.961 --    91 C    1.637    89 C    1.190   120 H    0.973
    91   6 C    3.958 --    90 C    1.637    92 C    1.181   121 H    0.973
    92   6 C    3.916 --    94 C    1.328    93 N    1.194    91 C    1.181
    93   7 N    3.352 --    89 C    1.224    92 C    1.194    65 Co   0.638
    94   6 C    3.936 --    92 C    1.328   105 C    1.321    95 C    1.032
    95   6 C    3.986 --    96 C    1.390   104 C    1.389    94 C    1.032
    96   6 C    3.986 --    97 C    1.450    95 C    1.390   122 H    0.971
                           103 C    0.106
    97   6 C    3.989 --    96 C    1.450    98 C    1.407   123 H    0.967
                           104 C    0.106
    98   6 C    3.930 --    97 C    1.407   103 C    1.407    99 S    0.754
    99  16 S    5.265 --   102 O    1.724   100 O    1.716   101 O    1.013
                            98 C    0.754
   100   8 O    2.075 --    99 S    1.716   102 O    0.139
   101   8 O    2.087 --    99 S    1.013   124 H    0.828
   102   8 O    2.082 --    99 S    1.724   100 O    0.139
   103   6 C    3.989 --   104 C    1.451    98 C    1.407   125 H    0.967
                            96 C    0.106
   104   6 C    3.986 --   103 C    1.451    95 C    1.389   126 H    0.971
                            97 C    0.106
   105   6 C    3.921 --    94 C    1.321   109 N    1.210   106 C    1.174
   106   6 C    3.963 --   107 C    1.651   105 C    1.174   127 H    0.973
   107   6 C    3.960 --   106 C    1.651   108 C    1.173   128 H    0.975
   108   6 C    3.922 --    66 C    1.367   109 N    1.197   107 C    1.173
   109   7 N    3.351 --   105 C    1.210   108 C    1.197    65 Co   0.643
   110   1 H    0.999 --    66 C    0.969
   111   1 H    0.997 --    68 C    0.975
   112   1 H    1.003 --    69 C    0.973
   113   1 H    1.003 --    74 C    0.971
   114   1 H    0.999 --    75 C    0.967
   115   1 H    0.854 --    79 O    0.828
   116   1 H    0.999 --    81 C    0.967
   117   1 H    1.003 --    82 C    0.971
   118   1 H    1.002 --    84 C    0.973
   119   1 H    1.000 --    85 C    0.973
   120   1 H    1.000 --    90 C    0.973
   121   1 H    1.003 --    91 C    0.973
   122   1 H    1.003 --    96 C    0.971
   123   1 H    0.999 --    97 C    0.967
   124   1 H    0.854 --   101 O    0.828
   125   1 H    0.999 --   103 C    0.967
   126   1 H    1.003 --   104 C    0.971
   127   1 H    1.003 --   106 C    0.973
   128   1 H    0.997 --   107 C    0.975
   129   6 C    3.868 --   130 C    2.430    24 C    1.193   132 C    0.184
   130   6 C    3.932 --   129 C    2.430   131 C    1.351
   131   6 C    3.884 --   132 C    2.322   130 C    1.351   134 C    0.180
   132   6 C    3.920 --   131 C    2.322   133 C    1.378   129 C    0.184
   133   6 C    3.917 --   134 C    2.320   132 C    1.378   136 C    0.184
   134   6 C    3.886 --   133 C    2.320   135 C    1.354   131 C    0.180
   135   6 C    3.926 --   136 C    2.423   134 C    1.354
   136   6 C    3.870 --   135 C    2.423   146 C    1.200   133 C    0.184
   137   6 C    3.872 --   138 C    2.431   168 C    1.195   140 C    0.184
   138   6 C    3.927 --   137 C    2.431   139 C    1.348
   139   6 C    3.888 --   140 C    2.329   138 C    1.348   142 C    0.180
   140   6 C    3.918 --   139 C    2.329   141 C    1.371   137 C    0.184
   141   6 C    3.922 --   142 C    2.332   140 C    1.371   144 C    0.185
   142   6 C    3.886 --   141 C    2.332   143 C    1.344   139 C    0.180
   143   6 C    3.936 --   144 C    2.440   142 C    1.344
   144   6 C    3.871 --   143 C    2.440    88 C    1.186   141 C    0.185
   145  27 Co   3.056 --   173 N    0.634   151 N    0.634   166 N    0.630
                           189 N    0.629
   146   6 C    3.925 --   147 C    1.255   188 C    1.252   136 C    1.200
   147   6 C    3.902 --   146 C    1.255   151 N    1.231   148 C    1.191
   148   6 C    3.959 --   149 C    1.635   147 C    1.191   190 H    0.973
   149   6 C    3.959 --   148 C    1.635   150 C    1.183   191 H    0.973
   150   6 C    3.915 --   152 C    1.325   151 N    1.195   149 C    1.183
   151   7 N    3.340 --   147 C    1.231   150 C    1.195   145 Co   0.634
   152   6 C    3.927 --   150 C    1.325   163 C    1.320   153 C    1.033
   153   6 C    3.986 --   154 C    1.390   162 C    1.389   152 C    1.033
   154   6 C    3.984 --   155 C    1.450   153 C    1.390   192 H    0.971
                           161 C    0.106
   155   6 C    3.989 --   154 C    1.450   156 C    1.408   193 H    0.966
                           162 C    0.106
   156   6 C    3.931 --   155 C    1.408   161 C    1.407   157 S    0.754
   157  16 S    5.267 --   160 O    1.725   158 O    1.716   159 O    1.014
                           156 C    0.754
   158   8 O    2.075 --   157 S    1.716   160 O    0.139
   159   8 O    2.088 --   157 S    1.014   194 H    0.827
   160   8 O    2.084 --   157 S    1.725   158 O    0.139
   161   6 C    3.989 --   162 C    1.450   156 C    1.407   195 H    0.967
                           154 C    0.106
   162   6 C    3.985 --   161 C    1.450   153 C    1.389   196 H    0.971
                           155 C    0.106
   163   6 C    3.915 --   152 C    1.320   166 N    1.197   164 C    1.184
   164   6 C    3.959 --   165 C    1.633   163 C    1.184   197 H    0.973
   165   6 C    3.959 --   164 C    1.633   167 C    1.192   198 H    0.973
   166   7 N    3.342 --   167 C    1.229   163 C    1.197   145 Co   0.630
   167   6 C    3.902 --   168 C    1.255   166 N    1.229   165 C    1.192
   168   6 C    3.926 --   169 C    1.257   167 C    1.255   137 C    1.195
   169   6 C    3.902 --   168 C    1.257   173 N    1.229   170 C    1.191
   170   6 C    3.959 --   171 C    1.635   169 C    1.191   199 H    0.973
   171   6 C    3.960 --   170 C    1.635   172 C    1.183   200 H    0.973
   172   6 C    3.915 --   174 C    1.322   173 N    1.197   171 C    1.183
   173   7 N    3.341 --   169 C    1.229   172 C    1.197   145 Co   0.634
   174   6 C    3.927 --   185 C    1.323   172 C    1.322   175 C    1.034
   175   6 C    3.986 --   176 C    1.389   184 C    1.389   174 C    1.034
   176   6 C    3.984 --   177 C    1.450   175 C    1.389   201 H    0.971
                           183 C    0.106
   177   6 C    3.989 --   176 C    1.450   178 C    1.408   202 H    0.966
                           184 C    0.106
   178   6 C    3.931 --   177 C    1.408   183 C    1.407   179 S    0.754
   179  16 S    5.267 --   182 O    1.725   180 O    1.716   181 O    1.014
                           178 C    0.754
   180   8 O    2.075 --   179 S    1.716   182 O    0.139
   181   8 O    2.088 --   179 S    1.014   203 H    0.827
   182   8 O    2.083 --   179 S    1.725   180 O    0.139
   183   6 C    3.989 --   184 C    1.450   178 C    1.407   204 H    0.967
                           176 C    0.106
   184   6 C    3.984 --   183 C    1.450   175 C    1.389   205 H    0.971
                           177 C    0.106
   185   6 C    3.915 --   174 C    1.323   189 N    1.196   186 C    1.184
   186   6 C    3.959 --   187 C    1.633   185 C    1.184   206 H    0.973
   187   6 C    3.959 --   186 C    1.633   188 C    1.192   207 H    0.973
   188   6 C    3.902 --   146 C    1.252   189 N    1.232   187 C    1.192
   189   7 N    3.341 --   188 C    1.232   185 C    1.196   145 Co   0.629
   190   1 H    1.000 --   148 C    0.973
   191   1 H    1.003 --   149 C    0.973
   192   1 H    1.003 --   154 C    0.971
   193   1 H    0.999 --   155 C    0.966
   194   1 H    0.854 --   159 O    0.827
   195   1 H    0.999 --   161 C    0.967
   196   1 H    1.003 --   162 C    0.971
   197   1 H    1.002 --   164 C    0.973
   198   1 H    1.000 --   165 C    0.973
   199   1 H    1.000 --   170 C    0.973
   200   1 H    1.002 --   171 C    0.973
   201   1 H    1.003 --   176 C    0.971
   202   1 H    0.999 --   177 C    0.966
   203   1 H    0.854 --   181 O    0.827
   204   1 H    0.999 --   183 C    0.967
   205   1 H    1.003 --   184 C    0.971
   206   1 H    1.003 --   186 C    0.973
   207   1 H    1.000 --   187 C    0.973
 ---------------------------------------------------------------------------

           -------------------------------------------------
          | TOTAL ENERGY             -421.596937484124 Eh   |
          | GRADIENT NORM               0.000789319746 Eh/α |
          | HOMO-LUMO GAP               0.002819362140 eV   |
           -------------------------------------------------

 * finished run on 2022/07/30 at 07:49:11.215
