   * xtb version 6.5.1 (b24c23e) compiled by 'conda@728c89f4b128' on 2022-07-12
          program call               : xtb Ni_Ph3OH_C2_2.xyz --gfn 1 --opt -T 48

   ID    Z sym.   atoms
    1   28 Ni     1, 63
    2    6 C      2-6, 8-11, 13, 15, 17-20, 22-27, 29-32, 34, 36, 38-42,
                  64-68, 70-73, 75, 77, 79-82, 84-89, 91-94, 96, 98, 100-104,
                  125, 126
    3    7 N      7, 21, 28, 43, 69, 83, 90, 105
    4    8 O      12, 14, 16, 33, 35, 37, 74, 76, 78, 95, 97, 99
    5    1 H      44-62, 106-124
########################################################################
[WARNING] Please study the warnings concerning your input carefully
-1- prog_main_parseArguments: Unknown option '-T' provided
########################################################################

          :  Hamiltonian                  GFN1-xTB          :
 * total energy  :  -249.9553903 Eh     change       -0.3774971E-09 Eh
 * total energy  :  -250.1225764 Eh     change       -0.1671861E+00 Eh
 * total energy  :  -250.2015780 Eh     change       -0.7900161E-01 Eh
 * total energy  :  -250.2302397 Eh     change       -0.2866165E-01 Eh
 * total energy  :  -250.2433131 Eh     change       -0.1307338E-01 Eh
 * total energy  :  -250.2496449 Eh     change       -0.6331791E-02 Eh
 * total energy  :  -250.2526797 Eh     change       -0.3034883E-02 Eh
 * total energy  :  -250.2540512 Eh     change       -0.1371459E-02 Eh
 * total energy  :  -250.2547935 Eh     change       -0.7423028E-03 Eh
 * total energy  :  -250.2553147 Eh     change       -0.5212332E-03 Eh
 * total energy  :  -250.2566402 Eh     change       -0.8924193E-04 Eh
 * total energy  :  -250.2567030 Eh     change       -0.6284514E-04 Eh
 * total energy  :  -250.2567356 Eh     change       -0.3253759E-04 Eh
 * total energy  :  -250.2567512 Eh     change       -0.1558492E-04 Eh
 * total energy  :  -250.2567683 Eh     change       -0.1714552E-04 Eh
 * total energy  :  -250.2567758 Eh     change       -0.7490394E-05 Eh
 * total energy  :  -250.2567831 Eh     change       -0.7272005E-05 Eh
 * total energy  :  -250.2567912 Eh     change       -0.8116034E-05 Eh
 * total energy  :  -250.2567944 Eh     change       -0.3205710E-05 Eh
   *** GEOMETRY OPTIMIZATION CONVERGED AFTER 27 ITERATIONS ***

 final structure:
================
126
 xtb: 6.5.1 (b24c23e)
Ni          17.27564118652982        0.06813483799350        0.02029441539661
C           13.88013279520102        0.10863823807147        0.07764522024211
C           14.54285797615804        1.31226764837505       -0.04822580027083
C           13.87564686888489        2.57385116034894       -0.15615950064725
C           14.83954977453525        3.52384828620482       -0.16279626227776
C           16.09642369169690        2.84168306167271       -0.05973483603363
N           15.90416570969325        1.48312943199022       -0.01380066922709
C           17.31567264236047        3.48626128134368        0.09849353024845
C           17.33535369023429        4.97150476811310        0.12526693694095
C           17.01417601553944        5.69243253043067       -1.02402514108563
C           17.03982240511583        7.08232464460766       -1.00288289519859
O           16.73794081901220        7.79482872199990       -2.11562826751913
C           17.37974714551567        7.75334170930586        0.17275614316840
O           17.39424896007319        9.12382407638263        0.16403893628479
C           17.69491446601209        7.03177412323387        1.32119741639572
O           18.01394771015395        7.76025952358541        2.43668650062015
C           17.67730279971790        5.64229852980871        1.30155767861464
C           18.51591485282086        2.80271324647613        0.24029429263430
C           19.78096894724091        3.44727519622221        0.41959179100756
C           20.72190577401925        2.47335745729940        0.40234398178092
N           18.68319033021071        1.44027032321864        0.13008758425792
C           20.03590337938583        1.23863768036109        0.19480452910353
C           20.69393600026147        0.02199315993367       -0.00931669983884
C           20.00332606864273       -1.17672071562258       -0.20779390712053
C           20.64890328071638       -2.42796701802286       -0.45075564237069
C           19.67927958307248       -3.37357298761242       -0.46492902941092
C           18.44048413792141       -2.69476631622508       -0.23810380694264
N           18.64747845718081       -1.33933779040309       -0.11700381480150
C           17.22720404355081       -3.34666566831063       -0.08579636757958
C           17.20946050937279       -4.83624913337600       -0.12944714400279
C           17.36309177176940       -5.56612768448293        1.04664181048489
C           17.34611221013913       -6.95606408430842        1.00659672181709
O           17.49462021484670       -7.68147647619490        2.14193900919848
C           17.17540458116884       -7.61359983894725       -0.21243185018226
O           17.16346091431143       -8.98465410718427       -0.22050212549580
C           17.02197878801663       -6.88031538790245       -1.38585913322238
O           16.85899167064474       -7.59690858490220       -2.54236271068262
C           17.03808009541997       -5.49072031049736       -1.34951423246831
C           16.02972336400717       -2.67597227293810        0.10412926590046
C           14.76512046491306       -3.33147717689510        0.26245760323998
C           13.82379957693814       -2.35969168063215        0.30341805507319
C           14.51498459654756       -1.11237389696013        0.17168546937192
N           15.86899529661369       -1.31316208454618        0.07862321399866
H           12.79675122374090        0.12367075134950        0.10127188096886
H           12.80546385480562        2.69621953820155       -0.20782123311617
H           14.72314223627859        4.59412537292448       -0.21538575220261
H           16.76046364988962        5.18041145907618       -1.94318464335463
H           16.81371001428668        8.73962810344779       -1.90254335663351
H           17.64910955652110        9.42535693028146        1.05054311334047
H           18.22241710277514        7.17888569591120        3.17978184584467
H           17.91266124215507        5.08588401233504        2.20114919234544
H           19.92352211050405        4.50957300243962        0.53193575811513
H           21.78915867606803        2.57103937166631        0.51111209233379
H           21.70979901874673       -2.55323778404571       -0.58997702692266
H           19.77795057744830       -4.43724377706330       -0.61002433990912
H           17.49651976787976       -5.06224789229859        1.99505422269313
H           17.45377123022246       -8.62366954544676        1.90864878246378
H           17.03768891987555       -9.27643586720848       -1.13741766077902
H           16.76411416326997       -7.00717884087167       -3.30178939174483
H           16.91789490861287       -4.92240821316410       -2.26420861883094
H           14.63430384422756       -4.39997371631876        0.32405450178184
H           12.75456789002024       -2.45731760070371        0.40502592934598
Ni          28.14988512366460       -0.06994948198623        0.01197335433065
C           31.54539151701926       -0.11674621131665        0.06485488208406
C           30.88267997710866       -1.29836201558506       -0.19661489393985
C           31.54989090167934       -2.53957996624247       -0.44685085974949
C           30.58598773641663       -3.48270272490649       -0.56112726136794
C           29.32911558112058       -2.81661579855263       -0.38140831097390
N           29.52137022218603       -1.47201727844565       -0.18182755074910
C           28.10985995195861       -3.47496082833316       -0.29727819153203
C           28.09016788879082       -4.95366721379456       -0.43903411819672
C           28.41134900222366       -5.53967910901307       -1.66263485258167
C           28.38570276610852       -6.92301071583344       -1.79917104083789
O           28.68758950493438       -7.50479539920784       -2.98550483111080
C           28.04577393764248       -7.72295979951215       -0.70716848772262
O           28.03127324140384       -9.08362203805889       -0.87117156338003
C           27.73060265274459       -7.13621561674996        0.51565840521162
O           27.41156705241502       -7.98644319411517        1.54138652033218
C           27.74821474425342       -5.75346876293476        0.65364036113591
C           26.90962562934408       -2.81187755221644       -0.07890723753020
C           25.64456876667904       -3.47260441499238        0.02617021596328
C           24.70363651362227       -2.50300515676829        0.11942365292533
N           26.74235699485595       -1.44571881005749       -0.03400653819423
C           25.38964326609756       -1.25272042398031        0.05317337123095
C           24.73159030369809       -0.02079198964389       -0.01172865695489
C           25.42217883361813        1.19270641182469       -0.07305079562651
C           24.77660092594395        2.46342699472164       -0.17261925493399
C           25.74622541724177        3.40454656149495       -0.07952247960476
C           26.98502082558832        2.70440431682532        0.06889411612311
N           26.77802838992869        1.34398710491299        0.03554619845840
C           28.19831164562652        3.33482457983988        0.29409154796574
C           28.21606793661879        4.81975607251333        0.41955457242340
C           28.06243342458927        5.41162579334664        1.67079243431257
C           28.07941097618411        6.79714316098127        1.78854927543383
O           27.93089955019089        7.38919305977734        2.99879766857467
C           28.25011826040312        7.58861331696348        0.65190530975058
O           28.26205828993797        8.95174685321630        0.79928849046219
C           28.40354670954303        6.99305833036931       -0.59707469164646
O           28.56653089967132        7.83612024499601       -1.66490163242048
C           28.38744899067281        5.60829824068557       -0.71846885379337
C           29.39578391228386        2.64691059337552        0.40677740868613
C           30.66038881740887        3.28024814965929        0.63837026878983
C           31.60170923304078        2.31008237874095        0.56892887409652
C           30.91052376279113        1.08573098159897        0.29668250998331
N           29.55651357389925        1.29577587017573        0.22693814717224
H           32.62877343131001       -0.13434461642527        0.08661741799682
H           32.62007310591927       -2.65530278174345       -0.51205449818210
H           30.70239579919867       -4.54011941850667       -0.73470079671711
H           28.66506536817341       -4.92677263000868       -2.51783283342848
H           28.61182177046860       -8.46765894278193       -2.88088541328972
H           27.77641119462842       -9.48369631304896       -0.02455981983695
H           27.20309372118624       -7.49304334368084        2.34558846549270
H           27.51285681901762       -5.30260761289945        1.61050301343330
H           25.50200958616664       -4.54078903744639        0.01736793324140
H           23.63638052784878       -2.61238119680869        0.21639763490588
H           23.71570753405652        2.60367080428431       -0.29676025665942
H           25.64755592293085        4.47780799149846       -0.10313072033897
H           27.92900285641065        4.80349362171807        2.55597905672468
H           27.97174581294123        8.35175686045304        2.87380507745488
H           28.38782916093853        9.34557527916014       -0.07864663845165
H           28.66140697497574        7.33626985548430       -2.48627854745724
H           28.50763375852326        5.14732558849335       -1.69168459905294
H           30.79120630769476        4.33488114666278        0.82065777486783
H           32.67094244086713        2.39556394912811        0.68093514356600
C           22.10440556473113        0.00586882196607       -0.01595907738491
C           23.32111913737874       -0.00409196080206       -0.01638736462385

          :  Hamiltonian                  GFN1-xTB          :
         :: total energy            -250.256794396028 Eh    ::
         :: gradient norm              0.000673757642 Eh/a0 ::
         :: HOMO-LUMO gap              1.207168198353 eV    ::
         :: SCC energy              -253.456550752265 Eh    ::
         :: repulsion energy           3.313694523498 Eh    ::

    * Orbital Energies and Occupations

         #    Occupation            Energy/Eh            Energy/eV
      -------------------------------------------------------------
         1        2.0000           -0.8124349             -22.1075
       ...           ...                  ...                  ...
       205        2.0000           -0.4110659             -11.1857
       206        2.0000           -0.3985763             -10.8458
       207        2.0000           -0.3984726             -10.8430
       208        2.0000           -0.3982246             -10.8362
       209        2.0000           -0.3980291             -10.8309
       210        2.0000           -0.3980204             -10.8307
       211        2.0000           -0.3972327             -10.8093
       212        2.0000           -0.3972273             -10.8091
       213        2.0000           -0.3961205             -10.7790
       214        2.0000           -0.3961179             -10.7789
       215        2.0000           -0.3961027             -10.7785
       216        2.0000           -0.3961021             -10.7785
       217        2.0000           -0.3842721             -10.4566 (HOMO)
       218                         -0.3399095              -9.2494 (LUMO)
       219                         -0.3288213              -8.9477
       220                         -0.3288102              -8.9474
       221                         -0.3278044              -8.9200
       222                         -0.3277970              -8.9198
       223                         -0.3232173              -8.7952
       224                         -0.2962458              -8.0613
       225                         -0.2869775              -7.8091
       226                         -0.2555651              -6.9543
       227                         -0.2555548              -6.9540
       228                         -0.2548634              -6.9352
       ...                                ...                  ...
       438                          1.3382197              36.4148
      -------------------------------------------------------------
                  HL-Gap            0.0443626 Eh            1.2072 eV

Wiberg/Mayer (AO) data.
largest (>0.10) Wiberg bond orders for each atom

     #   Z sym  total        # sym  WBO       # sym  WBO       # sym  WBO
 ---------------------------------------------------------------------------
     1  28 Ni   3.021 --     7 N    0.666    43 N    0.664    21 N    0.664
                            28 N    0.663
     2   6 C    3.935 --    42 C    1.364     3 C    1.363    44 H    0.970
     3   6 C    3.924 --     2 C    1.363     7 N    1.214     4 C    1.174
     4   6 C    3.960 --     5 C    1.651     3 C    1.174    45 H    0.975
     5   6 C    3.963 --     4 C    1.651     6 C    1.176    46 H    0.973
     6   6 C    3.919 --     8 C    1.328     7 N    1.219     5 C    1.176
     7   7 N    3.403 --     6 C    1.219     3 C    1.214     1 Ni   0.666
     8   6 C    3.940 --    18 C    1.329     6 C    1.328     9 C    1.018
     9   6 C    3.989 --    10 C    1.402    17 C    1.390     8 C    1.018
    10   6 C    3.978 --     9 C    1.402    11 C    1.378    47 H    0.970
    11   6 C    3.918 --    10 C    1.378    13 C    1.325    12 O    1.053
    12   8 O    2.048 --    11 C    1.053    48 H    0.847
    13   6 C    3.906 --    15 C    1.342    11 C    1.325    14 O    1.020
    14   8 O    2.021 --    13 C    1.020    49 H    0.846
    15   6 C    3.905 --    17 C    1.382    13 C    1.342    16 O    1.014
    16   8 O    2.025 --    15 C    1.014    50 H    0.860
    17   6 C    3.974 --     9 C    1.390    15 C    1.382    51 H    0.970
    18   6 C    3.915 --     8 C    1.329    21 N    1.206    19 C    1.185
    19   6 C    3.959 --    20 C    1.635    18 C    1.185    52 H    0.973
    20   6 C    3.962 --    19 C    1.635    22 C    1.192    53 H    0.967
    21   7 N    3.408 --    22 C    1.236    18 C    1.206     1 Ni   0.664
    22   6 C    3.909 --    23 C    1.268    21 N    1.236    20 C    1.192
    23   6 C    3.945 --    24 C    1.269    22 C    1.268   125 C    1.171
    24   6 C    3.909 --    23 C    1.269    28 N    1.237    25 C    1.190
    25   6 C    3.962 --    26 C    1.637    24 C    1.190    54 H    0.967
    26   6 C    3.959 --    25 C    1.637    27 C    1.183    55 H    0.974
    27   6 C    3.915 --    29 C    1.336    28 N    1.204    26 C    1.183
    28   7 N    3.406 --    24 C    1.237    27 C    1.204     1 Ni   0.663
    29   6 C    3.938 --    27 C    1.336    39 C    1.333    30 C    1.002
    30   6 C    3.989 --    31 C    1.409    38 C    1.397    29 C    1.002
    31   6 C    3.980 --    30 C    1.409    32 C    1.377    56 H    0.971
    32   6 C    3.918 --    31 C    1.377    34 C    1.327    33 O    1.052
    33   8 O    2.048 --    32 C    1.052    57 H    0.848
    34   6 C    3.909 --    36 C    1.344    32 C    1.327    35 O    1.019
    35   8 O    2.021 --    34 C    1.019    58 H    0.846
    36   6 C    3.905 --    38 C    1.380    34 C    1.344    37 O    1.013
    37   8 O    2.025 --    36 C    1.013    59 H    0.861
    38   6 C    3.976 --    30 C    1.397    36 C    1.380    60 H    0.970
    39   6 C    3.920 --    29 C    1.333    43 N    1.217    40 C    1.176
    40   6 C    3.963 --    41 C    1.652    39 C    1.176    61 H    0.974
    41   6 C    3.960 --    40 C    1.652    42 C    1.173    62 H    0.975
    42   6 C    3.924 --     2 C    1.364    43 N    1.215    41 C    1.173
    43   7 N    3.402 --    39 C    1.217    42 C    1.215     1 Ni   0.664
    44   1 H    1.000 --     2 C    0.970
    45   1 H    0.998 --     4 C    0.975
    46   1 H    1.005 --     5 C    0.973
    47   1 H    0.999 --    10 C    0.970
    48   1 H    0.878 --    12 O    0.847
    49   1 H    0.876 --    14 O    0.846
    50   1 H    0.881 --    16 O    0.860
    51   1 H    1.000 --    17 C    0.970
    52   1 H    1.006 --    19 C    0.973
    53   1 H    1.006 --    20 C    0.967
    54   1 H    1.006 --    25 C    0.967
    55   1 H    1.003 --    26 C    0.974
    56   1 H    0.998 --    31 C    0.971
    57   1 H    0.878 --    33 O    0.848
    58   1 H    0.876 --    35 O    0.846
    59   1 H    0.881 --    37 O    0.861
    60   1 H    0.999 --    38 C    0.970
    61   1 H    1.003 --    40 C    0.974
    62   1 H    0.998 --    41 C    0.975
    63  28 Ni   3.021 --    69 N    0.666   105 N    0.664    83 N    0.664
                            90 N    0.663
    64   6 C    3.935 --   104 C    1.364    65 C    1.363   106 H    0.970
    65   6 C    3.924 --    64 C    1.363    69 N    1.214    66 C    1.174
    66   6 C    3.960 --    67 C    1.651    65 C    1.174   107 H    0.975
    67   6 C    3.963 --    66 C    1.651    68 C    1.176   108 H    0.973
    68   6 C    3.919 --    70 C    1.328    69 N    1.219    67 C    1.176
    69   7 N    3.403 --    68 C    1.219    65 C    1.214    63 Ni   0.666
    70   6 C    3.940 --    80 C    1.329    68 C    1.328    71 C    1.018
    71   6 C    3.989 --    72 C    1.402    79 C    1.390    70 C    1.018
    72   6 C    3.978 --    71 C    1.402    73 C    1.378   109 H    0.970
    73   6 C    3.918 --    72 C    1.378    75 C    1.325    74 O    1.053
    74   8 O    2.048 --    73 C    1.053   110 H    0.847
    75   6 C    3.906 --    77 C    1.342    73 C    1.325    76 O    1.020
    76   8 O    2.021 --    75 C    1.020   111 H    0.846
    77   6 C    3.905 --    79 C    1.382    75 C    1.342    78 O    1.014
    78   8 O    2.025 --    77 C    1.014   112 H    0.860
    79   6 C    3.974 --    71 C    1.390    77 C    1.382   113 H    0.970
    80   6 C    3.915 --    70 C    1.329    83 N    1.206    81 C    1.185
    81   6 C    3.959 --    82 C    1.635    80 C    1.185   114 H    0.973
    82   6 C    3.962 --    81 C    1.635    84 C    1.192   115 H    0.967
    83   7 N    3.408 --    84 C    1.236    80 C    1.206    63 Ni   0.664
    84   6 C    3.909 --    85 C    1.268    83 N    1.236    82 C    1.192
    85   6 C    3.945 --    86 C    1.269    84 C    1.268   126 C    1.171
    86   6 C    3.909 --    85 C    1.269    90 N    1.237    87 C    1.190
    87   6 C    3.962 --    88 C    1.637    86 C    1.190   116 H    0.967
    88   6 C    3.959 --    87 C    1.637    89 C    1.183   117 H    0.974
    89   6 C    3.915 --    91 C    1.336    90 N    1.204    88 C    1.183
    90   7 N    3.406 --    86 C    1.237    89 C    1.204    63 Ni   0.663
    91   6 C    3.938 --    89 C    1.336   101 C    1.333    92 C    1.002
    92   6 C    3.989 --    93 C    1.409   100 C    1.397    91 C    1.002
    93   6 C    3.980 --    92 C    1.409    94 C    1.377   118 H    0.971
    94   6 C    3.918 --    93 C    1.377    96 C    1.327    95 O    1.052
    95   8 O    2.048 --    94 C    1.052   119 H    0.848
    96   6 C    3.909 --    98 C    1.344    94 C    1.327    97 O    1.019
    97   8 O    2.021 --    96 C    1.019   120 H    0.846
    98   6 C    3.905 --   100 C    1.380    96 C    1.344    99 O    1.013
    99   8 O    2.025 --    98 C    1.013   121 H    0.861
   100   6 C    3.976 --    92 C    1.397    98 C    1.380   122 H    0.970
   101   6 C    3.920 --    91 C    1.333   105 N    1.217   102 C    1.176
   102   6 C    3.963 --   103 C    1.652   101 C    1.176   123 H    0.974
   103   6 C    3.960 --   102 C    1.652   104 C    1.173   124 H    0.975
   104   6 C    3.924 --    64 C    1.364   105 N    1.215   103 C    1.173
   105   7 N    3.402 --   101 C    1.217   104 C    1.215    63 Ni   0.664
   106   1 H    1.000 --    64 C    0.970
   107   1 H    0.998 --    66 C    0.975
   108   1 H    1.005 --    67 C    0.973
   109   1 H    0.999 --    72 C    0.970
   110   1 H    0.878 --    74 O    0.847
   111   1 H    0.876 --    76 O    0.846
   112   1 H    0.881 --    78 O    0.860
   113   1 H    1.000 --    79 C    0.970
   114   1 H    1.006 --    81 C    0.973
   115   1 H    1.006 --    82 C    0.967
   116   1 H    1.006 --    87 C    0.967
   117   1 H    1.003 --    88 C    0.974
   118   1 H    0.998 --    93 C    0.971
   119   1 H    0.878 --    95 O    0.848
   120   1 H    0.876 --    97 O    0.846
   121   1 H    0.881 --    99 O    0.861
   122   1 H    0.999 --   100 C    0.970
   123   1 H    1.003 --   102 C    0.974
   124   1 H    0.998 --   103 C    0.975
   125   6 C    3.938 --   126 C    2.588    23 C    1.171
   126   6 C    3.938 --   125 C    2.588    85 C    1.171
 ---------------------------------------------------------------------------

           -------------------------------------------------
          | TOTAL ENERGY             -250.256794396028 Eh   |
          | GRADIENT NORM               0.000673757642 Eh/α |
          | HOMO-LUMO GAP               1.207168198353 eV   |
           -------------------------------------------------

 * finished run on 2022/07/30 at 06:21:47.533
