   * xtb version 6.5.1 (b24c23e) compiled by 'conda@728c89f4b128' on 2022-07-12
          program call               : xtb Zn_PhNH2_C2_2.xyz --gfn 1 --opt -T 48

   ID    Z sym.   atoms
    1   30 Zn     1, 61
    2    6 C      2-6, 8-12, 14-18, 20-25, 27-31, 33-38, 62-66, 68-72, 74-78,
                  80-85, 87-91, 93-98, 121, 122
    3    7 N      7, 13, 19, 26, 32, 39, 67, 73, 79, 86, 92, 99
    4    1 H      40-60, 100-120
########################################################################
[WARNING] Please study the warnings concerning your input carefully
-1- prog_main_parseArguments: Unknown option '-T' provided
########################################################################

          :  Hamiltonian                  GFN1-xTB          :
 * total energy  :  -201.7315703 Eh     change       -0.7006804E-09 Eh
 * total energy  :  -201.9566139 Eh     change       -0.2250435E+00 Eh
 * total energy  :  -202.0314939 Eh     change       -0.7488006E-01 Eh
 * total energy  :  -202.0565215 Eh     change       -0.2502761E-01 Eh
 * total energy  :  -202.0660225 Eh     change       -0.9500952E-02 Eh
 * total energy  :  -202.0720712 Eh     change       -0.6048707E-02 Eh
 * total energy  :  -202.0761949 Eh     change       -0.4123736E-02 Eh
 * total energy  :  -202.0792791 Eh     change       -0.3084132E-02 Eh
 * total energy  :  -202.0816611 Eh     change       -0.2382016E-02 Eh
 * total energy  :  -202.0835842 Eh     change       -0.1923096E-02 Eh
 * total energy  :  -202.0926144 Eh     change       -0.1390670E-04 Eh
 * total energy  :  -202.0926367 Eh     change       -0.2233721E-04 Eh
 * total energy  :  -202.0926579 Eh     change       -0.2124729E-04 Eh
 * total energy  :  -202.0926730 Eh     change       -0.1503323E-04 Eh
 * total energy  :  -202.0926852 Eh     change       -0.1226429E-04 Eh
 * total energy  :  -202.0926948 Eh     change       -0.9559603E-05 Eh
 * total energy  :  -202.0927016 Eh     change       -0.6810963E-05 Eh
 * total energy  :  -202.0927068 Eh     change       -0.5133730E-05 Eh
 * total energy  :  -202.0927113 Eh     change       -0.4586596E-05 Eh
   *** GEOMETRY OPTIMIZATION CONVERGED AFTER 41 ITERATIONS ***

 final structure:
================
122
 xtb: 6.5.1 (b24c23e)
Zn          16.64938439178789        0.06493357610012       -0.03211951185331
C           13.23972006500265        0.15444496269509        0.06131032651457
C           13.87408052335477        1.27059540657283       -0.47129431701514
C           13.20528218401219        2.42097838367320       -1.01051954143297
C           14.16854799670933        3.28641197167065       -1.41611335990353
C           15.43868483650571        2.68038795644840       -1.11707008926968
N           15.22432600578467        1.45426956117935       -0.55774006115889
C           16.69255230558096        3.25275622279966       -1.36526051481668
C           16.71468618025431        4.61920601217788       -1.94196535022630
C           17.31571112502566        4.85841853199311       -3.18018809318923
C           17.32980678414129        6.12844781045172       -3.72955618234685
C           16.74212653379695        7.19463852607556       -3.04451384938904
N           16.79369262672581        8.47604377059406       -3.56972314633145
C           16.15437165333108        6.96782276352830       -1.79783470452171
C           16.13597547306554        5.69253413556962       -1.26061134317553
C           17.92801874243274        2.64503157688852       -1.11089683664734
C           19.20777681871965        3.27387848092823       -1.28112560107966
C           20.15060023174651        2.36508995360528       -0.92252478985068
N           18.11820594538196        1.37335299675259       -0.63940325162427
C           19.46015740866983        1.17323001280608       -0.52898706001189
C           20.08670424946910       -0.01702980764849       -0.10714247735228
C           19.42179375988390       -1.18083536429259        0.33047166558499
C           20.07058751535993       -2.40805404992564        0.68312954344724
C           19.10180300481142       -3.27339304014821        1.07866210093531
C           17.84821409129061       -2.58066738387717        0.97566202888249
N           18.07818173529345       -1.31727574773948        0.49961416175280
C           16.59853705659367       -3.12380925425153        1.29916880996779
C           16.58337897401539       -4.48625729683856        1.88397807785716
C           17.25829577454187       -4.75248185343828        3.07815401809897
C           17.24363971397699       -6.01857712695144        3.63600215188539
C           16.56067221512227       -7.05712731560130        2.99842477534971
N           16.50901932296354       -8.31615622143887        3.57429776944083
C           15.88096570556949       -6.79966176453566        1.80540962065499
C           15.89383540757447       -5.52821165640818        1.25912705299118
C           15.36466404011746       -2.48537440428229        1.12072982002844
C           14.08335389746463       -3.02026559417513        1.49772342751077
C           13.14615329494269       -2.10520331038862        1.14343211204258
C           13.84330295740602       -0.99435521749819        0.55925396201906
N           15.18443392683980       -1.25087693066771        0.56748689015112
H           12.15482958713598        0.18366374344610        0.09331582769590
H           12.13449813440258        2.53746084135779       -1.07415682915071
H           14.03450493796305        4.24688698982381       -1.88780943712396
H           17.75896028653092        4.03245556537988       -3.72587056600542
H           17.79288801571169        6.29970105724423       -4.69531699279912
H           16.91308489002199        8.51730126374686       -4.56952512839271
H           16.08600565685117        9.10334999216128       -3.22160552466260
H           15.71146063545781        7.79505264679311       -1.25379485074365
H           15.68503263340536        5.52628369778241       -0.28832703717925
H           19.36390748481120        4.28763067909068       -1.61332326661896
H           21.22073933813261        2.49255954512658       -0.91002929340313
H           21.13117715251524       -2.58822156857075        0.61715789340429
H           19.22385269228384       -4.29720679303278        1.39390614184139
H           17.78317753891287       -3.94929708595619        3.58399330701294
H           17.76246645414031       -6.20915079468112        4.56924673446869
H           17.26221476744843       -8.52114890726246        4.21156373850493
H           16.30544469679312       -9.06653367960741        2.93344288985495
H           15.34696425428984       -7.60163818663893        1.30721689842661
H           15.38003041802207       -5.34173877900287        0.32228868453675
H           13.92505822087706       -3.96942131983054        1.98436388177191
H           12.07632586148407       -2.16303770784717        1.27100082918839
Zn          27.56000634039727       -0.06265082563489        0.03637210834395
C           30.96967038750007       -0.03422769004171        0.16260797733928
C           30.33531111605521       -1.09485403574100        0.79863683942772
C           31.00411060091901       -2.17991171889013        1.45954013152728
C           30.04084562033031       -2.99614840932618        1.95677336699563
C           28.77070816644497       -2.41205479434725        1.61688342227536
N           28.98506587006991       -1.26839379073102        0.90396250984170
C           27.51684113418368       -2.93517069582214        1.95681675552834
C           27.49470856534707       -4.17085178075040        2.77710071444988
C           26.89368553859132       -5.33507667805465        2.29233173164200
C           26.87959127726656       -6.49469750107166        3.04735443227673
C           27.46727126707749       -6.51281613454930        4.31452357221998
N           27.41570615019416       -7.65858607517123        5.09237668886887
C           28.05502486480833       -5.34839261244633        4.81429725408640
C           28.07341940022225       -4.19598839264535        4.04818075864369
C           26.28137425700944       -2.38737762282185        1.59082238276744
C           25.00161666004409       -2.87671841877602        2.02090735926292
C           24.05879242824454       -2.07569856420771        1.46157148952052
N           26.09118606089195       -1.29175523192714        0.79139515076645
C           24.74923447027363       -1.08914903831521        0.68560503617597
C           24.12268597163219       -0.07989178550892       -0.07338722177472
C           24.78759506685445        0.92789033099954       -0.80162250123852
C           24.13880141384276        1.89989319951058       -1.62965793519698
C           25.10758439394636        2.70769379432721       -2.13236917177476
C           26.36117411741800        2.23909466293342       -1.61189718027013
N           26.13120756800432        1.14425408696911       -0.82189441708983
C           27.61085056787567        2.80883708896064       -1.88585744888880
C           27.62600673165970        4.04905995701902       -2.69833135122951
C           26.95108811447020        5.19149537157439       -2.26041608394283
C           26.96574574343579        6.35601062917881       -3.00747399490965
C           27.64871472373821        6.39841996354313       -4.22537764783804
N           27.70036564263140        7.57405398777161       -4.95658806404865
C           28.32842063395801        5.26179037764723       -4.66995438001166
C           28.31554996330085        4.10395631720607       -3.91204254381632
C           28.84472395916277        2.30735863497063       -1.45231609071554
C           30.12603363027320        2.91712311426121       -1.68984795074706
C           31.06323491503718        2.11622918068975       -1.12290091688494
C           30.36608636186683        1.01554655207901       -0.51978663720836
N           29.02495539056879        1.16414108828546       -0.72904925363193
H           32.05456087103400       -0.02369411255268        0.20464541857066
H           32.07489478638345       -2.29731078498730        1.52146770761291
H           30.17488974804434       -3.91999218437090        2.49670095996557
H           26.45043646183207       -5.33353434907914        1.30239138559768
H           26.41651138858634       -7.39427711386568        2.65648442476690
H           27.29631477463785       -8.51471248478784        4.57434779208314
H           28.12339234804424       -7.71503412422712        5.80757850790491
H           28.49793627614510       -5.35200419626751        5.80438574572072
H           28.52436133033996       -3.29373583181464        4.44682477820325
H           24.84548690655881       -3.71372775863384        2.68231818795700
H           22.98865341236888       -2.13571443218849        1.57472172536342
H           23.07821178208296        1.94445214186077       -1.81627782176534
H           24.98553360775182        3.53613285030476       -2.81153211343317
H           26.42621137572532        5.16933136879960       -1.31147163941253
H           26.44691969597750        7.23916328389689       -2.65067356376522
H           26.94717033396687        8.21847557049090       -4.77534155602851
H           27.90393766941703        7.45450722729688       -5.93611408146927
H           28.86242134717362        5.28966173791776       -5.61366297218494
H           28.82935781171128        3.22007613691194       -4.27424411331016
H           30.28432838204346        3.84716867079624       -2.21208455291064
H           32.13306209534682        2.25451383190233       -1.10061981387973
C           21.49606245044986       -0.04385804876866       -0.11321246839318
C           22.71332792683069       -0.07013641144341       -0.09910596312210

          :  Hamiltonian                  GFN1-xTB          :
         :: total energy            -202.092711339048 Eh    ::
         :: gradient norm              0.000416116186 Eh/a0 ::
         :: HOMO-LUMO gap              1.038766146264 eV    ::
         :: SCC energy              -205.273075819380 Eh    ::
         :: repulsion energy           3.289536214843 Eh    ::

    * Orbital Energies and Occupations

         #    Occupation            Energy/Eh            Energy/eV
      -------------------------------------------------------------
         1        2.0000           -0.7753161             -21.0974
       ...           ...                  ...                  ...
       173        2.0000           -0.4100069             -11.1569
       174        2.0000           -0.4099301             -11.1548
       175        2.0000           -0.4098234             -11.1519
       176        2.0000           -0.4098119             -11.1515
       177        2.0000           -0.4086819             -11.1208
       178        2.0000           -0.3968563             -10.7990
       179        2.0000           -0.3945026             -10.7350
       180        2.0000           -0.3926743             -10.6852
       181        2.0000           -0.3926528             -10.6846
       182        2.0000           -0.3823922             -10.4054
       183        2.0000           -0.3823872             -10.4053
       184        2.0000           -0.3763475             -10.2409
       185        2.0000           -0.3633848              -9.8882 (HOMO)
       186                         -0.3252108              -8.8494 (LUMO)
       187                         -0.3143401              -8.5536
       188                         -0.3143401              -8.5536
       189                         -0.3084451              -8.3932
       190                         -0.2833161              -7.7094
       191                         -0.2743619              -7.4658
       192                         -0.2532220              -6.8905
       193                         -0.2532195              -6.8905
       194                         -0.2528226              -6.8797
       195                         -0.2528188              -6.8796
       196                         -0.2405976              -6.5470
       ...                                ...                  ...
       404                          1.3495956              36.7244
      -------------------------------------------------------------
                  HL-Gap            0.0381740 Eh            1.0388 eV

Wiberg/Mayer (AO) data.
largest (>0.10) Wiberg bond orders for each atom

     #   Z sym  total        # sym  WBO       # sym  WBO       # sym  WBO
 ---------------------------------------------------------------------------
     1  30 Zn   2.001 --    39 N    0.460     7 N    0.460    26 N    0.457
                            19 N    0.457
     2   6 C    3.925 --     3 C    1.356    38 C    1.356    40 H    0.972
     3   6 C    3.923 --     2 C    1.356     7 N    1.233     4 C    1.173
     4   6 C    3.959 --     5 C    1.655     3 C    1.173    41 H    0.976
     5   6 C    3.963 --     4 C    1.655     6 C    1.175    42 H    0.973
     6   6 C    3.917 --     8 C    1.313     7 N    1.243     5 C    1.175
     7   7 N    3.292 --     6 C    1.243     3 C    1.233     1 Zn   0.460
     8   6 C    3.933 --    16 C    1.319     6 C    1.313     9 C    1.032
     9   6 C    3.988 --    15 C    1.382    10 C    1.382     8 C    1.032
    10   6 C    3.988 --    11 C    1.467     9 C    1.382    43 H    0.973
                            14 C    0.100
    11   6 C    3.990 --    10 C    1.467    12 C    1.356    44 H    0.972
                            15 C    0.100
    12   6 C    3.952 --    14 C    1.356    11 C    1.356    13 N    1.111
    13   7 N    3.129 --    12 C    1.111    45 H    0.934    46 H    0.934
    14   6 C    3.990 --    15 C    1.467    12 C    1.356    47 H    0.972
                            10 C    0.100
    15   6 C    3.988 --    14 C    1.467     9 C    1.382    48 H    0.973
                            11 C    0.100
    16   6 C    3.913 --     8 C    1.319    19 N    1.227    17 C    1.182
    17   6 C    3.960 --    18 C    1.641    16 C    1.182    49 H    0.973
    18   6 C    3.962 --    17 C    1.641    20 C    1.189    50 H    0.969
    19   7 N    3.296 --    20 C    1.260    16 C    1.227     1 Zn   0.457
    20   6 C    3.907 --    19 N    1.260    21 C    1.257    18 C    1.189
    21   6 C    3.937 --    20 C    1.257    22 C    1.256   121 C    1.182
    22   6 C    3.907 --    26 N    1.260    21 C    1.256    23 C    1.190
    23   6 C    3.962 --    24 C    1.640    22 C    1.190    51 H    0.969
    24   6 C    3.960 --    23 C    1.640    25 C    1.183    52 H    0.973
    25   6 C    3.913 --    27 C    1.318    26 N    1.227    24 C    1.183
    26   7 N    3.297 --    22 C    1.260    25 C    1.227     1 Zn   0.457
    27   6 C    3.933 --    25 C    1.318    35 C    1.313    28 C    1.034
    28   6 C    3.988 --    34 C    1.382    29 C    1.380    27 C    1.034
    29   6 C    3.987 --    30 C    1.468    28 C    1.380    53 H    0.973
                            33 C    0.100
    30   6 C    3.990 --    29 C    1.468    31 C    1.355    54 H    0.972
    31   6 C    3.951 --    33 C    1.356    30 C    1.355    32 N    1.112
    32   7 N    3.130 --    31 C    1.112    56 H    0.934    55 H    0.934
    33   6 C    3.989 --    34 C    1.467    31 C    1.356    57 H    0.972
                            29 C    0.100
    34   6 C    3.987 --    33 C    1.467    28 C    1.382    58 H    0.973
    35   6 C    3.917 --    27 C    1.313    39 N    1.243    36 C    1.175
    36   6 C    3.963 --    37 C    1.655    35 C    1.175    59 H    0.973
    37   6 C    3.959 --    36 C    1.655    38 C    1.173    60 H    0.976
    38   6 C    3.923 --     2 C    1.356    39 N    1.233    37 C    1.173
    39   7 N    3.292 --    35 C    1.243    38 C    1.233     1 Zn   0.460
    40   1 H    1.002 --     2 C    0.972
    41   1 H    0.999 --     4 C    0.976
    42   1 H    1.006 --     5 C    0.973
    43   1 H    1.006 --    10 C    0.973
    44   1 H    0.999 --    11 C    0.972
    45   1 H    0.962 --    13 N    0.934
    46   1 H    0.961 --    13 N    0.934
    47   1 H    0.999 --    14 C    0.972
    48   1 H    1.005 --    15 C    0.973
    49   1 H    1.005 --    17 C    0.973
    50   1 H    1.007 --    18 C    0.969
    51   1 H    1.007 --    23 C    0.969
    52   1 H    1.006 --    24 C    0.973
    53   1 H    1.006 --    29 C    0.973
    54   1 H    0.999 --    30 C    0.972
    55   1 H    0.961 --    32 N    0.934
    56   1 H    0.961 --    32 N    0.934
    57   1 H    0.999 --    33 C    0.972
    58   1 H    1.006 --    34 C    0.973
    59   1 H    1.006 --    36 C    0.973
    60   1 H    0.999 --    37 C    0.976
    61  30 Zn   2.001 --    99 N    0.460    67 N    0.460    86 N    0.457
                            79 N    0.457
    62   6 C    3.925 --    63 C    1.356    98 C    1.356   100 H    0.972
    63   6 C    3.923 --    62 C    1.356    67 N    1.233    64 C    1.173
    64   6 C    3.959 --    65 C    1.655    63 C    1.173   101 H    0.976
    65   6 C    3.963 --    64 C    1.655    66 C    1.175   102 H    0.973
    66   6 C    3.917 --    68 C    1.313    67 N    1.243    65 C    1.175
    67   7 N    3.292 --    66 C    1.243    63 C    1.233    61 Zn   0.460
    68   6 C    3.933 --    76 C    1.319    66 C    1.313    69 C    1.032
    69   6 C    3.988 --    75 C    1.382    70 C    1.382    68 C    1.032
    70   6 C    3.988 --    71 C    1.467    69 C    1.382   103 H    0.973
                            74 C    0.100
    71   6 C    3.990 --    70 C    1.467    72 C    1.356   104 H    0.972
                            75 C    0.100
    72   6 C    3.952 --    74 C    1.356    71 C    1.356    73 N    1.111
    73   7 N    3.129 --    72 C    1.111   105 H    0.934   106 H    0.934
    74   6 C    3.990 --    75 C    1.467    72 C    1.356   107 H    0.972
                            70 C    0.100
    75   6 C    3.988 --    74 C    1.467    69 C    1.382   108 H    0.973
                            71 C    0.100
    76   6 C    3.913 --    68 C    1.319    79 N    1.227    77 C    1.182
    77   6 C    3.960 --    78 C    1.641    76 C    1.182   109 H    0.973
    78   6 C    3.962 --    77 C    1.641    80 C    1.189   110 H    0.969
    79   7 N    3.296 --    80 C    1.260    76 C    1.227    61 Zn   0.457
    80   6 C    3.907 --    79 N    1.260    81 C    1.257    78 C    1.189
    81   6 C    3.937 --    80 C    1.257    82 C    1.256   122 C    1.182
    82   6 C    3.907 --    86 N    1.260    81 C    1.256    83 C    1.190
    83   6 C    3.962 --    84 C    1.640    82 C    1.190   111 H    0.969
    84   6 C    3.960 --    83 C    1.640    85 C    1.183   112 H    0.973
    85   6 C    3.913 --    87 C    1.318    86 N    1.227    84 C    1.183
    86   7 N    3.297 --    82 C    1.260    85 C    1.227    61 Zn   0.457
    87   6 C    3.933 --    85 C    1.318    95 C    1.313    88 C    1.034
    88   6 C    3.988 --    94 C    1.382    89 C    1.380    87 C    1.034
    89   6 C    3.987 --    90 C    1.468    88 C    1.380   113 H    0.973
                            93 C    0.100
    90   6 C    3.990 --    89 C    1.468    91 C    1.355   114 H    0.972
    91   6 C    3.951 --    93 C    1.356    90 C    1.355    92 N    1.112
    92   7 N    3.130 --    91 C    1.112   116 H    0.934   115 H    0.934
    93   6 C    3.989 --    94 C    1.467    91 C    1.356   117 H    0.972
                            89 C    0.100
    94   6 C    3.987 --    93 C    1.467    88 C    1.382   118 H    0.973
    95   6 C    3.917 --    87 C    1.313    99 N    1.243    96 C    1.175
    96   6 C    3.963 --    97 C    1.655    95 C    1.175   119 H    0.973
    97   6 C    3.959 --    96 C    1.655    98 C    1.173   120 H    0.976
    98   6 C    3.923 --    62 C    1.356    99 N    1.233    97 C    1.173
    99   7 N    3.292 --    95 C    1.243    98 C    1.233    61 Zn   0.460
   100   1 H    1.002 --    62 C    0.972
   101   1 H    0.999 --    64 C    0.976
   102   1 H    1.006 --    65 C    0.973
   103   1 H    1.006 --    70 C    0.973
   104   1 H    0.999 --    71 C    0.972
   105   1 H    0.962 --    73 N    0.934
   106   1 H    0.961 --    73 N    0.934
   107   1 H    0.999 --    74 C    0.972
   108   1 H    1.005 --    75 C    0.973
   109   1 H    1.005 --    77 C    0.973
   110   1 H    1.007 --    78 C    0.969
   111   1 H    1.007 --    83 C    0.969
   112   1 H    1.006 --    84 C    0.973
   113   1 H    1.006 --    89 C    0.973
   114   1 H    0.999 --    90 C    0.972
   115   1 H    0.961 --    92 N    0.934
   116   1 H    0.961 --    92 N    0.934
   117   1 H    0.999 --    93 C    0.972
   118   1 H    1.006 --    94 C    0.973
   119   1 H    1.006 --    96 C    0.973
   120   1 H    0.999 --    97 C    0.976
   121   6 C    3.933 --   122 C    2.574    21 C    1.182
   122   6 C    3.933 --   121 C    2.574    81 C    1.182
 ---------------------------------------------------------------------------

           -------------------------------------------------
          | TOTAL ENERGY             -202.092711339048 Eh   |
          | GRADIENT NORM               0.000416116186 Eh/α |
          | HOMO-LUMO GAP               1.038766146264 eV   |
           -------------------------------------------------

 * finished run on 2022/07/30 at 09:31:15.010
