   * xtb version 6.5.1 (b24c23e) compiled by 'conda@728c89f4b128' on 2022-07-12
          program call               : xtb Fe_PhNH2_C8_3.xyz --gfn 1 --opt -T 48

   ID    Z sym.   atoms
    1   26 Fe     1, 61, 137
    2    6 C      2-6, 8-12, 14-18, 20-25, 27-31, 33-38, 62-66, 68-72, 74-78,
                  80-85, 87-91, 93-98, 121-136, 138-142, 144-148, 150-154,
                  156-161, 163-167, 169-174
    3    7 N      7, 13, 19, 26, 32, 39, 67, 73, 79, 86, 92, 99, 143, 149,
                  155, 162, 168, 175
    4    1 H      40-60, 100-120, 176-195

          :  Hamiltonian                  GFN1-xTB          :
 * total energy  :  -333.7892847 Eh     change       -0.1459114E-07 Eh
 * total energy  :  -335.5254460 Eh     change       -0.1736161E+01 Eh
 * total energy  :  -335.8479896 Eh     change       -0.3225437E+00 Eh
 * total energy  :  -336.0139093 Eh     change       -0.1659197E+00 Eh
 * total energy  :  -336.1362027 Eh     change       -0.1222934E+00 Eh
 * total energy  :  -336.2250980 Eh     change       -0.8889523E-01 Eh
 * total energy  :  -336.2755050 Eh     change       -0.5040703E-01 Eh
 * total energy  :  -336.3108010 Eh     change       -0.3529599E-01 Eh
 * total energy  :  -336.3338763 Eh     change       -0.2307532E-01 Eh
 * total energy  :  -336.3468107 Eh     change       -0.1293436E-01 Eh
 * total energy  :  -336.3747286 Eh     change        0.2067413E-03 Eh
 * total energy  :  -336.3749253 Eh     change       -0.1967303E-03 Eh
 * total energy  :  -336.3749358 Eh     change       -0.1048703E-04 Eh
 * total energy  :  -336.3749513 Eh     change       -0.1552286E-04 Eh
 * total energy  :  -336.3749342 Eh     change        0.1712187E-04 Eh
 * total energy  :  -336.3749539 Eh     change       -0.1972642E-04 Eh
 * total energy  :  -336.3749545 Eh     change       -0.5416343E-06 Eh
 * total energy  :  -336.3749681 Eh     change       -0.1359038E-04 Eh
 * total energy  :  -336.3749714 Eh     change       -0.3376470E-05 Eh
   *** GEOMETRY OPTIMIZATION CONVERGED AFTER 58 ITERATIONS ***

 final structure:
================
195
 xtb: 6.5.1 (b24c23e)
Fe          26.57764730716742        0.01660294670886        0.03529966793284
C           23.19293637057357        0.10925864889542        0.12256250994746
C           23.84882976076882        1.13269767180647       -0.53042044722912
C           23.17975715925039        2.20717152135343       -1.19854262689171
C           24.14304328316849        3.05951799918386       -1.62266486459686
C           25.39871568147804        2.51124766885527       -1.19855054119168
N           25.20725228205506        1.31033111365041       -0.57140170255612
C           26.62366195821964        3.15327352685556       -1.36098918220700
C           26.64265460633898        4.50779088511093       -1.95599889885595
C           27.36092537899653        4.76168392232460       -3.12751671985775
C           27.37803509024269        6.02558209343049       -3.68923685245594
C           26.68797701750249        7.07503456956692       -3.07623437567796
N           26.67242417489256        8.33128119146674       -3.65434673870940
C           25.96552785285900        6.82898448989981       -1.90534981466656
C           25.94299873385409        5.55913690299117       -1.35752111636670
C           27.82743953636154        2.57510279426663       -0.97955136203339
C           29.09597050628746        3.23470576240455       -1.06857729706564
C           30.03442996217576        2.33110688293965       -0.69509602418210
N           27.99054581940258        1.29323741307707       -0.51016425731257
C           29.33616795411204        1.12768882034676       -0.36965945643158
C           29.98361222902619       -0.06814475938983       -0.03218998519150
C           29.29243927558727       -1.23477795946875        0.31972517670210
C           29.94342250609828       -2.47313359392657        0.61001848222183
C           28.97556733235623       -3.33713725800794        1.00187460869510
C           27.73758116181605       -2.61713765604464        0.96386345737305
N           27.94552460767365       -1.33942367837088        0.50019593193132
C           26.52296517108007       -3.13770904779635        1.39082444971680
C           26.49447172041773       -4.49854186991784        1.97092745543771
C           27.24808574055581       -4.80675915128932        3.10663520913390
C           27.21684078667210       -6.07598178859811        3.65567277015579
C           26.44022674430524       -7.07682359824122        3.06534339398689
N           26.37647839950680       -8.33618416075843        3.63315073929417
C           25.68207445521078       -6.77622605938481        1.93029229035652
C           25.70892951080067       -5.50097485045966        1.39542930221670
C           25.32833893556801       -2.42793716432233        1.29721370331400
C           24.06931366773183       -2.90857107004539        1.78818587761310
C           23.13472676724405       -1.99568559779821        1.43112437813951
C           23.82530497956436       -0.95400944901186        0.73359598122348
N           25.17098350649912       -1.21149958705389        0.69138521225889
H           22.10955430464536        0.14103678442574        0.15480588192786
H           22.11058657945881        2.28175392313988       -1.31926813935454
H           24.02559427263214        3.97587512001524       -2.17802825332534
H           27.89190478183466        3.95059166054022       -3.61367325232789
H           27.92784694701478        6.20720126171242       -4.60625509347518
H           27.44082604907908        8.52678855741477       -4.27570286981954
H           26.44886885950925        9.08838242600495       -3.02859655024456
H           25.42641655077710        7.63899636555079       -1.42629910837700
H           25.39538596988183        5.38047548979403       -0.43861749233138
H           29.24049927067284        4.25949366504755       -1.36964930121772
H           31.10406418429569        2.45457472409425       -0.63985315900959
H           31.00387596132795       -2.64512680188465        0.51858243951856
H           29.08113187898359       -4.37139304500224        1.28631965323592
H           27.84551863192556       -4.03306279593473        3.57633189956222
H           27.79506910003921       -6.29935275256974        4.54559870963302
H           27.15846221591196       -8.58316731771431        4.21815260247433
H           26.08083168545663       -9.07226232676668        3.01226523560507
H           25.07567457888180       -7.54816333415089        1.46916421997889
H           25.13147654212904       -5.28015328598463        0.50437370373749
H           23.93090490476382       -3.82384986887963        2.34050172721212
H           22.07201023207582       -2.00939212954840        1.61471898605755
Fe          63.67463287621617       -0.00441886411873        0.04243427160505
C           67.06046483435563        0.01608803638196        0.16842009104832
C           66.40417118527506       -1.09177542914541        0.66395041003855
C           67.07386859837668       -2.23840273087989        1.19811989670983
C           66.11063401083501       -3.06375044440607        1.67245492175687
C           64.85409226306318       -2.41235061497588        1.43994271620447
N           65.04544164647190       -1.22735647805898        0.78287243329534
C           63.62827449344656       -2.90889956112984        1.87474950908718
C           63.61054965604730       -4.15181082182308        2.67772246921582
C           62.90768855822043       -5.27644640865606        2.23770308229197
C           62.89193967762146       -6.44026032313915        2.98526793496472
C           63.56815811842778       -6.49847478905848        4.20692351824540
N           63.58524382410280       -7.67155460384163        4.93963184043425
C           64.27583777245631       -5.37882589847151        4.65279707405280
C           64.29678671155142       -4.22320798794284        3.89299125662913
C           62.42316283816492       -2.27903979737270        1.59252935709812
C           61.15282508579249       -2.72885637491867        2.07845271262997
C           60.21454437195202       -1.91959248846557        1.52972197700259
N           62.26087225773895       -1.17575913922817        0.78844285253918
C           60.91447069757947       -0.97245255196619        0.72050835166532
C           60.26815756226102       -0.01878543778020       -0.07598430989378
C           60.95913541781275        0.93128135398090       -0.83822210994789
C           60.30752032235536        1.86766170236851       -1.69863617215125
C           61.27594599683633        2.67193944837821       -2.20035065591199
C           62.51504439316863        2.23312066735433       -1.63064710295229
N           62.30705181871553        1.13514704671400       -0.82934820505861
C           63.73101820324086        2.87273977175641       -1.83230562279255
C           63.76024887473000        4.11014356497159       -2.64343920177206
C           63.01557776892602        5.23033757765290       -2.26513314124515
C           63.04671302249015        6.39014886780887       -3.01839680828365
C           63.81449826348902        6.44875857871949       -4.18466967193368
N           63.87804398785650        7.61862924508838       -4.91988699034993
C           64.56438675700836        5.33357975736946       -4.56848968605929
C           64.53740286851294        4.18206251438201       -3.80265967257169
C           64.92617865830819        2.39747658381315       -1.29896631900592
C           66.18632561808815        3.06946084390787       -1.43193672316923
C           67.12051811583416        2.26605239833988       -0.86986690452473
C           66.42869001373005        1.11093750247138       -0.38446235075225
N           65.08289163032160        1.21945427256733       -0.62100117680880
H           68.14376643411366        0.02581016092682        0.21433882180548
H           68.14347723866237       -2.37698308217158        1.19967153217681
H           66.22852771127037       -4.03079214829937        2.13382741860823
H           62.38756387984525       -5.24184978026325        1.28669071774103
H           62.35384137576956       -7.31106119601930        2.62697952125268
H           62.82349444452841       -8.30387737559006        4.75336964944840
H           63.79570993128899       -7.56172483201809        5.91862996472362
H           64.80465232586766       -5.41889442643296        5.59883914510247
H           64.83285620561760       -3.35251823388919        4.25453857423809
H           61.00696662697898       -3.55208370499507        2.75869602958714
H           59.14397665175478       -1.94847723864253        1.65416658266354
H           59.24629947239541        1.89179728953956       -1.88765654041294
H           61.17009659970065        3.48648664192434       -2.89822617173494
H           62.42492297566303        5.19597643312489       -1.35623142524958
H           62.47508533463127        7.25771513839020       -2.70727974395098
H           63.09888397291603        8.24508683873945       -4.79637165417366
H           64.16477952176871        7.50666405259513       -5.87907777297281
H           65.16434223353856        5.37411694603123       -5.47107876400705
H           65.10829874661650        3.31497727335384       -4.11640657013217
H           66.32550147620637        4.03500003833291       -1.89053961882634
H           68.18370660622678        2.42472130467204       -0.78193802778906
C           31.38276817077484       -0.09579613961111       -0.04818499579479
C           32.60935848738479       -0.10927963610827       -0.06519868149661
C           33.94811948031337       -0.11838394168508       -0.07529561612902
C           35.18130711471908       -0.11925638442280       -0.08294913667019
C           36.51532545061482       -0.11372715403850       -0.08869559063485
C           37.74855730719892       -0.10372580835843       -0.09007136574228
C           39.08714567519756       -0.09070140011399       -0.08501000136710
C           40.31406324937029       -0.07647724822967       -0.07448151639367
C           49.93654515255026       -0.03637245079382       -0.08150868039721
C           51.16300929249269       -0.03761436307391       -0.10593537585235
C           52.50223146059333       -0.03586629354567       -0.12510795737095
C           53.73500308755735       -0.02918179242319       -0.13843932506745
C           55.06969846753435       -0.02401490842326       -0.14483867867479
C           56.30239602173182       -0.02403113117266       -0.14401763487574
C           57.64185293131533       -0.01950737842507       -0.13069542017103
C           58.86811593721678       -0.01649146984048       -0.10974134702951
Fe          45.12533736946273       -0.03516211354719       -0.00183606920205
C           41.71278542618440       -0.06341676053505       -0.05593962378632
C           42.38072600826026        1.06714122412779       -0.54526424051493
C           41.69947915316604        2.21619702809919       -1.05165268324473
C           42.64751306105180        3.15625157423005       -1.28486033246070
C           43.90629912432766        2.56980374104552       -0.93513531391563
N           43.72644478906273        1.27867015002270       -0.50129581480648
C           45.11107824640249        3.26340269703925       -0.93221133927054
C           45.10773371501939        4.69329922509152       -1.31963504373112
C           44.74422500589908        5.08220680138290       -2.61096269217570
C           44.75030081099523        6.41643277480765       -2.97668441965596
C           45.11678076311335        7.39625291088014       -2.04991948119193
N           45.07691835250766        8.73421471271893       -2.39694903919465
C           45.46784502944244        7.01523445048201       -0.75190550727501
C           45.47132307142394        5.67794126441929       -0.39793570934077
C           46.32385495280634        2.67380689639197       -0.59347762633361
C           47.58185939356737        3.35627267343046       -0.64523270562378
C           48.54091578345120        2.42736862714715       -0.41228056017643
N           46.51488457095713        1.34347269057770       -0.30884635772432
C           47.86554135085552        1.18329432119696       -0.22132737475672
C           48.53731839152434       -0.03373047245884       -0.04563833052529
C           47.86987620231176       -1.24525308915550        0.17663810245647
C           48.54512820206757       -2.49369540819650        0.33497621787778
C           47.59485216002992       -3.41126750552093        0.64062652855478
C           46.34460512307719       -2.71450230430851        0.67614172363307
N           46.52538102025423       -1.39384017388941        0.34703898254389
C           45.13674378750973       -3.30259152195120        1.03826647452964
C           45.14428853320364       -4.71032151685559        1.49018681489610
C           44.38473901663325       -5.67740750048619        0.82548099932229
C           44.39749003047963       -6.99702729523390        1.23869074590746
C           45.17048196866487       -7.38055764511599        2.33844725312961
N           45.14761908813995       -8.68821810339554        2.78449359518675
C           45.92133053107064       -6.41680747583654        3.01783023917776
C           45.91334456148044       -5.10184770637302        2.58982516422173
C           43.92294020704244       -2.62663411873236        0.97958678959110
C           42.67084530911635       -3.19208769491227        1.38317112114870
C           41.71200999323411       -2.29091095166332        1.05661607110910
C           42.38450287987333       -1.17295013921992        0.47548437023152
N           43.73330394217545       -1.36584595225566        0.46767958601079
H           40.63229710858085        2.28733668203261       -1.18721979862996
H           42.51163388601168        4.16292890987347       -1.64468743137931
H           44.47648499168561        4.32610486092930       -3.34079181574945
H           44.47478938056449        6.70628404186012       -3.98475809998806
H           45.13799397083428        8.92339320641763       -3.38444883560123
H           45.64319983348793        9.34221076683250       -1.82741507687622
H           45.73928086777935        7.77224503351310       -0.02433276290723
H           45.73835955099003        5.38985175864420        0.61287824466069
H           47.70889244052346        4.40556010807321       -0.85573026409122
H           49.61076388372250        2.55676417478869       -0.38071632632498
H           49.60799224128582       -2.63586644050405        0.22342449951605
H           47.72097352607759       -4.46708910428171        0.81639408650856
H           43.79852398559922       -5.39203781043390       -0.04112335929883
H           43.81161303770386       -7.73984662463019        0.70850006679713
H           45.93791891675460       -8.96758078447140        3.34289772190178
H           44.86405734417555       -9.37198132783256        2.10148369379143
H           46.51100012846582       -6.70551802070720        3.88098971339383
H           46.49100378746214       -4.35841383070070        3.12807094072331
H           42.54871516081059       -4.15048165278372        1.86066405356692
H           40.64538777450828       -2.36148769158200        1.19674686781766

          :  Hamiltonian                  GFN1-xTB          :
         :: total energy            -336.374971445955 Eh    ::
         :: gradient norm              0.000623156585 Eh/a0 ::
         :: HOMO-LUMO gap              0.050978255093 eV    ::
         :: SCC energy              -342.062625420356 Eh    ::
         :: repulsion energy           5.859322505843 Eh    ::

    * Orbital Energies and Occupations

         #    Occupation            Energy/Eh            Energy/eV
      -------------------------------------------------------------
         1        2.0000           -0.7829486             -21.3051
       ...           ...                  ...                  ...
       300        2.0000           -0.3888257             -10.5805
       301        1.9999           -0.3847212             -10.4688
       302        1.9926           -0.3803362             -10.3495
       303        1.9923           -0.3802952             -10.3484
       304        1.9921           -0.3802674             -10.3476
       305        1.9874           -0.3798215             -10.3355
       306        1.9706           -0.3790108             -10.3134
       307        1.9620           -0.3787616             -10.3066
       308        1.9562           -0.3786238             -10.3029
       309        1.9535           -0.3785654             -10.3013
       310        1.9529           -0.3785537             -10.3010
       311        1.9501           -0.3784963             -10.2994
       312        1.2494           -0.3754989             -10.2178 (HOMO)
       313        0.3762           -0.3736254             -10.1669 (LUMO)
       314        0.3375           -0.3735000             -10.1635
       315        0.3273           -0.3734650             -10.1625
       316                         -0.3384943              -9.2109
       317                         -0.3285806              -8.9411
       318                         -0.3233610              -8.7991
       319                         -0.3220380              -8.7631
       320                         -0.3192770              -8.6880
       321                         -0.3188490              -8.6763
       322                         -0.3052509              -8.3063
       323                         -0.3006090              -8.1800
       ...                                ...                  ...
       671                          1.6039674              43.6462
      -------------------------------------------------------------
                  HL-Gap            0.0018734 Eh            0.0510 eV

Wiberg/Mayer (AO) data.
largest (>0.10) Wiberg bond orders for each atom

     #   Z sym  total        # sym  WBO       # sym  WBO       # sym  WBO
 ---------------------------------------------------------------------------
     1  26 Fe   3.094 --     7 N    0.663    39 N    0.662    26 N    0.656
                            19 N    0.655
     2   6 C    3.916 --    38 C    1.363     3 C    1.362    40 H    0.970
     3   6 C    3.926 --     2 C    1.362     7 N    1.208     4 C    1.175
     4   6 C    3.958 --     5 C    1.646     3 C    1.175    41 H    0.975
     5   6 C    3.962 --     4 C    1.646     6 C    1.178    42 H    0.973
     6   6 C    3.918 --     8 C    1.307     7 N    1.228     5 C    1.178
     7   7 N    3.376 --     6 C    1.228     3 C    1.208     1 Fe   0.663
     8   6 C    3.920 --    16 C    1.330     6 C    1.307     9 C    1.037
     9   6 C    3.985 --    10 C    1.378    15 C    1.378     8 C    1.037
    10   6 C    3.987 --    11 C    1.471     9 C    1.378    43 H    0.973
    11   6 C    3.988 --    10 C    1.471    12 C    1.352    44 H    0.972
    12   6 C    3.950 --    11 C    1.352    14 C    1.351    13 N    1.119
    13   7 N    3.135 --    12 C    1.119    46 H    0.933    45 H    0.933
    14   6 C    3.988 --    15 C    1.471    12 C    1.351    47 H    0.972
    15   6 C    3.986 --    14 C    1.471     9 C    1.378    48 H    0.973
    16   6 C    3.916 --     8 C    1.330    19 N    1.201    17 C    1.182
    17   6 C    3.957 --    18 C    1.635    16 C    1.182    49 H    0.973
    18   6 C    3.960 --    17 C    1.635    20 C    1.191    50 H    0.974
    19   7 N    3.374 --    20 C    1.246    16 C    1.201     1 Fe   0.655
    20   6 C    3.904 --    21 C    1.247    19 N    1.246    18 C    1.191
    21   6 C    3.917 --    22 C    1.247    20 C    1.247   121 C    1.209
    22   6 C    3.904 --    21 C    1.247    26 N    1.247    23 C    1.191
    23   6 C    3.960 --    24 C    1.635    22 C    1.191    51 H    0.974
    24   6 C    3.957 --    23 C    1.635    25 C    1.182    52 H    0.973
    25   6 C    3.916 --    27 C    1.331    26 N    1.200    24 C    1.182
    26   7 N    3.375 --    22 C    1.247    25 C    1.200     1 Fe   0.656
    27   6 C    3.920 --    25 C    1.331    35 C    1.306    28 C    1.037
    28   6 C    3.985 --    29 C    1.378    34 C    1.377    27 C    1.037
    29   6 C    3.987 --    30 C    1.471    28 C    1.378    53 H    0.972
    30   6 C    3.988 --    29 C    1.471    31 C    1.352    54 H    0.972
    31   6 C    3.950 --    30 C    1.352    33 C    1.351    32 N    1.119
    32   7 N    3.135 --    31 C    1.119    56 H    0.933    55 H    0.933
    33   6 C    3.988 --    34 C    1.471    31 C    1.351    57 H    0.972
    34   6 C    3.986 --    33 C    1.471    28 C    1.377    58 H    0.973
    35   6 C    3.918 --    27 C    1.306    39 N    1.228    36 C    1.178
    36   6 C    3.962 --    37 C    1.646    35 C    1.178    59 H    0.973
    37   6 C    3.958 --    36 C    1.646    38 C    1.175    60 H    0.975
    38   6 C    3.926 --     2 C    1.363    39 N    1.207    37 C    1.175
    39   7 N    3.375 --    35 C    1.228    38 C    1.207     1 Fe   0.662
    40   1 H    1.001 --     2 C    0.970
    41   1 H    0.998 --     4 C    0.975
    42   1 H    1.005 --     5 C    0.973
    43   1 H    1.005 --    10 C    0.973
    44   1 H    0.998 --    11 C    0.972
    45   1 H    0.960 --    13 N    0.933
    46   1 H    0.960 --    13 N    0.933
    47   1 H    0.998 --    14 C    0.972
    48   1 H    1.005 --    15 C    0.973
    49   1 H    1.005 --    17 C    0.973
    50   1 H    1.002 --    18 C    0.974
    51   1 H    1.002 --    23 C    0.974
    52   1 H    1.005 --    24 C    0.973
    53   1 H    1.005 --    29 C    0.972
    54   1 H    0.998 --    30 C    0.972
    55   1 H    0.960 --    32 N    0.933
    56   1 H    0.960 --    32 N    0.933
    57   1 H    0.998 --    33 C    0.972
    58   1 H    1.005 --    34 C    0.973
    59   1 H    1.005 --    36 C    0.973
    60   1 H    0.998 --    37 C    0.975
    61  26 Fe   3.100 --    67 N    0.665    99 N    0.663    86 N    0.658
                            79 N    0.656
    62   6 C    3.918 --    98 C    1.363    63 C    1.363   100 H    0.970
    63   6 C    3.926 --    62 C    1.363    67 N    1.208    64 C    1.175
    64   6 C    3.958 --    65 C    1.646    63 C    1.175   101 H    0.975
    65   6 C    3.962 --    64 C    1.646    66 C    1.177   102 H    0.973
    66   6 C    3.918 --    68 C    1.308    67 N    1.227    65 C    1.177
    67   7 N    3.378 --    66 C    1.227    63 C    1.208    61 Fe   0.665
    68   6 C    3.922 --    76 C    1.330    66 C    1.308    69 C    1.036
    69   6 C    3.985 --    70 C    1.378    75 C    1.378    68 C    1.036
    70   6 C    3.987 --    71 C    1.470    69 C    1.378   103 H    0.973
    71   6 C    3.988 --    70 C    1.470    72 C    1.352   104 H    0.972
    72   6 C    3.950 --    71 C    1.352    74 C    1.352    73 N    1.118
    73   7 N    3.135 --    72 C    1.118   106 H    0.933   105 H    0.933
    74   6 C    3.988 --    75 C    1.471    72 C    1.352   107 H    0.972
    75   6 C    3.986 --    74 C    1.471    69 C    1.378   108 H    0.973
    76   6 C    3.916 --    68 C    1.330    79 N    1.201    77 C    1.182
    77   6 C    3.957 --    78 C    1.635    76 C    1.182   109 H    0.973
    78   6 C    3.959 --    77 C    1.635    80 C    1.190   110 H    0.974
    79   7 N    3.376 --    80 C    1.245    76 C    1.201    61 Fe   0.656
    80   6 C    3.904 --    81 C    1.249    79 N    1.245    78 C    1.190
    81   6 C    3.920 --    82 C    1.249    80 C    1.249   136 C    1.205
    82   6 C    3.905 --    81 C    1.249    86 N    1.245    83 C    1.190
    83   6 C    3.960 --    84 C    1.635    82 C    1.190   111 H    0.974
    84   6 C    3.957 --    83 C    1.635    85 C    1.182   112 H    0.973
    85   6 C    3.916 --    87 C    1.331    86 N    1.200    84 C    1.182
    86   7 N    3.377 --    82 C    1.245    85 C    1.200    61 Fe   0.658
    87   6 C    3.922 --    85 C    1.331    95 C    1.308    88 C    1.036
    88   6 C    3.985 --    89 C    1.378    94 C    1.378    87 C    1.036
    89   6 C    3.987 --    90 C    1.470    88 C    1.378   113 H    0.973
    90   6 C    3.988 --    89 C    1.470    91 C    1.352   114 H    0.972
    91   6 C    3.950 --    90 C    1.352    93 C    1.352    92 N    1.118
    92   7 N    3.135 --    91 C    1.118   116 H    0.933   115 H    0.933
    93   6 C    3.988 --    94 C    1.471    91 C    1.352   117 H    0.972
    94   6 C    3.986 --    93 C    1.471    88 C    1.378   118 H    0.973
    95   6 C    3.918 --    87 C    1.308    99 N    1.227    96 C    1.178
    96   6 C    3.962 --    97 C    1.646    95 C    1.178   119 H    0.973
    97   6 C    3.958 --    96 C    1.646    98 C    1.175   120 H    0.975
    98   6 C    3.926 --    62 C    1.363    99 N    1.208    97 C    1.175
    99   7 N    3.377 --    95 C    1.227    98 C    1.208    61 Fe   0.663
   100   1 H    1.001 --    62 C    0.970
   101   1 H    0.998 --    64 C    0.975
   102   1 H    1.005 --    65 C    0.973
   103   1 H    1.005 --    70 C    0.973
   104   1 H    0.998 --    71 C    0.972
   105   1 H    0.960 --    73 N    0.933
   106   1 H    0.960 --    73 N    0.933
   107   1 H    0.998 --    74 C    0.972
   108   1 H    1.005 --    75 C    0.973
   109   1 H    1.005 --    77 C    0.973
   110   1 H    1.002 --    78 C    0.974
   111   1 H    1.002 --    83 C    0.974
   112   1 H    1.005 --    84 C    0.973
   113   1 H    1.005 --    89 C    0.973
   114   1 H    0.998 --    90 C    0.972
   115   1 H    0.960 --    92 N    0.933
   116   1 H    0.960 --    92 N    0.933
   117   1 H    0.998 --    93 C    0.972
   118   1 H    1.005 --    94 C    0.973
   119   1 H    1.005 --    96 C    0.973
   120   1 H    0.998 --    97 C    0.975
   121   6 C    3.863 --   122 C    2.408    21 C    1.209   124 C    0.182
   122   6 C    3.923 --   121 C    2.408   123 C    1.366
   123   6 C    3.880 --   124 C    2.302   122 C    1.366   126 C    0.177
   124   6 C    3.914 --   123 C    2.302   125 C    1.392   121 C    0.182
   125   6 C    3.913 --   126 C    2.302   124 C    1.392   128 C    0.182
   126   6 C    3.881 --   125 C    2.302   127 C    1.367   123 C    0.177
   127   6 C    3.920 --   128 C    2.405   126 C    1.367
   128   6 C    3.864 --   127 C    2.405   138 C    1.212   125 C    0.182
   129   6 C    3.866 --   130 C    2.410   157 C    1.209   132 C    0.182
   130   6 C    3.921 --   129 C    2.410   131 C    1.363
   131   6 C    3.882 --   132 C    2.307   130 C    1.363   134 C    0.178
   132   6 C    3.914 --   131 C    2.307   133 C    1.388   129 C    0.182
   133   6 C    3.916 --   134 C    2.308   132 C    1.388   136 C    0.183
   134   6 C    3.881 --   133 C    2.308   135 C    1.362   131 C    0.178
   135   6 C    3.925 --   136 C    2.413   134 C    1.362
   136   6 C    3.865 --   135 C    2.413    81 C    1.205   133 C    0.183
   137  26 Fe   3.054 --   155 N    0.648   175 N    0.647   162 N    0.647
                           143 N    0.647
   138   6 C    3.904 --   139 C    1.245   174 C    1.243   128 C    1.212
   139   6 C    3.905 --   143 N    1.248   138 C    1.245   140 C    1.191
   140   6 C    3.959 --   141 C    1.633   139 C    1.191   176 H    0.973
   141   6 C    3.959 --   140 C    1.633   142 C    1.184   177 H    0.972
   142   6 C    3.913 --   144 C    1.321   143 N    1.206   141 C    1.184
   143   7 N    3.366 --   139 C    1.248   142 C    1.206   137 Fe   0.647
   144   6 C    3.913 --   142 C    1.321   152 C    1.321   145 C    1.030
   145   6 C    3.984 --   146 C    1.380   151 C    1.380   144 C    1.030
   146   6 C    3.987 --   147 C    1.469   145 C    1.380   178 H    0.973
   147   6 C    3.988 --   146 C    1.469   148 C    1.352   179 H    0.972
   148   6 C    3.951 --   147 C    1.352   150 C    1.352   149 N    1.119
   149   7 N    3.136 --   148 C    1.119   180 H    0.933   181 H    0.933
   150   6 C    3.988 --   151 C    1.470   148 C    1.352   182 H    0.972
   151   6 C    3.987 --   150 C    1.470   145 C    1.380   183 H    0.973
   152   6 C    3.913 --   144 C    1.321   155 N    1.206   153 C    1.184
   153   6 C    3.959 --   154 C    1.633   152 C    1.184   184 H    0.973
   154   6 C    3.959 --   153 C    1.633   156 C    1.192   185 H    0.973
   155   7 N    3.366 --   156 C    1.248   152 C    1.206   137 Fe   0.648
   156   6 C    3.905 --   155 N    1.248   157 C    1.246   154 C    1.192
   157   6 C    3.905 --   158 C    1.247   156 C    1.246   129 C    1.209
   158   6 C    3.906 --   157 C    1.247   162 N    1.245   159 C    1.193
   159   6 C    3.958 --   160 C    1.630   158 C    1.193   186 H    0.974
   160   6 C    3.959 --   159 C    1.630   161 C    1.186   187 H    0.973
   161   6 C    3.913 --   163 C    1.315   162 N    1.209   160 C    1.186
   162   7 N    3.366 --   158 C    1.245   161 C    1.209   137 Fe   0.647
   163   6 C    3.914 --   171 C    1.319   161 C    1.315   164 C    1.041
   164   6 C    3.984 --   170 C    1.375   165 C    1.375   163 C    1.041
   165   6 C    3.986 --   166 C    1.472   164 C    1.375   188 H    0.972
   166   6 C    3.988 --   165 C    1.472   167 C    1.350   189 H    0.972
   167   6 C    3.949 --   166 C    1.350   169 C    1.350   168 N    1.122
   168   7 N    3.138 --   167 C    1.122   191 H    0.932   190 H    0.932
   169   6 C    3.988 --   170 C    1.472   167 C    1.350   192 H    0.972
   170   6 C    3.986 --   169 C    1.472   164 C    1.375   193 H    0.972
   171   6 C    3.913 --   163 C    1.319   175 N    1.205   172 C    1.185
   172   6 C    3.959 --   173 C    1.630   171 C    1.185   194 H    0.972
   173   6 C    3.958 --   172 C    1.630   174 C    1.193   195 H    0.974
   174   6 C    3.905 --   175 N    1.249   138 C    1.243   173 C    1.193
   175   7 N    3.366 --   174 C    1.249   171 C    1.205   137 Fe   0.647
   176   1 H    1.002 --   140 C    0.973
   177   1 H    1.005 --   141 C    0.972
   178   1 H    1.004 --   146 C    0.973
   179   1 H    0.998 --   147 C    0.972
   180   1 H    0.960 --   149 N    0.933
   181   1 H    0.960 --   149 N    0.933
   182   1 H    0.998 --   150 C    0.972
   183   1 H    1.004 --   151 C    0.973
   184   1 H    1.005 --   153 C    0.973
   185   1 H    1.002 --   154 C    0.973
   186   1 H    1.002 --   159 C    0.974
   187   1 H    1.005 --   160 C    0.973
   188   1 H    1.005 --   165 C    0.972
   189   1 H    0.998 --   166 C    0.972
   190   1 H    0.959 --   168 N    0.932
   191   1 H    0.959 --   168 N    0.932
   192   1 H    0.998 --   169 C    0.972
   193   1 H    1.005 --   170 C    0.972
   194   1 H    1.005 --   172 C    0.972
   195   1 H    1.002 --   173 C    0.974
 ---------------------------------------------------------------------------

           -------------------------------------------------
          | TOTAL ENERGY             -336.374971445955 Eh   |
          | GRADIENT NORM               0.000623156585 Eh/α |
          | HOMO-LUMO GAP               0.050978255093 eV   |
           -------------------------------------------------

 * finished run on 2022/07/29 at 19:49:03.985
