   * xtb version 6.5.1 (b24c23e) compiled by 'conda@728c89f4b128' on 2022-07-12
          program call               : xtb Fe_H_C4_2.xyz --gfn 1 --opt -T 48

   ID    Z sym.   atoms
    1   26 Fe     1, 37
    2    6 C      2-6, 8-11, 13-18, 20-24, 38-42, 44-47, 49-54, 56-60, 73-76
    3    7 N      7, 12, 19, 25, 43, 48, 55, 61
    4    1 H      26-36, 62-72
########################################################################
[WARNING] Please study the warnings concerning your input carefully
-1- prog_main_parseArguments: Unknown option '-T' provided
########################################################################

          :  Hamiltonian                  GFN1-xTB          :
 * total energy  :  -136.1110482 Eh     change       -0.9078747E-08 Eh
 * total energy  :  -136.2318671 Eh     change       -0.1208189E+00 Eh
 * total energy  :  -136.2649957 Eh     change       -0.3312856E-01 Eh
 * total energy  :  -136.2897192 Eh     change       -0.2472356E-01 Eh
 * total energy  :  -136.2973716 Eh     change       -0.7652421E-02 Eh
 * total energy  :  -136.3008504 Eh     change       -0.3478715E-02 Eh
 * total energy  :  -136.3034546 Eh     change       -0.2604251E-02 Eh
 * total energy  :  -136.3053761 Eh     change       -0.1921496E-02 Eh
 * total energy  :  -136.3064539 Eh     change       -0.1077751E-02 Eh
 * total energy  :  -136.3074390 Eh     change       -0.9851073E-03 Eh
 * total energy  :  -136.3088206 Eh     change       -0.1637094E-04 Eh
 * total energy  :  -136.3088311 Eh     change       -0.1047919E-04 Eh
 * total energy  :  -136.3088386 Eh     change       -0.7492881E-05 Eh
 * total energy  :  -136.3088446 Eh     change       -0.6085495E-05 Eh
 * total energy  :  -136.3088503 Eh     change       -0.5684801E-05 Eh
 * total energy  :  -136.3088557 Eh     change       -0.5359376E-05 Eh
 * total energy  :  -136.3088610 Eh     change       -0.5324903E-05 Eh
 * total energy  :  -136.3088663 Eh     change       -0.5303557E-05 Eh
 * total energy  :  -136.3088707 Eh     change       -0.4437175E-05 Eh
   *** GEOMETRY OPTIMIZATION CONVERGED AFTER 40 ITERATIONS ***

 final structure:
================
76
 xtb: 6.5.1 (b24c23e)
Fe           7.79952695089066       -0.06102556598400        0.01178626301751
C            4.38896472105547       -0.04210618474716       -0.02918808234830
C            5.04246921415921       -0.88319819478417       -0.90654355560511
C            4.37118184765279       -1.76249598775610       -1.81877843062883
C            5.33357542826628       -2.46764315421936       -2.45842814001806
C            6.59025916863245       -2.01661767231124       -1.93616153335118
N            6.40041789563900       -1.03197499687807       -1.00479500563029
C            7.81035971586517       -2.54478688231356       -2.30914017759179
C            9.02471171035054       -2.11952333841636       -1.81417651305072
C           10.28243207206551       -2.68540965727363       -2.19939013739951
C           11.24014768470973       -1.97982152074269       -1.55119774915314
N            9.21303570327131       -1.08386749106488       -0.93138350332540
C           10.56349005461858       -0.98530295089119       -0.77519120176166
C           11.22938723790012       -0.01423802307552       -0.01874477740792
C           10.55271218868580        0.94669037357394        0.74108880204859
C           11.21915733285897        1.93682714003651        1.53150461790325
C           10.25397734928271        2.62734812305445        2.18470498394107
C            9.00197808635881        2.05647113261285        1.78845271610290
N            9.20051482698621        1.04076448938288        0.88447220942478
C            7.78346596524869        2.46308730048752        2.28847594004313
C            6.56857164622738        1.92860855946203        1.90720166537232
C            5.30704407468484        2.36120154533062        2.43313581037180
C            4.35184041120548        1.66033374981259        1.77796615903641
C            5.03261522320162        0.79968300524901        0.85513286186368
N            6.38833109384501        0.96570469189494        0.95169891882575
H            3.30485566848947       -0.04689078686077       -0.03079680236352
H            3.30027462572283       -1.82043162550219       -1.93344644351446
H            5.22516869223899       -3.23028298351784       -3.21340703985109
H            7.81346639997177       -3.34889886815332       -3.03646622066637
H           10.39701647434586       -3.51417100244453       -2.87986912503064
H           12.31067591753222       -2.10360059033740       -1.58687778489004
H           12.28869411677519        2.06686643874639        1.57406910262020
H           10.36026689644882        3.44573181991799        2.87895965029672
H            7.77873880603060        3.25611511872745        3.02788360629098
H            5.19064158697508        3.10900646815374        3.20164014446838
H            3.28029977254066        1.70671144030825        1.89193936853016
Fe          21.26014776587347        0.03807542457249        0.04966136727110
C           24.67098155650715        0.05089338732108        0.01009658845584
C           24.01791011157183        1.26396943525765       -0.06849209902275
C           24.68980726929064        2.52824946258480       -0.14653595384033
C           23.72759291952784        3.48047952348556       -0.14779173307630
C           22.47047511673826        2.79551293455732       -0.07107326559898
N           22.65992597488129        1.44035455192501       -0.04518468167335
C           21.25017332557267        3.43748808284809        0.00231364095024
C           20.03536719367757        2.79023503357191        0.07801824914505
C           18.77759278186194        3.46875329704384        0.16772601929468
C           17.81959268592617        2.51096477815635        0.17290886040827
N           19.84680042648210        1.43000805804667        0.03743343185675
C           18.49616670875059        1.25259876852633        0.08418606874971
C           17.82998930136310        0.02498267883327       -0.00371211423017
C           18.50620265661411       -1.19778734734302       -0.08190407708690
C           17.83899294168103       -2.46216489637922       -0.15617973740446
C           18.80390125474358       -3.41276552517539       -0.13798427748509
C           20.05649008778614       -2.72389719876624       -0.05445338377252
N           19.85844592137485       -1.36418345829935       -0.04239543390204
C           21.27540905120807       -3.36145602407278        0.03423637798424
C           22.49088772212971       -2.70997593897158        0.10574516485886
C           23.75254687023104       -3.38460977637322        0.19689943419585
C           24.70786731706627       -2.42541268492548        0.18627192200978
C           24.02705159469733       -1.16718567295450        0.09054423485265
N           22.67122176953362       -1.35455349055208        0.05139973320173
H           25.75509078480013        0.05526409578864        0.01344677965753
H           25.76091668415089        2.64810025178222       -0.18796406369713
H           23.83633061123739        4.55269878721790       -0.19129751138146
H           21.24726566671286        4.52174161373931        0.00412987634643
H           18.66320110733223        4.53989515286809        0.21827800368299
H           16.74895544893168        2.62705987849612        0.22653587247811
H           16.76919885802830       -2.58677056583339       -0.20755645648422
H           18.69713820809839       -4.48541603901969       -0.17080760709826
H           21.27994408641633       -4.44564919072454        0.04667166879368
H           23.86889050240612       -4.45524424444054        0.25669459202378
H           25.77951177608499       -2.53680944713148        0.23632023225493
C           13.85541973491175        0.00330677370117       -0.01059532194549
C           12.63262455605048       -0.00792781418845       -0.01610999922010
C           15.20382377535698        0.01064732958534       -0.00712132110035
C           16.42673431364430        0.01925909576047       -0.00786067703400

          :  Hamiltonian                  GFN1-xTB          :
         :: total energy            -136.308870751370 Eh    ::
         :: gradient norm              0.000397714536 Eh/a0 ::
         :: HOMO-LUMO gap              0.107404705657 eV    ::
         :: SCC energy              -138.482934119137 Eh    ::
         :: repulsion energy           2.239006281066 Eh    ::

    * Orbital Energies and Occupations

         #    Occupation            Energy/Eh            Energy/eV
      -------------------------------------------------------------
         1        2.0000           -0.7711388             -20.9838
       ...           ...                  ...                  ...
       115        2.0000           -0.4295300             -11.6881
       116        2.0000           -0.4294671             -11.6864
       117        2.0000           -0.4294474             -11.6859
       118        2.0000           -0.4012652             -10.9190
       119        2.0000           -0.3986600             -10.8481
       120        2.0000           -0.3986502             -10.8478
       121        1.9912           -0.3931063             -10.6970
       122        1.9911           -0.3930887             -10.6965
       123        1.9337           -0.3911570             -10.6439
       124        1.9336           -0.3911554             -10.6439
       125        1.9209           -0.3909830             -10.6392
       126        1.9187           -0.3909551             -10.6384
       127        1.8247           -0.3901777             -10.6173 (HOMO)
       128        0.2807           -0.3862306             -10.5099 (LUMO)
       129        0.2055           -0.3858934             -10.5007
       130                         -0.3400359              -9.2528
       131                         -0.3292974              -8.9606
       132                         -0.3292837              -8.9603
       133                         -0.3278138              -8.9203
       134                         -0.3050443              -8.3007
       135                         -0.3049848              -8.2991
       136                         -0.2985531              -8.1240
       137                         -0.2923421              -7.9550
       138                         -0.2632459              -7.1633
       ...                                ...                  ...
       270                          1.5098727              41.0857
      -------------------------------------------------------------
                  HL-Gap            0.0039471 Eh            0.1074 eV

Wiberg/Mayer (AO) data.
largest (>0.10) Wiberg bond orders for each atom

     #   Z sym  total        # sym  WBO       # sym  WBO       # sym  WBO
 ---------------------------------------------------------------------------
     1  26 Fe   3.189 --     7 N    0.679    25 N    0.676    19 N    0.672
                            12 N    0.669
     2   6 C    3.932 --     3 C    1.365    24 C    1.363    26 H    0.971
     3   6 C    3.924 --     2 C    1.365     7 N    1.213     4 C    1.169
     4   6 C    3.958 --     5 C    1.655     3 C    1.169    27 H    0.975
     5   6 C    3.960 --     4 C    1.655     6 C    1.170    28 H    0.975
     6   6 C    3.921 --     8 C    1.357     7 N    1.217     5 C    1.170
     7   7 N    3.390 --     6 C    1.217     3 C    1.213     1 Fe   0.679
     8   6 C    3.937 --     9 C    1.373     6 C    1.357    29 H    0.970
     9   6 C    3.917 --     8 C    1.373    12 N    1.195    10 C    1.174
    10   6 C    3.956 --    11 C    1.644     9 C    1.174    30 H    0.975
    11   6 C    3.959 --    10 C    1.644    13 C    1.183    31 H    0.973
    12   7 N    3.389 --    13 C    1.246     9 C    1.195     1 Fe   0.669
    13   6 C    3.906 --    14 C    1.256    12 N    1.246    11 C    1.183
    14   6 C    3.933 --    15 C    1.257    13 C    1.256    74 C    1.193
    15   6 C    3.905 --    14 C    1.257    19 N    1.246    16 C    1.183
    16   6 C    3.959 --    17 C    1.644    15 C    1.183    32 H    0.973
    17   6 C    3.956 --    16 C    1.644    18 C    1.174    33 H    0.975
    18   6 C    3.917 --    20 C    1.374    19 N    1.195    17 C    1.174
    19   7 N    3.389 --    15 C    1.246    18 C    1.195     1 Fe   0.672
    20   6 C    3.937 --    18 C    1.374    21 C    1.356    34 H    0.970
    21   6 C    3.921 --    20 C    1.356    25 N    1.216    22 C    1.170
    22   6 C    3.960 --    23 C    1.655    21 C    1.170    35 H    0.975
    23   6 C    3.958 --    22 C    1.655    24 C    1.169    36 H    0.975
    24   6 C    3.924 --     2 C    1.363    25 N    1.214    23 C    1.169
    25   7 N    3.389 --    21 C    1.216    24 C    1.214     1 Fe   0.676
    26   1 H    1.000 --     2 C    0.971
    27   1 H    0.998 --     4 C    0.975
    28   1 H    0.997 --     5 C    0.975
    29   1 H    1.000 --     8 C    0.970
    30   1 H    0.997 --    10 C    0.975
    31   1 H    1.002 --    11 C    0.973
    32   1 H    1.002 --    16 C    0.973
    33   1 H    0.997 --    17 C    0.975
    34   1 H    1.000 --    20 C    0.970
    35   1 H    0.997 --    22 C    0.975
    36   1 H    0.998 --    23 C    0.975
    37  26 Fe   3.187 --    43 N    0.679    61 N    0.676    55 N    0.672
                            48 N    0.669
    38   6 C    3.932 --    39 C    1.364    60 C    1.363    62 H    0.971
    39   6 C    3.924 --    38 C    1.364    43 N    1.213    40 C    1.169
    40   6 C    3.958 --    41 C    1.655    39 C    1.169    63 H    0.975
    41   6 C    3.960 --    40 C    1.655    42 C    1.170    64 H    0.975
    42   6 C    3.921 --    44 C    1.357    43 N    1.217    41 C    1.170
    43   7 N    3.390 --    42 C    1.217    39 C    1.213    37 Fe   0.679
    44   6 C    3.936 --    45 C    1.373    42 C    1.357    65 H    0.970
    45   6 C    3.917 --    44 C    1.373    48 N    1.195    46 C    1.174
    46   6 C    3.956 --    47 C    1.644    45 C    1.174    66 H    0.975
    47   6 C    3.959 --    46 C    1.644    49 C    1.183    67 H    0.973
    48   7 N    3.389 --    49 C    1.246    45 C    1.195    37 Fe   0.669
    49   6 C    3.906 --    50 C    1.256    48 N    1.246    47 C    1.183
    50   6 C    3.933 --    51 C    1.257    49 C    1.256    76 C    1.193
    51   6 C    3.905 --    50 C    1.257    55 N    1.246    52 C    1.183
    52   6 C    3.959 --    53 C    1.644    51 C    1.183    68 H    0.973
    53   6 C    3.956 --    52 C    1.644    54 C    1.174    69 H    0.975
    54   6 C    3.917 --    56 C    1.374    55 N    1.195    53 C    1.174
    55   7 N    3.389 --    51 C    1.246    54 C    1.195    37 Fe   0.672
    56   6 C    3.936 --    54 C    1.374    57 C    1.356    70 H    0.970
    57   6 C    3.921 --    56 C    1.356    61 N    1.217    58 C    1.170
    58   6 C    3.960 --    59 C    1.655    57 C    1.170    71 H    0.975
    59   6 C    3.958 --    58 C    1.655    60 C    1.169    72 H    0.975
    60   6 C    3.924 --    38 C    1.363    61 N    1.214    59 C    1.169
    61   7 N    3.389 --    57 C    1.217    60 C    1.214    37 Fe   0.676
    62   1 H    1.000 --    38 C    0.971
    63   1 H    0.998 --    40 C    0.975
    64   1 H    0.997 --    41 C    0.975
    65   1 H    1.000 --    44 C    0.970
    66   1 H    0.997 --    46 C    0.975
    67   1 H    1.002 --    47 C    0.973
    68   1 H    1.002 --    52 C    0.973
    69   1 H    0.997 --    53 C    0.975
    70   1 H    1.000 --    56 C    0.970
    71   1 H    0.997 --    58 C    0.975
    72   1 H    0.998 --    59 C    0.975
    73   6 C    3.925 --    74 C    2.462    75 C    1.315
    74   6 C    3.916 --    73 C    2.462    14 C    1.193    76 C    0.196
    75   6 C    3.925 --    76 C    2.462    73 C    1.315
    76   6 C    3.915 --    75 C    2.462    50 C    1.193    74 C    0.196
 ---------------------------------------------------------------------------

           -------------------------------------------------
          | TOTAL ENERGY             -136.308870751370 Eh   |
          | GRADIENT NORM               0.000397714536 Eh/α |
          | HOMO-LUMO GAP               0.107404705657 eV   |
           -------------------------------------------------

 * finished run on 2022/07/29 at 15:56:44.940
