   * xtb version 6.5.1 (b24c23e) compiled by 'conda@728c89f4b128' on 2022-07-12
          program call               : xtb Ni_p-CP_C4_3.xyz --gfn 1 --opt -T 48

   ID    Z sym.   atoms
    1   28 Ni     1, 63, 133
    2    6 C      2-6, 8-11, 13-24, 27-32, 35-39, 42, 43, 64-68, 70-73,
                  75-86, 89-94, 97-101, 104, 105, 125-132, 134-138, 140-143,
                  145-156, 159-164, 167-171, 174, 175
    3    7 N      7, 12, 33, 34, 69, 74, 95, 96, 139, 144, 165, 166
    4    8 O      25, 26, 40, 41, 87, 88, 102, 103, 157, 158, 172, 173
    5    1 H      44-62, 106-124, 176-193

          :  Hamiltonian                  GFN1-xTB          :
 * total energy  :  -368.9415097 Eh     change       -0.1389253E-08 Eh
 * total energy  :  -369.1842790 Eh     change       -0.2427694E+00 Eh
 * total energy  :  -369.2768227 Eh     change       -0.9254366E-01 Eh
 * total energy  :  -369.3260449 Eh     change       -0.4922222E-01 Eh
 * total energy  :  -369.3567909 Eh     change       -0.3074602E-01 Eh
 * total energy  :  -369.3881306 Eh     change       -0.3133964E-01 Eh
 * total energy  :  -369.4217900 Eh     change       -0.3365944E-01 Eh
 * total energy  :  -369.4561034 Eh     change       -0.3431337E-01 Eh
 * total energy  :  -369.4840713 Eh     change       -0.2796789E-01 Eh
 * total energy  :  -369.5099325 Eh     change       -0.2586125E-01 Eh
 * total energy  :  -369.7690502 Eh     change       -0.2355992E-04 Eh
 * total energy  :  -369.7690626 Eh     change       -0.1237552E-04 Eh
 * total energy  :  -369.7690751 Eh     change       -0.1250335E-04 Eh
 * total energy  :  -369.7690973 Eh     change       -0.2215413E-04 Eh
 * total energy  :  -369.7691128 Eh     change       -0.1555725E-04 Eh
 * total energy  :  -369.7691207 Eh     change       -0.7905626E-05 Eh
 * total energy  :  -369.7691276 Eh     change       -0.6863309E-05 Eh
 * total energy  :  -369.7691332 Eh     change       -0.5620842E-05 Eh
 * total energy  :  -369.7691361 Eh     change       -0.2943567E-05 Eh
   *** GEOMETRY OPTIMIZATION CONVERGED AFTER 82 ITERATIONS ***

 final structure:
================
193
 xtb: 6.5.1 (b24c23e)
Ni          35.99641103250019       -0.00249673331168        0.01870070715875
C           32.60262669434044        0.06207265150309        0.03801384728140
C           33.25280903333596       -0.11200844770422        1.24163136478465
C           32.57131167166331       -0.26286397216161        2.49114493759896
C           33.52599791897357       -0.34062197112333        3.44673851441623
C           34.79108299545256       -0.23753454367098        2.77917931895542
N           34.61305354903076       -0.11254432147438        1.42409475075950
C           36.00885045959769       -0.16895493089069        3.44222809423762
C           37.21966585456887       -0.01663478878365        2.78070936234542
C           38.48420079619640        0.05715517951529        3.44840493137697
C           39.43260831408487        0.12018777303498        2.48411022128309
N           37.39286264057478        0.00469655143542        1.41561213703388
C           38.74737563288723        0.07145053377693        1.23130405544873
C           39.40974453244954        0.01573968982518        0.00403268135964
C           38.73694576370374       -0.06511079012725       -1.21620001267897
C           39.40913931074547       -0.17717660465054       -2.47182523399555
C           38.45037873202484       -0.16637245470685       -3.42816393575983
C           37.19475881727671       -0.03322712827804       -2.75295738698687
C           35.97676214785987        0.08589805898202       -3.40876230589384
C           35.96649468388163        0.12155559915145       -4.89038361195832
C           35.31518325964709       -0.87853227475400       -5.61681471987148
C           35.30353021922769       -0.84119291637545       -6.99901946124512
C           35.93730678816592        0.19988024193817       -7.68005326312521
C           35.89152069815102        0.20004524759180       -9.16200963117909
O           36.52557748382620        1.24323070160013       -9.71849337502302
O           35.34350150186888       -0.64287143397025       -9.82566196901574
C           36.58751404379625        1.20171602114647       -6.95890473595662
C           36.60316016601501        1.15909453873561       -5.57566717880067
C           34.76664585712489        0.18471856231531       -2.73462233479856
C           33.50296698512909        0.37108958614835       -3.38639501579434
C           32.55854530659846        0.36974797101248       -2.41733584722360
C           33.24581356228297        0.18884117738196       -1.17506869004971
N           34.60132418886553        0.10483879041625       -1.37486596415092
N           37.38072795862660       -0.00596318278882       -1.38972046131553
C           36.01273266596291       -0.24905662235936        4.92341890504132
C           35.63513056141770       -1.43051437205022        5.56565742845837
C           35.63560403859751       -1.50355391715446        6.94661394230719
C           36.00804676603531       -0.39514287330725        7.70942125100761
C           35.98327232323838       -0.51911046817641        9.18676043044817
O           36.35983186475302        0.59880525351829        9.82573540082998
O           35.65856675981760       -1.51585520601289        9.78043001772547
C           36.38514975622757        0.78702152295451        7.07173457317361
C           36.38912806675300        0.85635006725043        5.68933353322407
H           31.51942685908415        0.09521078964416        0.04526265474491
H           31.49916859537930       -0.29462298592127        2.60196928793293
H           33.39922129393030       -0.44199736132447        4.51228265177904
H           38.61878272670987        0.04838432411047        4.51760217465924
H           40.50330727506716        0.17943677775920        2.59433020015983
H           40.47780526610527       -0.25663844191710       -2.58901966610164
H           38.57137701711761       -0.24523196745700       -4.49614515845003
H           34.83062765240825       -1.69240128907425       -5.08954948567724
H           34.80431997000491       -1.61656425780736       -7.56972831386171
H           36.44873780998633        1.17069616956399      -10.68371381191151
H           37.07774677998316        2.01333822412266       -7.48339688641228
H           37.09838048523164        1.94370461701961       -5.01478812666346
H           33.37049938699092        0.49276532594982       -4.44911886707450
H           31.49010066756667        0.47857337567519       -2.51401860982406
H           35.35356353581662       -2.29403854242424        4.97387444627755
H           35.34796823036637       -2.41846089554871        7.45289274406039
H           36.31361241721640        0.43599155585516       10.78196944942005
H           36.67234820723991        1.65033536501661        7.66026527508779
H           36.67130735244262        1.77813967099894        5.19329399055157
Ni          62.85957073449166        0.02001915224124       -0.04164616965403
C           66.25190235875064        0.10224112058910       -0.05660770794146
C           65.60069965920381        0.05643936709679       -1.27147070538043
C           66.28015368100498        0.04224850794432       -2.53106117757911
C           65.32397958462862        0.07009784535855       -3.48803150841600
C           64.05994621760563        0.10229837957688       -2.81136474440085
N           64.24021804144748        0.07568025373511       -1.45107832147066
C           62.84201572445276        0.25592806458152       -3.45998162571581
C           61.63340673551365        0.34291394023481       -2.78259123800298
C           60.36876733627474        0.51076311140176       -3.43270216621178
C           59.42223032428839        0.46327615033936       -2.46549785657648
N           61.46200542032682        0.19876373752228       -1.42464258636669
C           60.10840660957925        0.25182003547063       -1.23027722198929
C           59.44722690701653        0.03320543521526       -0.02028669832145
C           60.12223404571376       -0.21026798796905        1.17723274898488
C           59.45331060996739       -0.49143662473616        2.40781495903620
C           60.41364215985400       -0.59639914087751        3.35698662085813
C           61.66674525354994       -0.36403409683272        2.70439082154242
C           62.88402568818390       -0.30943867896579        3.37008439436552
C           62.89581216394234       -0.45575949061470        4.84481025901036
C           63.56432211569139       -1.52672816456747        5.44332088994540
C           63.57683911423624       -1.65947691357098        6.81963650549018
C           62.92710793636776       -0.72043765275672        7.62298475901599
C           62.97680698727727       -0.90026768147013        9.09396066099520
O           62.32816260613684        0.05722706809752        9.77367616737869
O           63.54023403646630       -1.80872414673253        9.64937078801055
C           62.25929229677944        0.35135735057383        7.02991582027222
C           62.24254507962971        0.47875368296863        5.65190712264380
C           64.09134319550795       -0.11127466661176        2.71281769662906
C           65.35371326254212        0.01426982939176        3.38138898419786
C           66.29654711943252        0.13625115645038        2.41835925863975
C           65.60960260855944        0.09075306787160        1.16359904181621
N           64.25535322516190       -0.02981866233821        1.35302273414654
N           61.47810885105083       -0.16389197949574        1.35598036832562
C           62.83673564982904        0.34468755074663       -4.94065603367457
C           63.20406456479885       -0.75993117853783       -5.71262094892510
C           63.20272672765352       -0.67676795594294       -7.09297253777163
C           62.83967258618712        0.51373627173260       -7.72550547966373
C           62.86158217113470        0.55613139056980       -9.20744399828358
O           62.49511651072780        1.74211104544077       -9.71622120766288
O           63.17567318500802       -0.37094902999546       -9.90981613160988
C           62.47354251419859        1.61977684518364       -6.95803929899594
C           62.47042529257675        1.53278019486954       -5.57659765979125
H           67.33490051446840        0.14182666339011       -0.06116344580781
H           67.35207736651931        0.02183333676164       -2.64656931833083
H           65.44935269815737        0.08585092874608       -4.55844482882671
H           60.23247229501416        0.63535170583973       -4.49444807765813
H           58.35199401993341        0.54577817390426       -2.56486364290927
H           58.38559171927663       -0.59479113251094        2.51452260915843
H           60.29526031445262       -0.81449289124372        4.40572943851585
H           64.06158002320085       -2.26148721223622        4.82037317539208
H           64.08915435673356       -2.49096452453426        7.29111519477819
H           62.40964837993197       -0.12962627050237       10.72302836932694
H           61.75627958678571        1.08411709764114        7.64974181905160
H           61.73356593309914        1.31798896311023        5.19140836448625
H           65.48633364652427        0.01388024383361        4.45105244464075
H           67.36381737356899        0.24574442554776        2.52663284573033
H           63.47840405098520       -1.68708728928853       -5.22242385234336
H           63.48242715690360       -1.53113683929607       -7.69955585178908
H           62.53853224049221        1.68742662597786      -10.68476475265500
H           62.19412722040266        2.54653515121393       -7.44510234517267
H           62.19695358809808        2.39536856564414       -4.97950819822297
C           42.03932770378735        0.03903456776376       -0.00679038839596
C           40.81901681282054        0.02643507599631       -0.00250352085964
C           43.39236711373923        0.04779131504574       -0.01113970403206
C           44.61279809914593        0.05365932574077       -0.01282080785968
C           55.46538199145180        0.05232029251494       -0.00055816625013
C           54.24482078201058        0.05772741829073       -0.00467948987433
C           56.81801401712812        0.04720392342596       -0.00416781174450
C           58.03854534295461        0.04081694554370       -0.01070579211095
Ni          49.42906234638133        0.05600937285309       -0.01328460959935
C           46.02116770870801        0.05529069668376       -0.01415247309125
C           46.69375396076879       -1.15797749280764       -0.17672550186516
C           46.03191993019586       -2.40613803524595       -0.38732803746940
C           46.98734638149062       -3.36593550074110       -0.34051313964846
C           48.22970358784677       -2.70041601855617       -0.08960640276112
N           48.04364931376963       -1.33828170795303       -0.04227328615901
C           49.43023123833372       -3.35512554842690        0.15575857631380
C           50.62933608828067       -2.67778575427647        0.33972469288878
C           51.87061822552725       -3.31395907970841        0.66149816563862
C           52.82523869293404       -2.35297421712144        0.61927161891376
N           50.81486337370675       -1.32687897527472        0.15914463107950
C           52.16407527404317       -1.13281528587797        0.28154700590413
C           52.83700753091509        0.05699554570126       -0.00617506413280
C           52.16411228152195        1.24555057274413       -0.29939441291136
C           52.82591669664664        2.46438195917045       -0.64058124594366
C           51.87078938545753        3.42438601229338       -0.69267805985268
C           50.62868748572534        2.78930906103700       -0.37168355857257
C           49.42899694126763        3.46668050898042       -0.19109038165586
C           49.43034270908528        4.94538717328838       -0.26418963974226
C           50.21500484173023        5.69543551668890        0.61613986227873
C           50.21264967084852        7.07639445597838        0.54949607069147
C           49.43022651951912        7.73356862409387       -0.40196515852580
C           49.46275290403614        9.21557650905411       -0.43519799199253
O           48.67487934963606        9.74867972563967       -1.38101230762629
O           50.12439547585208        9.89790079130060        0.30508916860417
C           48.64768482199880        6.98939676275016       -1.28538816262719
C           48.64726268692638        5.60738999416489       -1.21337019254027
C           48.22901826093604        2.81170002790724        0.05763291383757
C           46.98692455766474        3.47673370225619        0.31092913172778
C           46.03177071806874        2.51656739001575        0.35928272751921
C           46.69356511468005        1.26870993777520        0.14756122270405
N           48.04332268854456        1.44949800655385        0.01135635106291
N           50.81436007312476        1.43924967957906       -0.18411522219229
C           49.43262236531283       -4.83439369011746        0.22173774235795
C           48.65862102138544       -5.50253767826450        1.17423513065621
C           48.66387900031051       -6.88397879886726        1.23267302460445
C           49.43787461192401       -7.62324110374565        0.33621787166286
C           49.40723783694877       -9.10241001834885        0.43558200570099
O           50.18176699892206       -9.71712899317544       -0.47093543074026
O           48.75710018037149       -9.71639030360843        1.24262170799314
C           50.21055464337314       -6.96090868168497       -0.61812467532094
C           50.20889692946800       -5.57806950983079       -0.67077058224581
H           44.97139121146230       -2.51782614504393       -0.54522397461529
H           46.87115552634660       -4.43014407636188       -0.46474977572985
H           51.98623071433174       -4.36057600881701        0.89124076009047
H           53.88487795490994       -2.44719301444438        0.79373931589975
H           53.88628933169093        2.55834178007746       -0.81074850404827
H           51.98697783735979        4.46957981147334       -0.92846066136463
H           50.81337427901689        5.18742343558366        1.36386157568983
H           50.81457891321987        7.66477405289469        1.23331052589265
H           48.75218211629789       10.71559616581360       -1.33680355046101
H           48.04202707866041        7.49525353076548       -2.02798541933341
H           48.04874534998940        5.02889018454269       -1.90803540696622
H           46.87082456469396        4.54077447555339        0.43693545617998
H           44.97147015157520        2.62769507447270        0.51929114346404
H           48.06610950154386       -4.92987362167516        1.87862444185356
H           48.07023921911656       -7.40908948116257        1.97291930832933
H           50.10593375070182      -10.67634888782984       -0.34047055442742
H           50.80997845507224       -7.53085823025107       -1.31808036746055
H           50.80003344780037       -5.06352498728030       -1.41992146112311

          :  Hamiltonian                  GFN1-xTB          :
         :: total energy            -369.769136147242 Eh    ::
         :: gradient norm              0.000552932689 Eh/a0 ::
         :: HOMO-LUMO gap              1.278866263898 eV    ::
         :: SCC energy              -375.120730765849 Eh    ::
         :: repulsion energy           5.525540643406 Eh    ::

    * Orbital Energies and Occupations

         #    Occupation            Energy/Eh            Energy/eV
      -------------------------------------------------------------
         1        2.0000           -0.8348698             -22.7180
       ...           ...                  ...                  ...
       317        2.0000           -0.4080463             -11.1035
       318        2.0000           -0.4080311             -11.1031
       319        2.0000           -0.4075700             -11.0905
       320        2.0000           -0.4074899             -11.0884
       321        2.0000           -0.4072380             -11.0815
       322        2.0000           -0.4072260             -11.0812
       323        2.0000           -0.4061944             -11.0531
       324        2.0000           -0.4061705             -11.0525
       325        2.0000           -0.4061091             -11.0508
       326        2.0000           -0.4060855             -11.0501
       327        2.0000           -0.4021098             -10.9420
       328        2.0000           -0.3998588             -10.8807
       329        2.0000           -0.3961133             -10.7788 (HOMO)
       330                         -0.3491158              -9.4999 (LUMO)
       331                         -0.3433580              -9.3432
       332                         -0.3428881              -9.3305
       333                         -0.3416991              -9.2981
       334                         -0.3409798              -9.2785
       335                         -0.3409714              -9.2783
       336                         -0.3386021              -9.2138
       337                         -0.3383922              -9.2081
       338                         -0.3383819              -9.2078
       339                         -0.3198413              -8.7033
       340                         -0.3157636              -8.5924
       ...                                ...                  ...
       675                          1.5076145              41.0243
      -------------------------------------------------------------
                  HL-Gap            0.0469975 Eh            1.2789 eV

Wiberg/Mayer (AO) data.
largest (>0.10) Wiberg bond orders for each atom

     #   Z sym  total        # sym  WBO       # sym  WBO       # sym  WBO
 ---------------------------------------------------------------------------
     1  28 Ni   3.012 --     7 N    0.665    33 N    0.664    12 N    0.661
                            34 N    0.661
     2   6 C    3.938 --    32 C    1.365     3 C    1.364    44 H    0.970
     3   6 C    3.922 --     2 C    1.364     7 N    1.214     4 C    1.174
     4   6 C    3.960 --     5 C    1.652     3 C    1.174    45 H    0.975
     5   6 C    3.963 --     4 C    1.652     6 C    1.175    46 H    0.973
     6   6 C    3.920 --     8 C    1.325     7 N    1.221     5 C    1.175
     7   7 N    3.404 --     6 C    1.221     3 C    1.214     1 Ni   0.665
     8   6 C    3.940 --     9 C    1.328     6 C    1.325    35 C    1.023
     9   6 C    3.915 --     8 C    1.328    12 N    1.209    10 C    1.182
    10   6 C    3.960 --    11 C    1.639     9 C    1.182    47 H    0.972
    11   6 C    3.962 --    10 C    1.639    13 C    1.188    48 H    0.973
    12   7 N    3.407 --    13 C    1.235     9 C    1.209     1 Ni   0.661
    13   6 C    3.907 --    14 C    1.272    12 N    1.235    11 C    1.188
    14   6 C    3.946 --    13 C    1.272    15 C    1.271   126 C    1.166
    15   6 C    3.907 --    14 C    1.271    34 N    1.235    16 C    1.189
    16   6 C    3.962 --    17 C    1.638    15 C    1.189    49 H    0.973
    17   6 C    3.960 --    16 C    1.638    18 C    1.182    50 H    0.973
    18   6 C    3.915 --    19 C    1.327    34 N    1.209    17 C    1.182
    19   6 C    3.940 --    18 C    1.327    29 C    1.323    20 C    1.028
    20   6 C    3.987 --    28 C    1.387    21 C    1.386    19 C    1.028
    21   6 C    3.988 --    22 C    1.464    20 C    1.386    51 H    0.972
                            27 C    0.103
    22   6 C    3.990 --    21 C    1.464    23 C    1.385    52 H    0.968
                            28 C    0.103
    23   6 C    3.983 --    27 C    1.389    22 C    1.385    24 C    1.009
    24   6 C    3.836 --    26 O    1.690    25 O    1.088    23 C    1.009
    25   8 O    2.097 --    24 C    1.088    53 H    0.838    26 O    0.129
    26   8 O    1.958 --    24 C    1.690    25 O    0.129
    27   6 C    3.991 --    28 C    1.461    23 C    1.389    54 H    0.970
                            21 C    0.103
    28   6 C    3.988 --    27 C    1.461    20 C    1.387    55 H    0.972
                            22 C    0.103
    29   6 C    3.920 --    19 C    1.323    33 N    1.222    30 C    1.175
    30   6 C    3.963 --    31 C    1.651    29 C    1.175    56 H    0.973
    31   6 C    3.960 --    30 C    1.651    32 C    1.174    57 H    0.975
    32   6 C    3.922 --     2 C    1.365    33 N    1.212    31 C    1.174
    33   7 N    3.404 --    29 C    1.222    32 C    1.212     1 Ni   0.664
    34   7 N    3.407 --    15 C    1.235    18 C    1.209     1 Ni   0.661
    35   6 C    3.986 --    43 C    1.389    36 C    1.388     8 C    1.023
    36   6 C    3.988 --    37 C    1.463    35 C    1.388    58 H    0.972
                            42 C    0.103
    37   6 C    3.990 --    36 C    1.463    38 C    1.386    59 H    0.968
                            43 C    0.103
    38   6 C    3.984 --    42 C    1.390    37 C    1.386    39 C    1.009
    39   6 C    3.836 --    41 O    1.690    40 O    1.088    38 C    1.009
    40   8 O    2.097 --    39 C    1.088    60 H    0.838    41 O    0.129
    41   8 O    1.959 --    39 C    1.690    40 O    0.129
    42   6 C    3.991 --    43 C    1.460    38 C    1.390    61 H    0.970
                            36 C    0.103
    43   6 C    3.989 --    42 C    1.460    35 C    1.389    62 H    0.972
                            37 C    0.103
    44   1 H    1.000 --     2 C    0.970
    45   1 H    0.997 --     4 C    0.975
    46   1 H    1.004 --     5 C    0.973
    47   1 H    1.004 --    10 C    0.972
    48   1 H    1.002 --    11 C    0.973
    49   1 H    1.001 --    16 C    0.973
    50   1 H    1.004 --    17 C    0.973
    51   1 H    1.004 --    21 C    0.972
    52   1 H    1.005 --    22 C    0.968
    53   1 H    0.873 --    25 O    0.838
    54   1 H    1.005 --    27 C    0.970
    55   1 H    1.004 --    28 C    0.972
    56   1 H    1.004 --    30 C    0.973
    57   1 H    0.997 --    31 C    0.975
    58   1 H    1.003 --    36 C    0.972
    59   1 H    1.005 --    37 C    0.968
    60   1 H    0.873 --    40 O    0.838
    61   1 H    1.005 --    42 C    0.970
    62   1 H    1.003 --    43 C    0.972
    63  28 Ni   3.013 --    69 N    0.665    95 N    0.665    96 N    0.661
                            74 N    0.661
    64   6 C    3.937 --    94 C    1.365    65 C    1.364   106 H    0.970
    65   6 C    3.922 --    64 C    1.364    69 N    1.213    66 C    1.174
    66   6 C    3.960 --    67 C    1.652    65 C    1.174   107 H    0.975
    67   6 C    3.963 --    66 C    1.652    68 C    1.175   108 H    0.973
    68   6 C    3.920 --    70 C    1.325    69 N    1.221    67 C    1.175
    69   7 N    3.404 --    68 C    1.221    65 C    1.213    63 Ni   0.665
    70   6 C    3.939 --    71 C    1.328    68 C    1.325    97 C    1.023
    71   6 C    3.915 --    70 C    1.328    74 N    1.208    72 C    1.182
    72   6 C    3.960 --    73 C    1.639    71 C    1.182   109 H    0.972
    73   6 C    3.962 --    72 C    1.639    75 C    1.189   110 H    0.973
    74   7 N    3.407 --    75 C    1.235    71 C    1.208    63 Ni   0.661
    75   6 C    3.907 --    76 C    1.271    74 N    1.235    73 C    1.189
    76   6 C    3.945 --    75 C    1.271    77 C    1.270   132 C    1.169
    77   6 C    3.907 --    76 C    1.270    96 N    1.235    78 C    1.189
    78   6 C    3.961 --    79 C    1.638    77 C    1.189   111 H    0.973
    79   6 C    3.960 --    78 C    1.638    80 C    1.182   112 H    0.973
    80   6 C    3.915 --    81 C    1.327    96 N    1.208    79 C    1.182
    81   6 C    3.940 --    80 C    1.327    91 C    1.322    82 C    1.028
    82   6 C    3.987 --    90 C    1.387    83 C    1.386    81 C    1.028
    83   6 C    3.987 --    84 C    1.464    82 C    1.386   113 H    0.972
                            89 C    0.103
    84   6 C    3.990 --    83 C    1.464    85 C    1.385   114 H    0.968
                            90 C    0.103
    85   6 C    3.983 --    89 C    1.389    84 C    1.385    86 C    1.009
    86   6 C    3.836 --    88 O    1.690    87 O    1.088    85 C    1.009
    87   8 O    2.097 --    86 C    1.088   115 H    0.838    88 O    0.129
    88   8 O    1.958 --    86 C    1.690    87 O    0.129
    89   6 C    3.991 --    90 C    1.461    85 C    1.389   116 H    0.970
                            83 C    0.103
    90   6 C    3.988 --    89 C    1.461    82 C    1.387   117 H    0.972
                            84 C    0.103
    91   6 C    3.920 --    81 C    1.322    95 N    1.222    92 C    1.176
    92   6 C    3.963 --    93 C    1.651    91 C    1.176   118 H    0.973
    93   6 C    3.960 --    92 C    1.651    94 C    1.174   119 H    0.975
    94   6 C    3.922 --    64 C    1.365    95 N    1.212    93 C    1.174
    95   7 N    3.404 --    91 C    1.222    94 C    1.212    63 Ni   0.665
    96   7 N    3.407 --    77 C    1.235    80 C    1.208    63 Ni   0.661
    97   6 C    3.986 --   105 C    1.389    98 C    1.388    70 C    1.023
    98   6 C    3.988 --    99 C    1.463    97 C    1.388   120 H    0.972
                           104 C    0.103
    99   6 C    3.990 --    98 C    1.463   100 C    1.386   121 H    0.968
                           105 C    0.103
   100   6 C    3.984 --   104 C    1.390    99 C    1.386   101 C    1.009
   101   6 C    3.836 --   103 O    1.690   102 O    1.088   100 C    1.009
   102   8 O    2.097 --   101 C    1.088   122 H    0.838   103 O    0.129
   103   8 O    1.958 --   101 C    1.690   102 O    0.129
   104   6 C    3.991 --   105 C    1.460   100 C    1.390   123 H    0.970
                            98 C    0.103
   105   6 C    3.988 --   104 C    1.460    97 C    1.389   124 H    0.972
                            99 C    0.103
   106   1 H    1.000 --    64 C    0.970
   107   1 H    0.997 --    66 C    0.975
   108   1 H    1.004 --    67 C    0.973
   109   1 H    1.004 --    72 C    0.972
   110   1 H    1.002 --    73 C    0.973
   111   1 H    1.001 --    78 C    0.973
   112   1 H    1.004 --    79 C    0.973
   113   1 H    1.004 --    83 C    0.972
   114   1 H    1.005 --    84 C    0.968
   115   1 H    0.873 --    87 O    0.838
   116   1 H    1.005 --    89 C    0.970
   117   1 H    1.004 --    90 C    0.972
   118   1 H    1.004 --    92 C    0.973
   119   1 H    0.997 --    93 C    0.975
   120   1 H    1.003 --    98 C    0.972
   121   1 H    1.005 --    99 C    0.968
   122   1 H    0.873 --   102 O    0.838
   123   1 H    1.005 --   104 C    0.970
   124   1 H    1.003 --   105 C    0.972
   125   6 C    3.937 --   126 C    2.498   127 C    1.290
   126   6 C    3.920 --   125 C    2.498    14 C    1.166   128 C    0.197
   127   6 C    3.934 --   128 C    2.497   125 C    1.290
   128   6 C    3.922 --   127 C    2.497   134 C    1.169   126 C    0.197
   129   6 C    3.935 --   130 C    2.494   131 C    1.292
   130   6 C    3.923 --   129 C    2.494   146 C    1.171   132 C    0.198
   131   6 C    3.937 --   132 C    2.495   129 C    1.292
   132   6 C    3.921 --   131 C    2.495    76 C    1.169   130 C    0.198
   133  28 Ni   3.016 --   144 N    0.662   166 N    0.662   139 N    0.662
                           165 N    0.662
   134   6 C    3.938 --   164 C    1.269   135 C    1.269   128 C    1.169
   135   6 C    3.907 --   134 C    1.269   139 N    1.234   136 C    1.190
   136   6 C    3.960 --   137 C    1.636   135 C    1.190   176 H    0.973
   137   6 C    3.961 --   136 C    1.636   138 C    1.184   177 H    0.973
   138   6 C    3.914 --   140 C    1.323   139 N    1.208   137 C    1.184
   139   7 N    3.401 --   135 C    1.234   138 C    1.208   133 Ni   0.662
   140   6 C    3.936 --   138 C    1.323   141 C    1.323   167 C    1.032
   141   6 C    3.914 --   140 C    1.323   144 N    1.208   142 C    1.184
   142   6 C    3.961 --   143 C    1.635   141 C    1.184   178 H    0.973
   143   6 C    3.960 --   142 C    1.635   145 C    1.191   179 H    0.973
   144   7 N    3.401 --   145 C    1.234   141 C    1.208   133 Ni   0.662
   145   6 C    3.906 --   146 C    1.268   144 N    1.234   143 C    1.191
   146   6 C    3.938 --   145 C    1.268   147 C    1.268   130 C    1.171
   147   6 C    3.907 --   146 C    1.268   166 N    1.234   148 C    1.191
   148   6 C    3.960 --   149 C    1.635   147 C    1.191   180 H    0.973
   149   6 C    3.961 --   148 C    1.635   150 C    1.184   181 H    0.973
   150   6 C    3.914 --   151 C    1.323   166 N    1.208   149 C    1.184
   151   6 C    3.936 --   150 C    1.323   161 C    1.323   152 C    1.033
   152   6 C    3.987 --   160 C    1.386   153 C    1.384   151 C    1.033
   153   6 C    3.987 --   154 C    1.464   152 C    1.384   182 H    0.972
                           159 C    0.103
   154   6 C    3.990 --   153 C    1.464   155 C    1.385   183 H    0.968
                           160 C    0.102
   155   6 C    3.982 --   159 C    1.389   154 C    1.385   156 C    1.009
   156   6 C    3.836 --   158 O    1.690   157 O    1.088   155 C    1.009
   157   8 O    2.097 --   156 C    1.088   184 H    0.838   158 O    0.129
   158   8 O    1.958 --   156 C    1.690   157 O    0.129
   159   6 C    3.991 --   160 C    1.462   155 C    1.389   185 H    0.970
                           153 C    0.103
   160   6 C    3.987 --   159 C    1.462   152 C    1.386   186 H    0.972
                           154 C    0.102
   161   6 C    3.914 --   151 C    1.323   165 N    1.208   162 C    1.184
   162   6 C    3.961 --   163 C    1.635   161 C    1.184   187 H    0.973
   163   6 C    3.960 --   162 C    1.635   164 C    1.191   188 H    0.973
   164   6 C    3.907 --   134 C    1.269   165 N    1.233   163 C    1.191
   165   7 N    3.401 --   164 C    1.233   161 C    1.208   133 Ni   0.662
   166   7 N    3.401 --   147 C    1.234   150 C    1.208   133 Ni   0.662
   167   6 C    3.987 --   175 C    1.386   168 C    1.385   140 C    1.032
   168   6 C    3.987 --   169 C    1.464   167 C    1.385   189 H    0.972
                           174 C    0.103
   169   6 C    3.990 --   168 C    1.464   170 C    1.385   190 H    0.968
                           175 C    0.103
   170   6 C    3.982 --   174 C    1.389   169 C    1.385   171 C    1.009
   171   6 C    3.836 --   173 O    1.691   172 O    1.089   170 C    1.009
   172   8 O    2.097 --   171 C    1.089   191 H    0.838   173 O    0.129
   173   8 O    1.959 --   171 C    1.691   172 O    0.129
   174   6 C    3.991 --   175 C    1.461   170 C    1.389   192 H    0.969
                           168 C    0.103
   175   6 C    3.987 --   174 C    1.461   167 C    1.386   193 H    0.972
                           169 C    0.103
   176   1 H    1.001 --   136 C    0.973
   177   1 H    1.003 --   137 C    0.973
   178   1 H    1.003 --   142 C    0.973
   179   1 H    1.001 --   143 C    0.973
   180   1 H    1.001 --   148 C    0.973
   181   1 H    1.003 --   149 C    0.973
   182   1 H    1.004 --   153 C    0.972
   183   1 H    1.005 --   154 C    0.968
   184   1 H    0.873 --   157 O    0.838
   185   1 H    1.005 --   159 C    0.970
   186   1 H    1.004 --   160 C    0.972
   187   1 H    1.004 --   162 C    0.973
   188   1 H    1.001 --   163 C    0.973
   189   1 H    1.004 --   168 C    0.972
   190   1 H    1.005 --   169 C    0.968
   191   1 H    0.873 --   172 O    0.838
   192   1 H    1.005 --   174 C    0.969
   193   1 H    1.004 --   175 C    0.972
 ---------------------------------------------------------------------------

           -------------------------------------------------
          | TOTAL ENERGY             -369.769136147242 Eh   |
          | GRADIENT NORM               0.000552932689 Eh/α |
          | HOMO-LUMO GAP               1.278866263898 eV   |
           -------------------------------------------------

 * finished run on 2022/07/30 at 06:22:26.236
