   * xtb version 6.5.1 (b24c23e) compiled by 'conda@728c89f4b128' on 2022-07-12
          program call               : xtb BSA_C8_2.xyz --gfn 1 --opt -T 48

   ID    Z sym.   atoms
    1    6 C      1-5, 7-11, 16-20, 22-27, 29-33, 38-43, 66-70, 72-76, 81-85,
                  87-92, 94-98, 103-108, 131-138
    2    7 N      6, 21, 28, 44, 71, 86, 93, 109
    3   16 S      12, 34, 77, 99
    4    8 O      13-15, 35-37, 78-80, 100-102
    5    1 H      45-65, 110-130
########################################################################
[WARNING] Please study the warnings concerning your input carefully
-1- prog_main_parseArguments: Unknown option '-T' provided
########################################################################

          :  Hamiltonian                  GFN1-xTB          :
 * total energy  :  -270.4502589 Eh     change       -0.6843948E-09 Eh
 * total energy  :  -270.7355993 Eh     change       -0.2853404E+00 Eh
 * total energy  :  -270.8265302 Eh     change       -0.9093084E-01 Eh
 * total energy  :  -270.8605007 Eh     change       -0.3397055E-01 Eh
 * total energy  :  -270.8742568 Eh     change       -0.1375609E-01 Eh
 * total energy  :  -270.8828778 Eh     change       -0.8620976E-02 Eh
 * total energy  :  -270.8871401 Eh     change       -0.4262317E-02 Eh
 * total energy  :  -270.8883180 Eh     change       -0.1177941E-02 Eh
 * total energy  :  -270.8915023 Eh     change       -0.3184264E-02 Eh
 * total energy  :  -270.8931360 Eh     change       -0.1633736E-02 Eh
 * total energy  :  -270.9109063 Eh     change       -0.2006611E-04 Eh
 * total energy  :  -270.9109207 Eh     change       -0.1437280E-04 Eh
 * total energy  :  -270.9109295 Eh     change       -0.8781694E-05 Eh
 * total energy  :  -270.9109383 Eh     change       -0.8816532E-05 Eh
 * total energy  :  -270.9109456 Eh     change       -0.7324218E-05 Eh
 * total energy  :  -270.9109532 Eh     change       -0.7571084E-05 Eh
 * total energy  :  -270.9109598 Eh     change       -0.6650486E-05 Eh
 * total energy  :  -270.9109636 Eh     change       -0.3792401E-05 Eh
 * total energy  :  -270.9109680 Eh     change       -0.4316966E-05 Eh
   *** GEOMETRY OPTIMIZATION CONVERGED AFTER 85 ITERATIONS ***

 final structure:
================
138
 xtb: 6.5.1 (b24c23e)
C           10.20865400445567       -0.05946649896514        0.09080339051443
C           10.80592603155906       -1.27112785585346       -0.23116929838589
C           10.14371836819267       -2.50399221148519       -0.49106838861363
C           11.09535373249816       -3.44040531469707       -0.78078371347406
C           12.36974565678911       -2.80696380020894       -0.71624635317393
N           12.14490321413266       -1.50484159406639       -0.37187168308154
C           13.62641245086866       -3.38373713526537       -0.93238226193910
C           13.64173303276316       -4.81399303525710       -1.32367676106544
C           13.01731258136311       -5.22891549971028       -2.50285863983048
C           13.02997104127396       -6.56332285335609       -2.87386454736341
C           13.66798713528597       -7.47664982294819       -2.05022954428674
S           13.69186700480870       -9.16622825818267       -2.51752438336698
O           13.54241446190676       -9.30977063129732       -3.93636029080164
O           12.29549435193498       -9.62405132407098       -1.82451906389280
O           14.76892351398573       -9.85347967992584       -1.86926714172370
C           14.29712929422371       -7.09606186269871       -0.87605041206663
C           14.28187903444110       -5.75840231952626       -0.51703480269736
C           14.84942085363805       -2.71958090117027       -0.80821000416997
C           16.13677860345366       -3.32803339894722       -1.09341983474824
C           17.06756409285372       -2.38136578549264       -0.85458553125180
N           15.01853414500222       -1.42362622933683       -0.42797760865659
C           16.34720269706153       -1.19426248526110       -0.43624656288806
C           16.99847345444440        0.00740259558533       -0.09079098866709
C           16.37586205036581        1.21662415036424        0.27343207111175
C           17.03361189132203        2.42206747938031        0.63499567439548
C           16.07652778360292        3.36144793450564        0.90161161594294
C           14.80349521321379        2.75826467678290        0.70332618009531
N           15.03625983312898        1.46060158053855        0.33307540548161
C           13.54642506320848        3.34722584247901        0.87833300482856
C           13.52988946908900        4.78072556710230        1.25550376994157
C           14.08770460530008        5.73938065073408        0.40541333597458
C           14.07104110412023        7.08068729314142        0.75024993684106
C           13.49775642802478        7.45014874375280        1.95625614569548
S           13.46959122349786        9.14685832067186        2.39623383608478
O           13.55209064388560        9.97702716298481        1.23062630297093
O           14.89779168845616        9.21170417533395        3.16754516866762
O           12.43299172604188        9.40941400119555        3.35075063476465
C           12.93615212657638        6.52367277290799        2.81979484333661
C           12.95319651346650        5.18566910644547        2.46215371713096
C           12.32192012191743        2.68846126568046        0.72572426642358
C           11.02289885252716        3.32936196771105        0.86501571628123
C           10.09980301085373        2.37151723107616        0.64814612950129
C           10.83315565682812        1.15018171785240        0.36386185849804
N           12.16828512307198        1.38093130034079        0.41060152905261
H            9.12401712309310       -0.06730169655813        0.12714790463895
H            9.07531582093141       -2.64403128614795       -0.45243959072164
H           10.93505868578451       -4.48138218608484       -1.01009871915340
H           12.87576618862406       -0.81404427611713       -0.23822122898890
H           12.53610159505731       -4.49683995404691       -3.14093093966478
H           12.55949002168315       -6.89359435550990       -3.79146055139097
H           12.05704659790072      -10.51337527208436       -2.11331022000369
H           14.79100050789575       -7.83578050828632       -0.25862236296210
H           14.75807598252264       -5.44133593586862        0.40334383940372
H           16.28629623174768       -4.33685356589425       -1.44232135331351
H           18.13887450447563       -2.45125297908325       -0.95357470527890
H           18.10342400220509        2.54407744674967        0.68644814454535
H           16.23535070751758        4.37916821458954        1.21871106798888
H           14.30662311674122        0.78223740200553        0.14044929646329
H           14.51922419565852        5.43115203024310       -0.53979384521509
H           14.48928631623213        7.83291994262122        0.09327632129134
H           15.05765170458201       10.10228878088780        3.50281124173608
H           12.49188096940981        6.84804591492784        3.75240768281157
H           12.52956235370023        4.44365556821623        3.12877310569250
H           10.86402115135016        4.37274624185843        1.08479180523443
H            9.02447530822447        2.45427542315946        0.66254695077365
C           35.53153167711712       -0.00079920292408        0.10856648336367
C           34.93386789099006        1.19592912792958        0.48162885636373
C           35.59562760255937        2.37749503925316        0.91977445833249
C           34.64378966630281        3.32450997621757        1.17192427148617
C           33.36973284549094        2.75441446420352        0.88685450278529
N           33.59492629038222        1.46893006158665        0.48505005879533
C           32.11306335417063        3.35825101971186        1.00882373373507
C           32.09783282181200        4.77744971716046        1.43828341504949
C           32.72613233214914        5.75532229054713        0.66266355149892
C           32.71414052300710        7.08257248533506        1.05849106825636
C           32.07268451259646        7.41863149075618        2.23968355230143
S           32.04894786161743        9.09798995472118        2.74247981415860
O           32.20348875113993        9.97392059277137        1.61775542983968
O           33.44229263102923        9.11620126284311        3.57790946814003
O           30.96869080661177        9.33621256774529        3.65287580881471
C           31.43948170481095        6.47255788814628        3.02920991881909
C           31.45429470659047        5.14888815800478        2.62162160090933
C           30.89022613268622        2.73005936975989        0.75920882646953
C           29.60280864024669        3.39703169278715        0.83968570549546
C           28.67225793384009        2.46798740393433        0.53875539769159
N           30.72142526726697        1.43011974995366        0.39256204258747
C           29.39286418545875        1.23999606505913        0.26322089974572
C           28.74173494231796        0.03804067599830       -0.08166102240107
C           29.36453749363776       -1.17984274135267       -0.41531323504575
C           28.70717039086420       -2.39378680268432       -0.74777783525944
C           29.66452829670831       -3.33068645133048       -1.02211326135070
C           30.93735742038206       -2.71329839611891       -0.87214427517951
N           30.70422756897005       -1.41730019166461       -0.49639894008051
C           32.19459242345344       -3.30435979914371       -1.03918488313946
C           32.21098591121763       -4.71883031698402       -1.48223731955592
C           31.64889236318388       -5.07914339750185       -2.70985376322465
C           31.66468369587852       -6.39851021500948       -3.13097793580189
C           32.24156007329078       -7.35229848405152       -2.30814400576978
S           32.26976375907036       -9.02312530354656       -2.83796466205927
O           32.17875935684982       -9.10643526503062       -4.26598576640669
O           30.84665397683002       -9.49141781878650       -2.21015839062061
O           33.31202385788740       -9.75076586291767       -2.17587389624553
C           32.80768084014565       -7.02636798333819       -1.08635404242256
C           32.79128940243541       -5.70305585815065       -0.67775159037388
C           33.41900517096678       -2.66469760055222       -0.81929674716170
C           34.71820111822096       -3.28047814761986       -1.04417393267726
C           35.64105883589686       -2.35420425323460       -0.71713168802789
C           34.90739978740446       -1.16973816953570       -0.30597428937163
N           33.57232062945594       -1.39035532653708       -0.38908003013030
H           36.61613856924836       -0.01346464635040        0.14443019370602
H           36.66386213127525        2.47516182203961        1.02893743467128
H           34.80370592847886        4.32751251169844        1.53292654006321
H           32.86440965766690        0.81312990911896        0.22912544120142
H           33.20989370251683        5.47431961402768       -0.26558839187215
H           33.18780561546294        7.84967864581005        0.45883437241257
H           33.68164062889107       10.02319752118473        3.80431142524544
H           30.94291545674075        6.77107281727495        3.94387982790581
H           30.97509922376506        4.39145735733039        3.23076195608875
H           29.45283289729768        4.43708126887953        1.07970697713525
H           27.60098751560299        2.57982416894687        0.49135534590227
H           27.63744437462014       -2.52549603778016       -0.76715429422786
H           29.50596401873553       -4.36165907331984       -1.29316206522976
H           31.43366029477084       -0.73971222316918       -0.30035723377875
H           31.21451134846248       -4.31582236663009       -3.34492786969153
H           31.24283911871826       -6.68655047361262       -4.08570796146619
H           30.68765948933812      -10.42442965374380       -2.39805801741557
H           33.25488228537895       -7.79670969865156       -0.47074065573897
H           33.21841907311460       -5.42874980946439        0.27972849132670
H           34.87732793954111       -4.28013187132480       -1.41506896231547
H           36.71641053116905       -2.43136480097186       -0.74962931241341
C           18.40362948941806        0.01396545775698       -0.10895028627115
C           19.62835423511862        0.02434591053799       -0.11027762027937
C           20.97056417353451        0.02857861311168       -0.11514013560291
C           22.20143437925627        0.03219782981335       -0.11685978157143
C           23.53889717593989        0.03523106508503       -0.11544904143232
C           24.76967605438180        0.03757143509242       -0.11304780733833
C           26.11187209346585        0.03689976020635       -0.10740362117734
C           27.33657917442657        0.04213649217448       -0.09940186164195

          :  Hamiltonian                  GFN1-xTB          :
         :: total energy            -270.910967958141 Eh    ::
         :: gradient norm              0.000685738941 Eh/a0 ::
         :: HOMO-LUMO gap              1.040964360886 eV    ::
         :: SCC energy              -274.732365163066 Eh    ::
         :: repulsion energy           3.938938858175 Eh    ::

    * Orbital Energies and Occupations

         #    Occupation            Energy/Eh            Energy/eV
      -------------------------------------------------------------
         1        2.0000           -1.0360697             -28.1929
       ...           ...                  ...                  ...
       221        2.0000           -0.4383412             -11.9279
       222        2.0000           -0.4371254             -11.8948
       223        2.0000           -0.4363846             -11.8746
       224        2.0000           -0.4336465             -11.8001
       225        2.0000           -0.4335919             -11.7986
       226        2.0000           -0.4317943             -11.7497
       227        2.0000           -0.4317422             -11.7483
       228        2.0000           -0.4281601             -11.6508
       229        2.0000           -0.4211416             -11.4598
       230        2.0000           -0.4157440             -11.3130
       231        2.0000           -0.4154926             -11.3061
       232        2.0000           -0.4040829             -10.9957
       233        2.0000           -0.3957426             -10.7687 (HOMO)
       234                         -0.3574879              -9.7277 (LUMO)
       235                         -0.3504552              -9.5364
       236                         -0.3497243              -9.5165
       237                         -0.3472453              -9.4490
       238                         -0.3227314              -8.7820
       239                         -0.3184918              -8.6666
       240                         -0.3138484              -8.5402
       241                         -0.3091053              -8.4112
       242                         -0.3090193              -8.4088
       243                         -0.3076007              -8.3702
       244                         -0.3022598              -8.2249
       ...                                ...                  ...
       488                          1.5928282              43.3431
      -------------------------------------------------------------
                  HL-Gap            0.0382547 Eh            1.0410 eV

Wiberg/Mayer (AO) data.
largest (>0.10) Wiberg bond orders for each atom

     #   Z sym  total        # sym  WBO       # sym  WBO       # sym  WBO
 ---------------------------------------------------------------------------
     1   6 C    3.927 --    43 C    1.367     2 C    1.347    45 H    0.970
     2   6 C    3.900 --     1 C    1.347     3 C    1.228     6 N    1.169
     3   6 C    3.954 --     4 C    1.597     2 C    1.228    46 H    0.976
     4   6 C    3.959 --     3 C    1.597     5 C    1.232    47 H    0.974
     5   6 C    3.898 --     7 C    1.302     4 C    1.232     6 N    1.179
     6   7 N    3.470 --     5 C    1.179     2 C    1.169    48 H    0.873
     7   6 C    3.937 --    18 C    1.333     5 C    1.302     8 C    1.031
     8   6 C    3.986 --     9 C    1.390    17 C    1.390     7 C    1.031
     9   6 C    3.986 --    10 C    1.451     8 C    1.390    49 H    0.971
                            16 C    0.105
    10   6 C    3.989 --     9 C    1.451    11 C    1.407    50 H    0.967
                            17 C    0.106
    11   6 C    3.929 --    16 C    1.407    10 C    1.407    12 S    0.754
    12  16 S    5.264 --    15 O    1.724    13 O    1.716    14 O    1.012
                            11 C    0.754
    13   8 O    2.074 --    12 S    1.716    15 O    0.139
    14   8 O    2.087 --    12 S    1.012    51 H    0.828
    15   8 O    2.082 --    12 S    1.724    13 O    0.139
    16   6 C    3.989 --    17 C    1.450    11 C    1.407    52 H    0.967
                             9 C    0.105
    17   6 C    3.987 --    16 C    1.450     8 C    1.390    53 H    0.971
                            10 C    0.106
    18   6 C    3.914 --     7 C    1.333    21 N    1.287    19 C    1.124
    19   6 C    3.965 --    20 C    1.711    18 C    1.124    54 H    0.973
    20   6 C    3.963 --    19 C    1.711    22 C    1.127    55 H    0.974
    21   7 N    3.022 --    22 C    1.343    18 C    1.287
    22   6 C    3.906 --    21 N    1.343    23 C    1.254    20 C    1.127
    23   6 C    3.939 --    22 C    1.254    24 C    1.251   131 C    1.193
    24   6 C    3.883 --    23 C    1.251    25 C    1.249    28 N    1.188
    25   6 C    3.959 --    26 C    1.584    24 C    1.249    56 H    0.974
    26   6 C    3.954 --    25 C    1.584    27 C    1.240    57 H    0.974
    27   6 C    3.899 --    29 C    1.307    26 C    1.240    28 N    1.167
    28   7 N    3.475 --    24 C    1.188    27 C    1.167    58 H    0.872
    29   6 C    3.923 --    40 C    1.321    27 C    1.307    30 C    1.032
    30   6 C    3.986 --    31 C    1.390    39 C    1.390    29 C    1.032
    31   6 C    3.985 --    32 C    1.451    30 C    1.390    59 H    0.971
                            38 C    0.106
    32   6 C    3.989 --    31 C    1.451    33 C    1.407    60 H    0.967
                            39 C    0.106
    33   6 C    3.929 --    38 C    1.407    32 C    1.407    34 S    0.754
    34  16 S    5.264 --    35 O    1.720    37 O    1.719    36 O    1.012
                            33 C    0.754
    35   8 O    2.078 --    34 S    1.720    37 O    0.139
    36   8 O    2.087 --    34 S    1.012    61 H    0.828
    37   8 O    2.078 --    34 S    1.719    35 O    0.139
    38   6 C    3.989 --    39 C    1.450    33 C    1.407    62 H    0.967
                            31 C    0.106
    39   6 C    3.986 --    38 C    1.450    30 C    1.390    63 H    0.971
                            32 C    0.106
    40   6 C    3.929 --    29 C    1.321    44 N    1.318    41 C    1.116
    41   6 C    3.967 --    42 C    1.725    40 C    1.116    64 H    0.973
    42   6 C    3.966 --    41 C    1.725    43 C    1.115    65 H    0.975
    43   6 C    3.927 --     1 C    1.367    44 N    1.299    42 C    1.115
    44   7 N    3.012 --    40 C    1.318    43 C    1.299
    45   1 H    1.001 --     1 C    0.970
    46   1 H    0.997 --     3 C    0.976
    47   1 H    1.003 --     4 C    0.974
    48   1 H    0.986 --     6 N    0.873
    49   1 H    1.003 --     9 C    0.971
    50   1 H    0.999 --    10 C    0.967
    51   1 H    0.854 --    14 O    0.828
    52   1 H    0.999 --    16 C    0.967
    53   1 H    1.003 --    17 C    0.971
    54   1 H    1.004 --    19 C    0.973
    55   1 H    1.002 --    20 C    0.974
    56   1 H    1.001 --    25 C    0.974
    57   1 H    1.003 --    26 C    0.974
    58   1 H    0.987 --    28 N    0.872
    59   1 H    1.003 --    31 C    0.971
    60   1 H    0.999 --    32 C    0.967
    61   1 H    0.854 --    36 O    0.828
    62   1 H    0.999 --    38 C    0.967
    63   1 H    1.003 --    39 C    0.971
    64   1 H    1.004 --    41 C    0.973
    65   1 H    0.998 --    42 C    0.975
    66   6 C    3.927 --   108 C    1.367    67 C    1.347   110 H    0.970
    67   6 C    3.900 --    66 C    1.347    68 C    1.228    71 N    1.169
    68   6 C    3.954 --    69 C    1.597    67 C    1.228   111 H    0.976
    69   6 C    3.959 --    68 C    1.597    70 C    1.232   112 H    0.974
    70   6 C    3.898 --    72 C    1.302    69 C    1.232    71 N    1.179
    71   7 N    3.470 --    70 C    1.179    67 C    1.169   113 H    0.873
    72   6 C    3.937 --    83 C    1.333    70 C    1.302    73 C    1.031
    73   6 C    3.986 --    82 C    1.390    74 C    1.390    72 C    1.031
    74   6 C    3.986 --    75 C    1.451    73 C    1.390   114 H    0.971
                            81 C    0.105
    75   6 C    3.989 --    74 C    1.451    76 C    1.407   115 H    0.967
                            82 C    0.106
    76   6 C    3.929 --    81 C    1.407    75 C    1.407    77 S    0.754
    77  16 S    5.264 --    80 O    1.724    78 O    1.715    79 O    1.012
                            76 C    0.754
    78   8 O    2.074 --    77 S    1.715    80 O    0.139
    79   8 O    2.087 --    77 S    1.012   116 H    0.828
    80   8 O    2.082 --    77 S    1.724    78 O    0.139
    81   6 C    3.989 --    82 C    1.450    76 C    1.407   117 H    0.967
                            74 C    0.105
    82   6 C    3.987 --    81 C    1.450    73 C    1.390   118 H    0.971
                            75 C    0.106
    83   6 C    3.914 --    72 C    1.333    86 N    1.287    84 C    1.124
    84   6 C    3.965 --    85 C    1.711    83 C    1.124   119 H    0.973
    85   6 C    3.963 --    84 C    1.711    87 C    1.127   120 H    0.974
    86   7 N    3.022 --    87 C    1.343    83 C    1.287
    87   6 C    3.906 --    86 N    1.343    88 C    1.254    85 C    1.127
    88   6 C    3.939 --    87 C    1.254    89 C    1.251   138 C    1.193
    89   6 C    3.883 --    88 C    1.251    90 C    1.249    93 N    1.188
    90   6 C    3.959 --    91 C    1.584    89 C    1.249   121 H    0.974
    91   6 C    3.954 --    90 C    1.584    92 C    1.240   122 H    0.974
    92   6 C    3.899 --    94 C    1.307    91 C    1.240    93 N    1.167
    93   7 N    3.475 --    89 C    1.188    92 C    1.167   123 H    0.872
    94   6 C    3.923 --   105 C    1.321    92 C    1.307    95 C    1.032
    95   6 C    3.986 --    96 C    1.390   104 C    1.389    94 C    1.032
    96   6 C    3.985 --    97 C    1.450    95 C    1.390   124 H    0.971
                           103 C    0.106
    97   6 C    3.989 --    96 C    1.450    98 C    1.407   125 H    0.967
                           104 C    0.106
    98   6 C    3.929 --   103 C    1.407    97 C    1.407    99 S    0.754
    99  16 S    5.264 --   100 O    1.720   102 O    1.719   101 O    1.013
                            98 C    0.754
   100   8 O    2.078 --    99 S    1.720   102 O    0.139
   101   8 O    2.087 --    99 S    1.013   126 H    0.828
   102   8 O    2.078 --    99 S    1.719   100 O    0.139
   103   6 C    3.989 --   104 C    1.450    98 C    1.407   127 H    0.967
                            96 C    0.106
   104   6 C    3.986 --   103 C    1.450    95 C    1.389   128 H    0.971
                            97 C    0.106
   105   6 C    3.929 --    94 C    1.321   109 N    1.318   106 C    1.116
   106   6 C    3.967 --   107 C    1.725   105 C    1.116   129 H    0.973
   107   6 C    3.966 --   106 C    1.725   108 C    1.115   130 H    0.975
   108   6 C    3.927 --    66 C    1.367   109 N    1.299   107 C    1.115
   109   7 N    3.012 --   105 C    1.318   108 C    1.299
   110   1 H    1.001 --    66 C    0.970
   111   1 H    0.997 --    68 C    0.976
   112   1 H    1.003 --    69 C    0.974
   113   1 H    0.986 --    71 N    0.873
   114   1 H    1.003 --    74 C    0.971
   115   1 H    0.999 --    75 C    0.967
   116   1 H    0.854 --    79 O    0.828
   117   1 H    0.999 --    81 C    0.967
   118   1 H    1.003 --    82 C    0.971
   119   1 H    1.004 --    84 C    0.973
   120   1 H    1.002 --    85 C    0.974
   121   1 H    1.001 --    90 C    0.974
   122   1 H    1.003 --    91 C    0.974
   123   1 H    0.987 --    93 N    0.872
   124   1 H    1.003 --    96 C    0.971
   125   1 H    0.999 --    97 C    0.967
   126   1 H    0.854 --   101 O    0.828
   127   1 H    0.999 --   103 C    0.967
   128   1 H    1.003 --   104 C    0.971
   129   1 H    1.004 --   106 C    0.973
   130   1 H    0.998 --   107 C    0.975
   131   6 C    3.878 --   132 C    2.437    23 C    1.193   134 C    0.186
   132   6 C    3.933 --   131 C    2.437   133 C    1.346
   133   6 C    3.892 --   134 C    2.334   132 C    1.346   136 C    0.182
   134   6 C    3.924 --   133 C    2.334   135 C    1.371   131 C    0.186
   135   6 C    3.924 --   136 C    2.334   134 C    1.371   138 C    0.186
   136   6 C    3.892 --   135 C    2.334   137 C    1.346   133 C    0.182
   137   6 C    3.933 --   138 C    2.437   136 C    1.346
   138   6 C    3.878 --   137 C    2.437    88 C    1.193   135 C    0.186
 ---------------------------------------------------------------------------

           -------------------------------------------------
          | TOTAL ENERGY             -270.910967958141 Eh   |
          | GRADIENT NORM               0.000685738941 Eh/α |
          | HOMO-LUMO GAP               1.040964360886 eV   |
           -------------------------------------------------

 * finished run on 2022/07/30 at 20:30:12.734
