   * xtb version 6.5.1 (b24c23e) compiled by 'conda@728c89f4b128' on 2022-07-12
          program call               : xtb Py_C10_2.xyz --gfn 1 --opt -T 48

   ID    Z sym.   atoms
    1    6 C      1-5, 7-10, 12-16, 18-23, 25-28, 30-35, 56-60, 62-65, 67-71,
                  73-78, 80-83, 85-90, 111-120
    2    7 N      6, 11, 17, 24, 29, 36, 61, 66, 72, 79, 84, 91
    3    1 H      37-55, 92-110
########################################################################
[WARNING] Please study the warnings concerning your input carefully
-1- prog_main_parseArguments: Unknown option '-T' provided
########################################################################

          :  Hamiltonian                  GFN1-xTB          :
 * total energy  :  -203.7077586 Eh     change       -0.9158612E-09 Eh
 * total energy  :  -206.0750782 Eh     change       -0.2367320E+01 Eh
 * total energy  :  -206.2441576 Eh     change       -0.1690793E+00 Eh
 * total energy  :  -206.3019361 Eh     change       -0.5777851E-01 Eh
 * total energy  :  -206.3207695 Eh     change       -0.1883341E-01 Eh
 * total energy  :  -206.3323245 Eh     change       -0.1155497E-01 Eh
 * total energy  :  -206.3398819 Eh     change       -0.7557454E-02 Eh
 * total energy  :  -206.3451581 Eh     change       -0.5276149E-02 Eh
 * total energy  :  -206.3484303 Eh     change       -0.3272248E-02 Eh
 * total energy  :  -206.3506169 Eh     change       -0.2186612E-02 Eh
 * total energy  :  -206.3650197 Eh     change       -0.5784017E-04 Eh
 * total energy  :  -206.3650208 Eh     change       -0.1139159E-05 Eh
 * total energy  :  -206.3649779 Eh     change        0.4285838E-04 Eh
 * total energy  :  -206.3650254 Eh     change       -0.4746426E-04 Eh
 * total energy  :  -206.3650163 Eh     change        0.9147369E-05 Eh
 * total energy  :  -206.3650331 Eh     change       -0.1683341E-04 Eh
 * total energy  :  -206.3650272 Eh     change        0.5872145E-05 Eh
 * total energy  :  -206.3650395 Eh     change       -0.1223374E-04 Eh
 * total energy  :  -206.3650401 Eh     change       -0.6321567E-06 Eh
   *** GEOMETRY OPTIMIZATION CONVERGED AFTER 54 ITERATIONS ***

 final structure:
================
120
 xtb: 6.5.1 (b24c23e)
C            5.25720940272407        0.08091076869836        0.03344430275760
C            5.86992815523796        1.30533094475798        0.26644534106551
C            5.22229000109400        2.55229017988892        0.49292995008795
C            6.18784172082034        3.49866892220046        0.69052510389451
C            7.45677182048181        2.85832545925465        0.59943709220289
N            7.21422573801627        1.54077045982927        0.33383353235334
C            8.72222169527326        3.44241007920078        0.72617886278806
C            8.75689600971534        4.89059056881820        1.03960621076633
C            9.35304389206743        5.80579932232153        0.17263950257902
C            9.35776919983741        7.15045535557140        0.50802457248950
N            8.81964655347983        7.61946905445357        1.62931865218686
C            8.25152204889539        6.75375833789886        2.46247883547751
C            8.19286924944494        5.39176722205360        2.21238274181852
C            9.93660467863083        2.76770160197673        0.58211133511802
C           11.23589055145960        3.38746484547336        0.77189115030058
C           12.15441910601134        2.42526143631893        0.54817616704051
N           10.08795432247410        1.45075077012262        0.27056383451526
C           11.41507668063421        1.21794009246978        0.23355584484246
C           12.04967670144041       -0.00585612499675       -0.06395229803140
C           11.41016736123088       -1.23134453620492       -0.33130907867146
C           12.04973983183130       -2.46059604696385       -0.64170690188834
C           11.07987055158683       -3.40874840220801       -0.81500815337674
C            9.81707031073262       -2.78721452271025       -0.60839026235486
N           10.06855607864785       -1.47031077945365       -0.32730386161613
C            8.55320641678472       -3.37949067346504       -0.70043968354226
C            8.51826520798797       -4.83198070926634       -0.99085266083615
C            9.10107332641988       -5.75771074575536       -0.12570769430591
C            9.04027329949041       -7.10662355107065       -0.43800217933381
N            8.45324022886786       -7.57003868156643       -1.53672201615931
C            7.89766723034898       -6.69436821796704       -2.36820507068066
C            7.90203453352108       -5.32747699688489       -2.13957209135809
C            7.33776829223866       -2.70616151172279       -0.53883396984684
C            6.03292078267149       -3.34725620428886       -0.59393068573122
C            5.12099881154348       -2.37509129000613       -0.39266739481892
C            5.86762520950264       -1.14381324707202       -0.20231934827614
N            7.19929777678261       -1.38264422517879       -0.28939715568881
H            4.17195517423137        0.09106541278254        0.04296761108616
H            4.15336566759260        2.69420844779733        0.49647418099291
H            6.04044698924825        4.55045090604503        0.87464636271573
H            7.93670551177036        0.84075475745963        0.20263737715348
H            9.79284834553925        5.47063353939320       -0.75906748508763
H            9.81262998359825        7.88226507406258       -0.15310717484231
H            7.82411876379810        7.16638984785738        3.37169694640782
H            7.73130020798712        4.72202267300217        2.92830706515649
H           11.40101718265387        4.41511430510533        1.05195269010250
H           13.22919394717381        2.49742307414353        0.59419770267757
H           13.11663696160309       -2.59155407703003       -0.72401924504381
H           11.22265995571192       -4.44534697533117       -1.07305915962349
H            9.34971444819613       -0.77686495680098       -0.14838635708125
H            9.57911868991261       -5.42735852727021        0.78888499633762
H            9.48211772124080       -7.84629234516608        0.22330320601563
H            7.42831280800133       -7.10321098883949       -3.25824054604800
H            7.44757602801346       -4.65004638236377       -2.85263241923148
H            5.86347788131275       -4.39996777664929       -0.75307808881234
H            4.04558307329298       -2.45350152811990       -0.36106602233222
C           33.15093994037368       -0.08670906870943       -0.00536299297042
C           32.53813921201250       -1.28207420944927       -0.35819056513782
C           33.18569663505480       -2.49486704843189       -0.72621834426631
C           32.22004921649363       -3.42639338561768       -0.98455730265616
C           30.95112697538886       -2.81470816389974       -0.77430352889575
N           31.19379491377687       -1.52171363045477       -0.40742399528255
C           29.68565744571285       -3.39143865582416       -0.93084649346367
C           29.65098892237057       -4.82238793548861       -1.31546422324147
C           29.05733548017056       -5.23871457502621       -2.50662072195026
C           29.05250165301892       -6.58772062777891       -2.82408602365180
N           29.58825413168534       -7.51838748031425       -2.04071330145390
C           30.15394541476550       -7.13055673800184       -0.90230764164856
C           30.21249398263443       -5.80522939286682       -0.50095180637904
C           28.47125887475432       -2.72532046269804       -0.75140673521780
C           27.17194906257436       -3.36277620072800       -0.86851437459163
C           26.25339324327466       -2.40504055313552       -0.62652059822563
N           28.31986935382290       -1.41207881207104       -0.42459982246212
C           26.99272946787032       -1.18812955080511       -0.35127570346311
C           26.35811116967665        0.03564607102707       -0.05371878692492
C           26.99765088474774        1.24711774027692        0.27121621075426
C           26.35811991118631        2.48156167636017        0.56036192881315
C           27.32809759603064        3.40371287314050        0.84044914208447
C           28.59092928402035        2.75694292399150        0.73740999773179
N           28.33933350271412        1.45782293594213        0.38318007898785
C           29.85485148277781        3.32584908282212        0.92558064322448
C           29.88989776107898        4.75010558712645        1.33259253696750
C           29.30956320066583        5.17646565891958        2.52696100916239
C           29.37040229487411        6.51865805864627        2.86699223947647
N           29.95519429431830        7.43412992038458        2.10117427798714
C           30.50838726704713        7.03681537409003        0.95970684149391
C           30.50379679928081        5.71698697743931        0.53695082445846
C           31.07031933681182        2.65359104451703        0.75992500418252
C           32.37517265677500        3.24920226026305        1.00337435718500
C           33.28713618022079        2.29266812234562        0.73772088782395
C           32.54053488251438        1.11045014666463        0.34442726136009
N           31.20884218893581        1.36251545669742        0.37648476833527
H           34.23618711472015       -0.10032426031064       -0.00092860834437
H           34.25464071558375       -2.62318708869668       -0.78659291229586
H           32.36737125456365       -4.44602098768008       -1.30161734741199
H           30.47140699797970       -0.83888348398969       -0.20466981244631
H           28.61953894195041       -4.51389949553191       -3.18249655756681
H           28.59970511197167       -6.93534210144526       -3.74802223330092
H           30.57942885064443       -7.91393795398806       -0.28189804995211
H           30.67207041787804       -5.53782698485315        0.44321504517388
H           27.00683193254820       -4.40429647876371       -1.09151767944229
H           25.17859259618253       -2.49006275631368       -0.61975130711849
H           25.29117460391479        2.63545836645599        0.54847310026495
H           27.18536883674650        4.44308416781727        1.08714128883123
H           29.05810526777228        0.75966172467931        0.22333859699343
H           28.83341441200558        4.46364424040984        3.18976132653956
H           28.93062552167125        6.87305582860662        3.79470343317618
H           30.97582457206522        7.80816214613044        0.35461854697597
H           30.95627837724340        5.44157576812425       -0.40819860041893
H           32.54456849045849        4.25832402609471        1.34281308687797
H           34.36256833591267        2.34812432670897        0.80124958208536
C           13.45414840338107       -0.01574298763176       -0.09446280381973
C           14.67920871978015       -0.01621217152183       -0.11278672232973
C           16.02039050487469       -0.00842971059763       -0.12690326362376
C           17.25220750044915        0.00706778750719       -0.13629426363879
C           18.58712327578181        0.02456894751026       -0.14041399948255
C           19.82065781502454        0.04182467573938       -0.13690401603391
C           21.15556737602781        0.05634771792665       -0.12589486237210
C           22.38740124205012        0.06649564761550       -0.11117951757430
C           23.72857860872477        0.06616251247218       -0.09422194934016
C           24.95357046376660        0.05742372354752       -0.07273471483697

          :  Hamiltonian                  GFN1-xTB          :
         :: total energy            -206.365040091238 Eh    ::
         :: gradient norm              0.000486000835 Eh/a0 ::
         :: HOMO-LUMO gap              1.032236165835 eV    ::
         :: SCC energy              -209.912600125151 Eh    ::
         :: repulsion energy           3.647120042769 Eh    ::

    * Orbital Energies and Occupations

         #    Occupation            Energy/Eh            Energy/eV
      -------------------------------------------------------------
         1        2.0000           -0.8103272             -22.0501
       ...           ...                  ...                  ...
       177        2.0000           -0.4232909             -11.5183
       178        2.0000           -0.4217339             -11.4760
       179        2.0000           -0.4216617             -11.4740
       180        2.0000           -0.4211144             -11.4591
       181        2.0000           -0.4211106             -11.4590
       182        2.0000           -0.4205268             -11.4431
       183        2.0000           -0.4204757             -11.4417
       184        2.0000           -0.4148716             -11.2892
       185        2.0000           -0.4070310             -11.0759
       186        2.0000           -0.4049940             -11.0204
       187        2.0000           -0.4047051             -11.0126
       188        2.0000           -0.3921860             -10.6719
       189        2.0000           -0.3850290             -10.4772 (HOMO)
       190                         -0.3470950              -9.4449 (LUMO)
       191                         -0.3394073              -9.2357
       192                         -0.3380207              -9.1980
       193                         -0.3373864              -9.1808
       194                         -0.3138668              -8.5408
       195                         -0.3123946              -8.5007
       196                         -0.3038613              -8.2685
       197                         -0.2913462              -7.9279
       198                         -0.2827696              -7.6946
       199                         -0.2826935              -7.6925
       200                         -0.2805213              -7.6334
       ...                                ...                  ...
       404                          1.6153702              43.9565
      -------------------------------------------------------------
                  HL-Gap            0.0379340 Eh            1.0322 eV

Wiberg/Mayer (AO) data.
largest (>0.10) Wiberg bond orders for each atom

     #   Z sym  total        # sym  WBO       # sym  WBO       # sym  WBO
 ---------------------------------------------------------------------------
     1   6 C    3.925 --    35 C    1.367     2 C    1.347    37 H    0.971
     2   6 C    3.902 --     1 C    1.347     3 C    1.229     6 N    1.169
     3   6 C    3.954 --     4 C    1.596     2 C    1.229    38 H    0.976
     4   6 C    3.959 --     3 C    1.596     5 C    1.234    39 H    0.974
     5   6 C    3.897 --     7 C    1.302     4 C    1.234     6 N    1.178
     6   7 N    3.470 --     5 C    1.178     2 C    1.169    40 H    0.873
     7   6 C    3.939 --    14 C    1.336     5 C    1.302     8 C    1.030
     8   6 C    3.986 --    13 C    1.392     9 C    1.392     7 C    1.030
                            11 N    0.106
     9   6 C    3.987 --    10 C    1.442     8 C    1.392    41 H    0.973
                            12 C    0.108
    10   6 C    3.972 --     9 C    1.442    11 N    1.415    42 H    0.972
                            13 C    0.108
    11   7 N    3.029 --    12 C    1.416    10 C    1.415     8 C    0.106
    12   6 C    3.972 --    13 C    1.442    11 N    1.416    43 H    0.972
                             9 C    0.108
    13   6 C    3.986 --    12 C    1.442     8 C    1.392    44 H    0.973
                            10 C    0.108
    14   6 C    3.914 --     7 C    1.336    17 N    1.285    15 C    1.124
    15   6 C    3.965 --    16 C    1.711    14 C    1.124    45 H    0.973
    16   6 C    3.964 --    15 C    1.711    18 C    1.127    46 H    0.974
    17   7 N    3.022 --    18 C    1.346    14 C    1.285
    18   6 C    3.906 --    17 N    1.346    19 C    1.252    16 C    1.127
    19   6 C    3.938 --    18 C    1.252    20 C    1.251   111 C    1.194
    20   6 C    3.883 --    19 C    1.251    21 C    1.248    24 N    1.189
    21   6 C    3.959 --    22 C    1.584    20 C    1.248    47 H    0.975
    22   6 C    3.954 --    21 C    1.584    23 C    1.240    48 H    0.974
    23   6 C    3.899 --    25 C    1.309    22 C    1.240    24 N    1.165
    24   7 N    3.474 --    20 C    1.189    23 C    1.165    49 H    0.873
    25   6 C    3.925 --    32 C    1.320    23 C    1.309    26 C    1.031
    26   6 C    3.986 --    27 C    1.392    31 C    1.392    25 C    1.031
                            29 N    0.106
    27   6 C    3.986 --    28 C    1.442    26 C    1.392    50 H    0.973
                            30 C    0.108
    28   6 C    3.972 --    27 C    1.442    29 N    1.415    51 H    0.972
                            31 C    0.108
    29   7 N    3.029 --    28 C    1.415    30 C    1.415    26 C    0.106
    30   6 C    3.972 --    31 C    1.442    29 N    1.415    52 H    0.972
                            27 C    0.108
    31   6 C    3.986 --    30 C    1.442    26 C    1.392    53 H    0.973
                            28 C    0.108
    32   6 C    3.929 --    25 C    1.320    36 N    1.318    33 C    1.117
    33   6 C    3.967 --    34 C    1.724    32 C    1.117    54 H    0.973
    34   6 C    3.966 --    33 C    1.724    35 C    1.116    55 H    0.976
    35   6 C    3.928 --     1 C    1.367    36 N    1.300    34 C    1.116
    36   7 N    3.012 --    32 C    1.318    35 C    1.300
    37   1 H    1.002 --     1 C    0.971
    38   1 H    0.997 --     3 C    0.976
    39   1 H    1.004 --     4 C    0.974
    40   1 H    0.986 --     6 N    0.873
    41   1 H    1.004 --     9 C    0.973
    42   1 H    1.013 --    10 C    0.972
    43   1 H    1.013 --    12 C    0.972
    44   1 H    1.004 --    13 C    0.973
    45   1 H    1.004 --    15 C    0.973
    46   1 H    1.002 --    16 C    0.974
    47   1 H    1.002 --    21 C    0.975
    48   1 H    1.004 --    22 C    0.974
    49   1 H    0.987 --    24 N    0.873
    50   1 H    1.004 --    27 C    0.973
    51   1 H    1.013 --    28 C    0.972
    52   1 H    1.013 --    30 C    0.972
    53   1 H    1.004 --    31 C    0.973
    54   1 H    1.005 --    33 C    0.973
    55   1 H    0.998 --    34 C    0.976
    56   6 C    3.925 --    90 C    1.367    57 C    1.347    92 H    0.971
    57   6 C    3.902 --    56 C    1.347    58 C    1.229    61 N    1.169
    58   6 C    3.954 --    59 C    1.596    57 C    1.229    93 H    0.976
    59   6 C    3.959 --    58 C    1.596    60 C    1.234    94 H    0.974
    60   6 C    3.897 --    62 C    1.302    59 C    1.234    61 N    1.178
    61   7 N    3.470 --    60 C    1.178    57 C    1.169    95 H    0.873
    62   6 C    3.939 --    69 C    1.336    60 C    1.302    63 C    1.030
    63   6 C    3.986 --    68 C    1.392    64 C    1.392    62 C    1.030
                            66 N    0.106
    64   6 C    3.987 --    65 C    1.442    63 C    1.392    96 H    0.973
                            67 C    0.108
    65   6 C    3.972 --    64 C    1.442    66 N    1.415    97 H    0.972
                            68 C    0.108
    66   7 N    3.029 --    67 C    1.416    65 C    1.415    63 C    0.106
    67   6 C    3.972 --    68 C    1.442    66 N    1.416    98 H    0.972
                            64 C    0.108
    68   6 C    3.986 --    67 C    1.442    63 C    1.392    99 H    0.973
                            65 C    0.108
    69   6 C    3.914 --    62 C    1.336    72 N    1.285    70 C    1.124
    70   6 C    3.965 --    71 C    1.711    69 C    1.124   100 H    0.973
    71   6 C    3.964 --    70 C    1.711    73 C    1.127   101 H    0.974
    72   7 N    3.022 --    73 C    1.346    69 C    1.285
    73   6 C    3.906 --    72 N    1.346    74 C    1.252    71 C    1.127
    74   6 C    3.938 --    73 C    1.252    75 C    1.251   120 C    1.194
    75   6 C    3.883 --    74 C    1.251    76 C    1.248    79 N    1.189
    76   6 C    3.959 --    77 C    1.584    75 C    1.248   102 H    0.975
    77   6 C    3.954 --    76 C    1.584    78 C    1.240   103 H    0.974
    78   6 C    3.899 --    80 C    1.309    77 C    1.240    79 N    1.165
    79   7 N    3.474 --    75 C    1.189    78 C    1.165   104 H    0.873
    80   6 C    3.925 --    87 C    1.320    78 C    1.309    81 C    1.031
    81   6 C    3.986 --    82 C    1.392    86 C    1.392    80 C    1.031
                            84 N    0.106
    82   6 C    3.986 --    83 C    1.442    81 C    1.392   105 H    0.973
                            85 C    0.108
    83   6 C    3.972 --    82 C    1.442    84 N    1.415   106 H    0.972
                            86 C    0.108
    84   7 N    3.029 --    83 C    1.415    85 C    1.415    81 C    0.106
    85   6 C    3.972 --    86 C    1.442    84 N    1.415   107 H    0.972
                            82 C    0.108
    86   6 C    3.986 --    85 C    1.442    81 C    1.392   108 H    0.973
                            83 C    0.108
    87   6 C    3.929 --    80 C    1.320    91 N    1.318    88 C    1.117
    88   6 C    3.967 --    89 C    1.724    87 C    1.117   109 H    0.973
    89   6 C    3.966 --    88 C    1.724    90 C    1.116   110 H    0.976
    90   6 C    3.928 --    56 C    1.367    91 N    1.300    89 C    1.116
    91   7 N    3.012 --    87 C    1.318    90 C    1.300
    92   1 H    1.002 --    56 C    0.971
    93   1 H    0.997 --    58 C    0.976
    94   1 H    1.004 --    59 C    0.974
    95   1 H    0.986 --    61 N    0.873
    96   1 H    1.004 --    64 C    0.973
    97   1 H    1.013 --    65 C    0.972
    98   1 H    1.013 --    67 C    0.972
    99   1 H    1.004 --    68 C    0.973
   100   1 H    1.004 --    70 C    0.973
   101   1 H    1.002 --    71 C    0.974
   102   1 H    1.002 --    76 C    0.975
   103   1 H    1.004 --    77 C    0.974
   104   1 H    0.987 --    79 N    0.873
   105   1 H    1.004 --    82 C    0.973
   106   1 H    1.013 --    83 C    0.972
   107   1 H    1.013 --    85 C    0.972
   108   1 H    1.004 --    86 C    0.973
   109   1 H    1.005 --    88 C    0.973
   110   1 H    0.998 --    89 C    0.976
   111   6 C    3.871 --   112 C    2.431    19 C    1.194   114 C    0.184
   112   6 C    3.932 --   111 C    2.431   113 C    1.351
   113   6 C    3.879 --   114 C    2.319   112 C    1.351   116 C    0.178
   114   6 C    3.924 --   113 C    2.319   115 C    1.385   111 C    0.184
   115   6 C    3.892 --   116 C    2.296   114 C    1.385   118 C    0.178
   116   6 C    3.892 --   115 C    2.296   117 C    1.385   113 C    0.178
   117   6 C    3.924 --   118 C    2.319   116 C    1.385   120 C    0.184
   118   6 C    3.879 --   117 C    2.319   119 C    1.351   115 C    0.178
   119   6 C    3.932 --   120 C    2.431   118 C    1.351
   120   6 C    3.871 --   119 C    2.431    74 C    1.194   117 C    0.184
 ---------------------------------------------------------------------------

           -------------------------------------------------
          | TOTAL ENERGY             -206.365040091238 Eh   |
          | GRADIENT NORM               0.000486000835 Eh/α |
          | HOMO-LUMO GAP               1.032236165835 eV   |
           -------------------------------------------------

 * finished run on 2022/07/27 at 18:34:25.519
