   * xtb version 6.5.1 (b24c23e) compiled by 'conda@728c89f4b128' on 2022-07-12
          program call               : xtb Co_Ph3OH_C8_2.xyz --gfn 1 --opt -T 48

   ID    Z sym.   atoms
    1   27 Co     1, 63
    2    6 C      2-6, 8-11, 13, 15, 17-20, 22-27, 29-32, 34, 36, 38-42,
                  64-68, 70-73, 75, 77, 79-82, 84-89, 91-94, 96, 98, 100-104,
                  125-132
    3    7 N      7, 21, 28, 43, 69, 83, 90, 105
    4    8 O      12, 14, 16, 33, 35, 37, 74, 76, 78, 95, 97, 99
    5    1 H      44-62, 106-124
########################################################################
[WARNING] Please study the warnings concerning your input carefully
-1- prog_main_parseArguments: Unknown option '-T' provided
########################################################################

          :  Hamiltonian                  GFN1-xTB          :
 * total energy  :  -260.9620155 Eh     change        0.6642722E-09 Eh
 * total energy  :  -261.3105319 Eh     change       -0.3485165E+00 Eh
 * total energy  :  -261.4143956 Eh     change       -0.1038637E+00 Eh
 * total energy  :  -261.4613967 Eh     change       -0.4700112E-01 Eh
 * total energy  :  -261.4815623 Eh     change       -0.2016555E-01 Eh
 * total energy  :  -261.4920800 Eh     change       -0.1051769E-01 Eh
 * total energy  :  -261.4975352 Eh     change       -0.5455261E-02 Eh
 * total energy  :  -261.4997535 Eh     change       -0.2218267E-02 Eh
 * total energy  :  -261.5013179 Eh     change       -0.1564409E-02 Eh
 * total energy  :  -261.5025151 Eh     change       -0.1197174E-02 Eh
 * total energy  :  -261.5072239 Eh     change       -0.3379090E-04 Eh
 * total energy  :  -261.5072742 Eh     change       -0.5037215E-04 Eh
 * total energy  :  -261.5073075 Eh     change       -0.3330470E-04 Eh
 * total energy  :  -261.5072819 Eh     change        0.2566757E-04 Eh
 * total energy  :  -261.5073152 Eh     change       -0.3333153E-04 Eh
 * total energy  :  -261.5073300 Eh     change       -0.1476364E-04 Eh
 * total energy  :  -261.5073365 Eh     change       -0.6516125E-05 Eh
 * total energy  :  -261.5073498 Eh     change       -0.1333291E-04 Eh
 * total energy  :  -261.5073542 Eh     change       -0.4426540E-05 Eh
   *** GEOMETRY OPTIMIZATION CONVERGED AFTER 61 ITERATIONS ***

 final structure:
================
132
 xtb: 6.5.1 (b24c23e)
Co          13.46062394132532        0.06159870707639        0.07946994169121
C           10.09226483409367        0.08602374774333        0.26803091380423
C           10.73697943339618        1.27145611765977       -0.01123140259218
C           10.05818585017748        2.51381985382763       -0.22151339187508
C           11.01348814900821        3.46896095955823       -0.30048622650359
C           12.27573878816778        2.80841535881649       -0.13716412498446
N           12.09708950598865        1.45361064895502       -0.01096344878239
C           13.47862961209481        3.47478441335118        0.04983216095072
C           13.48367641384194        4.95922782739652        0.06021697242538
C           13.19481007048456        5.66906496756617       -1.10427973621629
C           13.20245780707628        7.05935121683726       -1.09072701562402
O           12.93162226884023        7.76144226860972       -2.21760222552903
C           13.49034187179348        7.74170189748872        0.09249733954234
O           13.48557972434089        9.11183418127250        0.07631162970632
C           13.77363816002158        7.03082149236796        1.25586293266929
O           14.04116828829678        7.76960872241412        2.37814502586372
C           13.77591471458159        5.64132140674019        1.24368832203144
C           14.67128365684476        2.79716232462234        0.25047394444890
C           15.93342166100053        3.44216833977194        0.45343489336747
C           16.87793521497433        2.47169309523647        0.42664231776699
N           14.84182845526110        1.43623773136881        0.13015441059898
C           16.19216909327905        1.24002220687772        0.19627838568211
C           16.85150679770511        0.03672253702675       -0.06843606711758
C           16.15722459150703       -1.15191643906839       -0.30856538194971
C           16.80506761370723       -2.38663545856088       -0.61846726372114
C           15.84186052377827       -3.33867336666973       -0.62570664022088
C           14.60726679051360       -2.68094207800694       -0.31872294633018
N           14.80909005580844       -1.32618968724796       -0.17265128471074
C           13.42647801060191       -3.34986602935330       -0.03703864442097
C           13.40911735405002       -4.83285180062621       -0.09564220986239
C           13.21323063906512       -5.57768617564802        1.06666681292905
C           13.20140425662112       -6.96668388339887        1.00875483836064
O           13.01965277756698       -7.70216989961169        2.13232623514229
C           13.37781822290205       -7.61314077243704       -0.21582281646925
O           13.35744222372277       -8.98290815865602       -0.24226233058039
C           13.56982086210473       -6.86755497178107       -1.37615811864506
O           13.73175208417907       -7.57209695189223       -2.53997757662861
C           13.59057338382602       -5.47924916047521       -1.32058164621274
C           12.26163208276879       -2.67573548048419        0.30431923665781
C           11.01930824562975       -3.32355047175583        0.60870550554831
C           10.08229036924831       -2.35146932755581        0.70127411518583
C           10.74998811944637       -1.11248286226437        0.44153934746346
N           12.09234647688155       -1.31581764574840        0.24237112414244
H            9.01129030636848        0.09450774669704        0.34427895638763
H            8.98689193519556        2.62172352536924       -0.28194307687851
H           10.88872977750091        4.53112576675319       -0.43474572287521
H           12.98117090698969        5.14908664716503       -2.02910927649067
H           12.98755055368419        8.70842508773125       -2.00803366931909
H           13.70099468035603        9.42230102318969        0.97017191099119
H           14.22055423622896        7.19512645933921        3.13393344150819
H           13.98533421132137        5.09310559219625        2.15465985663856
H           16.07033177293179        4.50376098422499        0.57958502732773
H           17.94673893346849        2.56718684088315        0.53057094024253
H           17.86372217458135       -2.49624691390172       -0.79022328474902
H           15.95072881883928       -4.39736543248518       -0.79584243997661
H           13.08874867225892       -5.08640901050440        2.02297913888401
H           13.04482587634786       -8.64236604859595        1.88905536935943
H           13.49353339665514       -9.26639431408195       -1.16044218371508
H           13.85649480652495       -6.97506651279630       -3.28940519630379
H           13.72895567281746       -4.90400228764878       -2.22846234412134
H           10.89077769472999       -4.38818673097095        0.71681315950148
H            9.02745076536207       -2.44573165769537        0.90469668622676
Co          31.97991208186090       -0.06744072197094        0.02263001853484
C           35.34734609235890       -0.11465134525854        0.23956755407321
C           34.70193319458358       -1.26168645261910       -0.16930610292615
C           35.37977252699628       -2.47169451917295       -0.52212853012194
C           34.42437708731325       -3.41344636822154       -0.70071944483118
C           33.16290877352625       -2.77705939228794       -0.45629963899383
N           33.34251682760459       -1.44636666861228       -0.17412265633867
C           31.96049316432127       -3.46072755116819       -0.33824942017847
C           31.95498182563523       -4.93666448214279       -0.49579340924072
C           32.24910436213185       -5.51021462930807       -1.73200594690970
C           32.24016307298580       -6.89298828677028       -1.87663890639946
O           32.51644617319606       -7.46281069221540       -3.07464910640835
C           31.94491037724424       -7.70500078479750       -0.78030954235298
O           31.94765821553588       -9.06440136363797       -0.95228076916810
C           31.65624454754960       -7.13045762376771        0.45485777659493
O           31.38122737107669       -7.99153617472489        1.48432376437678
C           31.65607603146048       -5.74862258664735        0.60090396418372
C           30.76879175815721       -2.80986260252167       -0.05970415722767
C           29.50686599048761       -3.47412748081004        0.07026346684528
C           28.56157276360462       -2.50750065592385        0.14917367563535
N           30.59780415898645       -1.44372144741730       -0.02243049447660
C           29.24658298543424       -1.25734808310047        0.05740624356596
C           28.58614281268460       -0.03281395706364       -0.07115153104763
C           29.27960116316065        1.17594849499728       -0.17507977159586
C           28.63155049080923        2.43766105176436       -0.34264994993000
C           29.59396325792790        3.38492221181290       -0.23724077903405
C           30.82852522615488        2.69690859977367       -0.00619020653788
N           30.62633719385309        1.33472507086054       -0.01135379248861
C           32.00990033550122        3.32903229664456        0.34943936879641
C           32.02762315912010        4.80919326857984        0.45928417795440
C           32.22200153965025        5.41803462452878        1.69841577509963
C           32.23499904935247        6.80471216809498        1.79740668576496
O           32.41523857469632        7.40874776783986        2.99703824764406
C           32.06162430390784        7.58522207084860        0.65314702301877
O           32.08346302471556        8.94924094846969        0.78113874005362
C           31.87120384190771        6.97532701960852       -0.58414693927578
O           31.71256180749647        7.80680910244397       -1.66150554560116
C           31.84891540346509        5.58963207406118       -0.68536486376163
C           33.17552974155124        2.62057533086224        0.60691381698170
C           34.41884595686739        3.23053023915399        0.97849406162861
C           35.35721925230185        2.25590893113163        0.95240409416757
C           34.68929276729877        1.05441896403596        0.55376034180174
N           33.34431399800881        1.27573903771291        0.39317187020141
H           36.42876113237290       -0.12979779219967        0.30794900880146
H           36.45061618858950       -2.57069755533174       -0.60248984728606
H           34.54949409047999       -4.45375089748080       -0.95337922817961
H           32.46751597874930       -4.88900039255421       -2.59092568924789
H           32.45828729553968       -8.42738373658843       -2.97450799778037
H           31.72642512794746       -9.47400625949134       -0.10076169798701
H           31.19740491792852       -7.50625326757002        2.29931190309185
H           31.44296421084172       -5.30733637054693        1.56740012669979
H           29.37031272318138       -4.54318990359059        0.07680223872337
H           27.49275353543108       -2.61482019507778        0.24057083040152
H           27.57315822922038        2.56561761225281       -0.50312086664797
H           29.48464335170717        4.45606564874474       -0.28567836324513
H           32.34468308721816        4.82189142830494        2.59335906308709
H           32.39133637901597        8.37037633753460        2.86117164913885
H           31.94972326828297        9.33440149454670       -0.09958168438839
H           31.58981033472135        7.29832766627682       -2.47392369131454
H           31.71157150670113        5.12046163734246       -1.65248181744007
H           34.54644799985594        4.27558101903043        1.20932055535433
H           36.41320693658359        2.32762797248161        1.15901422054832
C           18.25305011821340        0.02424600997993       -0.10214628444602
C           19.47802980491437        0.01434255267617       -0.12506782949774
C           20.81902626964517        0.00585869871980       -0.14251996714309
C           22.05060125528854        0.00249898453783       -0.15091277282540
C           23.38692178607005       -0.00317794494980       -0.15091355855119
C           24.61850738438393       -0.00525423629581       -0.14265393003183
C           25.95953765637656       -0.01273970896435       -0.12597664978945
C           27.18457895953620       -0.01788937119334       -0.10400908172700

          :  Hamiltonian                  GFN1-xTB          :
         :: total energy            -261.507354235759 Eh    ::
         :: gradient norm              0.000454968450 Eh/a0 ::
         :: HOMO-LUMO gap              0.005774356481 eV    ::
         :: SCC energy              -265.120440161726 Eh    ::
         :: repulsion energy           3.727198295558 Eh    ::

    * Orbital Energies and Occupations

         #    Occupation            Energy/Eh            Energy/eV
      -------------------------------------------------------------
         1        2.0000           -0.8135437             -22.1376
       ...           ...                  ...                  ...
       216        2.0000           -0.4120508             -11.2125
       217        2.0000           -0.4107202             -11.1763
       218        2.0000           -0.3981824             -10.8351
       219        2.0000           -0.3980102             -10.8304
       220        2.0000           -0.3965711             -10.7912
       221        2.0000           -0.3964792             -10.7887
       222        2.0000           -0.3947754             -10.7424
       223        1.9998           -0.3931771             -10.6989
       224        1.9998           -0.3931101             -10.6971
       225        1.9998           -0.3930764             -10.6962
       226        1.9998           -0.3930174             -10.6945
       227        1.8572           -0.3867855             -10.5250
       228        1.1273           -0.3845915             -10.4653 (HOMO)
       229        1.0163           -0.3843793             -10.4595 (LUMO)
       230                         -0.3406988              -9.2709
       231                         -0.3302819              -8.9874
       232                         -0.3285695              -8.9408
       233                         -0.3283870              -8.9359
       234                         -0.3044418              -8.2843
       235                         -0.3037102              -8.2644
       236                         -0.2958473              -8.0504
       237                         -0.2956736              -8.0457
       238                         -0.2935485              -7.9879
       239                         -0.2772556              -7.5445
       ...                                ...                  ...
       462                          1.6012538              43.5723
      -------------------------------------------------------------
                  HL-Gap            0.0002122 Eh            0.0058 eV

Wiberg/Mayer (AO) data.
largest (>0.10) Wiberg bond orders for each atom

     #   Z sym  total        # sym  WBO       # sym  WBO       # sym  WBO
 ---------------------------------------------------------------------------
     1  27 Co   3.042 --     7 N    0.640    43 N    0.637    28 N    0.634
                            21 N    0.632
     2   6 C    3.928 --     3 C    1.365    42 C    1.365    44 H    0.970
     3   6 C    3.924 --     2 C    1.365     7 N    1.202     4 C    1.174
     4   6 C    3.960 --     5 C    1.651     3 C    1.174    45 H    0.975
     5   6 C    3.963 --     4 C    1.651     6 C    1.175    46 H    0.973
     6   6 C    3.919 --     8 C    1.323     7 N    1.211     5 C    1.175
     7   7 N    3.345 --     6 C    1.211     3 C    1.202     1 Co   0.640
     8   6 C    3.932 --    18 C    1.334     6 C    1.323     9 C    1.020
     9   6 C    3.988 --    10 C    1.402    17 C    1.389     8 C    1.020
    10   6 C    3.977 --     9 C    1.402    11 C    1.378    47 H    0.970
    11   6 C    3.917 --    10 C    1.378    13 C    1.324    12 O    1.053
    12   8 O    2.049 --    11 C    1.053    48 H    0.847
    13   6 C    3.905 --    15 C    1.341    11 C    1.324    14 O    1.021
    14   8 O    2.021 --    13 C    1.021    49 H    0.846
    15   6 C    3.905 --    17 C    1.383    13 C    1.341    16 O    1.014
    16   8 O    2.025 --    15 C    1.014    50 H    0.860
    17   6 C    3.973 --     9 C    1.389    15 C    1.383    51 H    0.970
    18   6 C    3.916 --     8 C    1.334    21 N    1.193    19 C    1.182
    19   6 C    3.958 --    20 C    1.637    18 C    1.182    52 H    0.973
    20   6 C    3.961 --    19 C    1.637    22 C    1.190    53 H    0.973
    21   7 N    3.349 --    22 C    1.233    18 C    1.193     1 Co   0.632
    22   6 C    3.903 --    23 C    1.256    21 N    1.233    20 C    1.190
    23   6 C    3.933 --    24 C    1.257    22 C    1.256   125 C    1.195
    24   6 C    3.903 --    23 C    1.257    28 N    1.234    25 C    1.190
    25   6 C    3.962 --    26 C    1.638    24 C    1.190    54 H    0.973
    26   6 C    3.958 --    25 C    1.638    27 C    1.181    55 H    0.973
    27   6 C    3.916 --    29 C    1.337    28 N    1.191    26 C    1.181
    28   7 N    3.346 --    24 C    1.234    27 C    1.191     1 Co   0.634
    29   6 C    3.932 --    27 C    1.337    39 C    1.319    30 C    1.021
    30   6 C    3.988 --    31 C    1.401    38 C    1.389    29 C    1.021
    31   6 C    3.977 --    30 C    1.401    32 C    1.379    56 H    0.970
    32   6 C    3.917 --    31 C    1.379    34 C    1.324    33 O    1.053
    33   8 O    2.049 --    32 C    1.053    57 H    0.847
    34   6 C    3.905 --    36 C    1.341    32 C    1.324    35 O    1.021
    35   8 O    2.021 --    34 C    1.021    58 H    0.846
    36   6 C    3.905 --    38 C    1.383    34 C    1.341    37 O    1.014
    37   8 O    2.025 --    36 C    1.014    59 H    0.860
    38   6 C    3.973 --    30 C    1.389    36 C    1.383    60 H    0.970
    39   6 C    3.919 --    29 C    1.319    43 N    1.213    40 C    1.177
    40   6 C    3.963 --    41 C    1.650    39 C    1.177    61 H    0.973
    41   6 C    3.960 --    40 C    1.650    42 C    1.174    62 H    0.975
    42   6 C    3.924 --     2 C    1.365    43 N    1.202    41 C    1.174
    43   7 N    3.348 --    39 C    1.213    42 C    1.202     1 Co   0.637
    44   1 H    1.000 --     2 C    0.970
    45   1 H    0.997 --     4 C    0.975
    46   1 H    1.005 --     5 C    0.973
    47   1 H    0.999 --    10 C    0.970
    48   1 H    0.877 --    12 O    0.847
    49   1 H    0.876 --    14 O    0.846
    50   1 H    0.881 --    16 O    0.860
    51   1 H    1.000 --    17 C    0.970
    52   1 H    1.005 --    19 C    0.973
    53   1 H    1.001 --    20 C    0.973
    54   1 H    1.001 --    25 C    0.973
    55   1 H    1.005 --    26 C    0.973
    56   1 H    0.999 --    31 C    0.970
    57   1 H    0.877 --    33 O    0.847
    58   1 H    0.876 --    35 O    0.846
    59   1 H    0.881 --    37 O    0.860
    60   1 H    1.000 --    38 C    0.970
    61   1 H    1.005 --    40 C    0.973
    62   1 H    0.997 --    41 C    0.975
    63  27 Co   3.033 --   105 N    0.639    69 N    0.637    83 N    0.633
                            90 N    0.632
    64   6 C    3.928 --   104 C    1.366    65 C    1.363   106 H    0.970
    65   6 C    3.924 --    64 C    1.363    69 N    1.203    66 C    1.174
    66   6 C    3.960 --    67 C    1.650    65 C    1.174   107 H    0.975
    67   6 C    3.963 --    66 C    1.650    68 C    1.176   108 H    0.973
    68   6 C    3.918 --    70 C    1.321    69 N    1.211    67 C    1.176
    69   7 N    3.347 --    68 C    1.211    65 C    1.203    63 Co   0.637
    70   6 C    3.931 --    80 C    1.336    68 C    1.321    71 C    1.020
    71   6 C    3.988 --    72 C    1.401    79 C    1.388    70 C    1.020
    72   6 C    3.977 --    71 C    1.401    73 C    1.379   109 H    0.970
    73   6 C    3.917 --    72 C    1.379    75 C    1.324    74 O    1.053
    74   8 O    2.049 --    73 C    1.053   110 H    0.847
    75   6 C    3.905 --    77 C    1.341    73 C    1.324    76 O    1.021
    76   8 O    2.021 --    75 C    1.021   111 H    0.846
    77   6 C    3.905 --    79 C    1.383    75 C    1.341    78 O    1.014
    78   8 O    2.025 --    77 C    1.014   112 H    0.860
    79   6 C    3.973 --    71 C    1.388    77 C    1.383   113 H    0.970
    80   6 C    3.916 --    70 C    1.336    83 N    1.192    81 C    1.182
    81   6 C    3.958 --    82 C    1.638    80 C    1.182   114 H    0.973
    82   6 C    3.961 --    81 C    1.638    84 C    1.190   115 H    0.973
    83   7 N    3.346 --    84 C    1.233    80 C    1.192    63 Co   0.633
    84   6 C    3.903 --    85 C    1.258    83 N    1.233    82 C    1.190
    85   6 C    3.933 --    84 C    1.258    86 C    1.256   132 C    1.195
    86   6 C    3.903 --    85 C    1.256    90 N    1.234    87 C    1.190
    87   6 C    3.961 --    88 C    1.637    86 C    1.190   116 H    0.973
    88   6 C    3.958 --    87 C    1.637    89 C    1.182   117 H    0.973
    89   6 C    3.916 --    91 C    1.335    90 N    1.192    88 C    1.182
    90   7 N    3.348 --    86 C    1.234    89 C    1.192    63 Co   0.632
    91   6 C    3.931 --    89 C    1.335   101 C    1.322    92 C    1.020
    92   6 C    3.988 --    93 C    1.401   100 C    1.389    91 C    1.020
    93   6 C    3.977 --    92 C    1.401    94 C    1.379   118 H    0.970
    94   6 C    3.917 --    93 C    1.379    96 C    1.324    95 O    1.053
    95   8 O    2.049 --    94 C    1.053   119 H    0.847
    96   6 C    3.905 --    98 C    1.341    94 C    1.324    97 O    1.021
    97   8 O    2.021 --    96 C    1.021   120 H    0.846
    98   6 C    3.905 --   100 C    1.383    96 C    1.341    99 O    1.014
    99   8 O    2.025 --    98 C    1.014   121 H    0.860
   100   6 C    3.973 --    92 C    1.389    98 C    1.383   122 H    0.970
   101   6 C    3.919 --    91 C    1.322   105 N    1.212   102 C    1.176
   102   6 C    3.963 --   103 C    1.651   101 C    1.176   123 H    0.973
   103   6 C    3.960 --   102 C    1.651   104 C    1.173   124 H    0.975
   104   6 C    3.924 --    64 C    1.366   105 N    1.201   103 C    1.173
   105   7 N    3.345 --   101 C    1.212   104 C    1.201    63 Co   0.639
   106   1 H    1.000 --    64 C    0.970
   107   1 H    0.997 --    66 C    0.975
   108   1 H    1.005 --    67 C    0.973
   109   1 H    0.999 --    72 C    0.970
   110   1 H    0.877 --    74 O    0.847
   111   1 H    0.876 --    76 O    0.846
   112   1 H    0.881 --    78 O    0.860
   113   1 H    1.000 --    79 C    0.970
   114   1 H    1.005 --    81 C    0.973
   115   1 H    1.001 --    82 C    0.973
   116   1 H    1.001 --    87 C    0.973
   117   1 H    1.005 --    88 C    0.973
   118   1 H    0.999 --    93 C    0.970
   119   1 H    0.877 --    95 O    0.847
   120   1 H    0.876 --    97 O    0.846
   121   1 H    0.881 --    99 O    0.860
   122   1 H    1.000 --   100 C    0.970
   123   1 H    1.005 --   102 C    0.973
   124   1 H    0.997 --   103 C    0.975
   125   6 C    3.871 --   126 C    2.428    23 C    1.195   128 C    0.185
   126   6 C    3.930 --   125 C    2.428   127 C    1.352
   127   6 C    3.886 --   128 C    2.323   126 C    1.352   130 C    0.180
   128   6 C    3.920 --   127 C    2.323   129 C    1.378   125 C    0.185
   129   6 C    3.920 --   130 C    2.323   128 C    1.378   132 C    0.185
   130   6 C    3.886 --   129 C    2.323   131 C    1.352   127 C    0.180
   131   6 C    3.931 --   132 C    2.428   130 C    1.352
   132   6 C    3.870 --   131 C    2.428    85 C    1.195   129 C    0.185
 ---------------------------------------------------------------------------

           -------------------------------------------------
          | TOTAL ENERGY             -261.507354235759 Eh   |
          | GRADIENT NORM               0.000454968450 Eh/α |
          | HOMO-LUMO GAP               0.005774356481 eV   |
           -------------------------------------------------

 * finished run on 2022/07/30 at 04:20:21.611
