   * xtb version 6.5.1 (b24c23e) compiled by 'conda@728c89f4b128' on 2022-07-12
          program call               : xtb Zn_PhNO2_C6_3.xyz --gfn 1 --opt -T 48

   ID    Z sym.   atoms
    1   30 Zn     1, 61, 133
    2    6 C      2-6, 8-12, 16-20, 22-27, 29-33, 37-42, 62-66, 68-72, 76-80,
                  82-87, 89-93, 97-102, 121-132, 134-138, 140-144, 148-152,
                  154-159, 161-165, 169-174
    3    7 N      7, 13, 21, 28, 34, 43, 67, 73, 81, 88, 94, 103, 139, 145,
                  153, 160, 166, 175
    4    8 O      14, 15, 35, 36, 74, 75, 95, 96, 146, 147, 167, 168
    5    1 H      44-60, 104-120, 176-191

          :  Hamiltonian                  GFN1-xTB          :
 * total energy  :  -369.7126233 Eh     change       -0.1113051E-08 Eh
 * total energy  :  -369.9633324 Eh     change       -0.2507090E+00 Eh
 * total energy  :  -370.0995016 Eh     change       -0.1361692E+00 Eh
 * total energy  :  -370.1543365 Eh     change       -0.5483492E-01 Eh
 * total energy  :  -370.2169856 Eh     change       -0.6264917E-01 Eh
 * total energy  :  -370.2755565 Eh     change       -0.5857085E-01 Eh
 * total energy  :  -370.3101638 Eh     change       -0.3460734E-01 Eh
 * total energy  :  -370.3343808 Eh     change       -0.2421700E-01 Eh
 * total energy  :  -370.3525459 Eh     change       -0.1816505E-01 Eh
 * total energy  :  -370.3678814 Eh     change       -0.1533548E-01 Eh
 * total energy  :  -370.4947407 Eh     change       -0.6838722E-05 Eh
 * total energy  :  -370.4947468 Eh     change       -0.6043803E-05 Eh
 * total energy  :  -370.4947535 Eh     change       -0.6793395E-05 Eh
 * total energy  :  -370.4947604 Eh     change       -0.6824916E-05 Eh
 * total energy  :  -370.4947667 Eh     change       -0.6287842E-05 Eh
 * total energy  :  -370.4947726 Eh     change       -0.5895322E-05 Eh
 * total energy  :  -370.4947784 Eh     change       -0.5876706E-05 Eh
 * total energy  :  -370.4947841 Eh     change       -0.5719688E-05 Eh
 * total energy  :  -370.4947888 Eh     change       -0.4651781E-05 Eh
   *** GEOMETRY OPTIMIZATION CONVERGED AFTER 87 ITERATIONS ***

 final structure:
================
191
 xtb: 6.5.1 (b24c23e)
Zn          29.70194946074762       -0.01075800520927       -0.04362289609337
C           26.29227500706234       -0.03840738545344       -0.07258988620373
C           26.92239168772792       -1.26108229764281       -0.26782570879863
C           26.24832925174087       -2.51667855591467       -0.44663675820193
C           27.20695353682600       -3.46228870995496       -0.60635935157432
C           28.47969329813692       -2.79261286844920       -0.53851822893140
N           28.27201865951061       -1.46278300294686       -0.32214920289798
C           29.73244452164017       -3.41086190462808       -0.64446548019645
C           29.74089307276504       -4.86979837960523       -0.90469359237518
C           30.32168889209046       -5.75049950463438        0.01325092953563
C           30.31942449194910       -7.11342002560821       -0.22074476194213
C           29.73617804774641       -7.60153068756029       -1.38685621793272
N           29.72923196200125       -9.03113568207229       -1.63694592782495
O           29.20932697000628       -9.41753744597069       -2.65267258631802
O           30.24227665930676       -9.74453784151826       -0.81293870042574
C           29.15757896237206       -6.74180396861525       -2.31654982713933
C           29.16044953365068       -5.38130076312175       -2.06989058081573
C           30.97314968350995       -2.77302565824223       -0.52763667080799
C           32.25254356875278       -3.40654547501873       -0.69292805369817
C           33.19817524219886       -2.44848439665274       -0.51965237217810
N           31.16562198816674       -1.44199893413382       -0.27299290364290
C           32.50751116471505       -1.22007329373117       -0.25686170090381
C           33.13859521634794        0.01794138395496       -0.01993501850024
C           32.48399861352600        1.24488978255254        0.21002050550129
C           33.15046770889245        2.48402197115053        0.48452033295404
C           32.18666799914617        3.42558769371888        0.64793582967827
C           30.92034938242877        2.77138298023867        0.46330282438620
N           31.13847379489780        1.44439191900626        0.20831401071433
C           29.66752890698702        3.38821338091312        0.56285955061526
C           29.64711050259082        4.84607531509832        0.82813401451879
C           29.03722230979270        5.34316364902284        1.98455021702695
C           29.00650130374005        6.70243741089600        2.23594460284206
C           29.58694962811547        7.57551333800449        1.31994302939411
N           29.55075023094318        9.00381168999396        1.57483108048865
O           29.00466110882841        9.37745622402308        2.58156232927674
O           30.06783694366807        9.72895690276019        0.76369415414747
C           30.19942166887600        7.10190494781394        0.16286612767572
C           30.22910217345485        5.74015022829306       -0.07602494102622
C           28.42696121741398        2.74976439439635        0.43470633269577
C           27.14259204761791        3.39876170536963        0.48141585601365
C           26.20223748812617        2.43827393422950        0.30299895427699
C           26.89937584761765        1.19395978630767        0.13422782071382
N           28.24446931074690        1.41722044959683        0.21243576768137
H           25.20683790451987       -0.04698957072314       -0.08217684291842
H           25.17769845113370       -2.64723036634906       -0.44004579789591
H           27.06867194335831       -4.52255971626642       -0.74471948735537
H           30.76005351854863       -5.35976642050127        0.92417467421513
H           30.75949815248780       -7.80371322889354        0.48885522990351
H           28.71469453726359       -7.14599899802911       -3.21886228878856
H           28.72338356472275       -4.70084676500922       -2.79141780371895
H           32.40651466082019       -4.44779036125506       -0.92594873601312
H           34.26990280601596       -2.55527185429903       -0.57137088553122
H           34.21950235913535        2.60837441015755        0.55092239999173
H           32.32013740470740        4.46850875298164        0.88603945352941
H           28.59896219958851        4.65258523291801        2.69566174753387
H           28.54044950770374        7.09551104930375        3.13147847273359
H           30.64029635939522        7.80234677955800       -0.53620892652340
H           30.69008442262375        5.36059155589641       -0.98048113579957
H           26.98480534191820        4.45639622908554        0.61905946357667
H           25.12993436861059        2.55167658288667        0.27764838556882
Zn          61.81407710266018        0.04831754766697       -0.01701883965346
C           65.22338309764453        0.08569447374934       -0.05914085583192
C           64.59494607305810        1.29296585063435        0.21955864927225
C           65.27087873227832        2.52484514014221        0.51693254765348
C           64.31355715130424        3.46188738408623        0.72701766889015
C           63.03965082536551        2.81525436690816        0.54816737102791
N           63.24549539455078        1.50039037315225        0.25283605350800
C           61.78766081004594        3.42887112222302        0.68566663076357
C           61.78066593201267        4.87948141260029        0.98868506591299
C           61.20306786966400        5.35339963351949        2.17083722594890
C           61.20706898850128        6.70486247133327        2.46367519918142
C           61.78894799692018        7.59329806624929        1.56347580646447
N           61.79824030512926        9.01255882012052        1.86671474453878
O           62.31890288949995        9.75030245467593        1.06928578240202
O           61.28642318939716        9.36636546172389        2.89826553057842
C           62.36406201650149        7.14331845425433        0.37814749192354
C           62.35931574343233        5.78932863311580        0.09785682799335
C           60.54620569126997        2.79370232776156        0.56184337383749
C           59.26742854065008        3.44416266426869        0.64653219523515
C           58.32064328586342        2.49046416741200        0.45623094438472
N           60.35218441323037        1.46300480110057        0.30684854659588
C           59.00993725967925        1.25149128843883        0.24451735586844
C           58.37750030871226        0.01274796664536        0.01521821987933
C           59.03089521778089       -1.21353487622351       -0.22190628654861
C           58.36352711390303       -2.46723640681220       -0.41630562908679
C           59.32616263774795       -3.40204134345146       -0.62043978985436
C           60.59251842437103       -2.72479568509311       -0.56326695503234
N           60.37581988182353       -1.39753798849125       -0.30859727353140
C           61.84431921782864       -3.33357382882469       -0.71279655736962
C           61.86209437805203       -4.78514988445692       -1.01066553341284
C           62.48121632706869       -5.67842259243792       -0.13032602550825
C           62.50886646745741       -7.03317430379398       -0.40555314196142
C           61.91613240470603       -7.50055212509543       -1.57536659858548
N           61.94934899383326       -8.92053129489455       -1.87349999144607
O           62.50319918505078       -9.64362081489758       -1.08503986464868
O           61.42136515268079       -9.28973845498691       -2.89141633530988
C           61.29424882667911       -6.62876870315749       -2.46503529653491
C           61.26766913081487       -5.27647613768100       -2.17726043113953
C           63.08551254908949       -2.69230828327846       -0.60710825165360
C           64.36841283520059       -3.31124277860298       -0.81694104883605
C           65.30985326359669       -2.35273579797325       -0.63360961942273
C           64.61472290225363       -1.13537128254096       -0.32112323865264
N           63.26974597673084       -1.37249938664134       -0.31968725858200
H           66.30874209226859        0.09764499817867       -0.07313969604963
H           66.34183203742433        2.64358240664721        0.56489937993841
H           64.45363686634295        4.49736313509385        0.99272429914032
H           60.76594033704055        4.65060051231574        2.87056585292208
H           60.76956729597941        7.07990332875864        3.38108261630090
H           62.80577042452921        7.85537657847303       -0.30855456551733
H           62.79352249168794        5.42796519204656       -0.82708593756085
H           59.11460903192434        4.49788373014608        0.81539899947954
H           57.24894977061725        2.60931701131274        0.45125088858179
H           57.29480878656295       -2.60814553960264       -0.39026856815742
H           59.19205627907805       -4.45945828122856       -0.78194390348934
H           62.92908688970160       -5.30375611221100        0.78273341824741
H           62.98194644776089       -7.73256110506240        0.27322941434715
H           60.84378973219621       -7.01708874852154       -3.37056685682982
H           60.79926530391275       -4.58629137851475       -2.86925961302631
H           64.52442151410065       -4.34409059896223       -1.08400471509146
H           66.38158669779710       -2.44790334016726       -0.70892822297266
C           38.34175882181098        0.03986384864636       -0.00383933562187
C           37.11308118072745        0.03919372495911       -0.00672933851256
C           35.76847757254254        0.03448478690571       -0.00955277776800
C           34.54436100276277        0.02906731612450       -0.01335773099577
C           39.68626303256652        0.03822503827956       -0.00308190020184
C           40.91056255610290        0.03399001148349       -0.00338145770241
C           54.40313393537191       -0.01368134969144        0.02436230626537
C           53.17456270720761       -0.01714011587087        0.02217028742888
C           51.83013403911107       -0.01762479995907        0.01997409844817
C           50.60586301363509       -0.01411411091114        0.01565085648679
C           55.74766948303870       -0.00768069119549        0.02400070728099
C           56.97179050738718        0.00001666025336        0.02203286027587
Zn          45.75811749077894        0.00960377459143       -0.00036595987682
C           42.31574547250099        0.02722888921280       -0.00366343977786
C           42.95412549210947       -1.22814123613462        0.05802102176354
C           42.27063203923338       -2.48392928333813        0.15391919518830
C           43.22170522350979       -3.45212942166114        0.18338019535040
C           44.49616691414825       -2.79509453522792        0.09562355956358
N           44.29704986222602       -1.44257663466908        0.03162065480359
C           45.74060913662519       -3.43617925056752        0.10502806249590
C           45.73312944045274       -4.91791034962721        0.15166969329514
C           46.31605670998616       -5.59347255331506        1.22839775481051
C           46.30925712898459       -6.97535183733481        1.27901910886312
C           45.71890652480734       -7.68992133416279        0.24032795454510
N           45.71112069054537       -9.14083365148779        0.28705098246367
O           45.18600278707763       -9.72564728446257       -0.62566079028149
O           46.23087267354256       -9.67124739613059        1.23547066154782
C           45.13571672049854       -7.03715678017483       -0.84216978462730
C           45.14307728017724       -5.65483434452644       -0.87995907153573
C           46.99157053936512       -2.80849058956987        0.07580662303993
C           48.25926729437140       -3.48265744293514        0.02958869828239
C           49.22026005162095       -2.52422208908316        0.00223502509222
N           47.20451415500249       -1.45671896347074        0.05800375012420
C           48.54961445779084       -1.25806998675680        0.02107928003022
C           49.20072504917485       -0.00785252771314        0.01070399989986
C           48.56209930309782        1.24881356550295       -0.00578345698626
C           49.24523912282580        2.50825457007775        0.01394142181520
C           48.29418078613932        3.47616656373787       -0.02431492954510
C           47.02013062337257        2.81460094776650       -0.07724502634386
N           47.21934775469072        1.46087249501821       -0.05298348055727
C           45.77587200087700        3.45507837250728       -0.11673566554322
C           45.78491360708326        4.93633316887098       -0.17455360316591
C           46.38326316058210        5.59619008745616       -1.25265513032780
C           46.39275941101069        6.97753084771941       -1.31494777359766
C           45.80308832760183        7.70755238284282       -0.28665384574193
N           45.81232716585454        9.15798958267233       -0.34562669874305
O           46.34416833273574        9.67433501291618       -1.29510871704957
O           45.28806685017659        9.75652899888420        0.55865340088719
C           45.20473862035497        7.07062553480826        0.79699620992517
C           45.19610091862270        5.68865763503642        0.84658313175424
C           44.52482490568350        2.82694270621212       -0.10842240985550
C           43.25721162973057        3.49640802343504       -0.20159945689463
C           42.29629629779698        2.53809803980082       -0.16845904483191
C           42.96690618742022        1.27587990303329       -0.06660567514339
N           44.31189161762084        1.47678109551666       -0.03881505326380
H           41.19987313437547       -2.60204018352108        0.20022708627689
H           43.07381220148572       -4.51636375987536        0.27072162431858
H           46.76160059675500       -5.02553945801685        2.03682747297779
H           46.75256082035050       -7.50694672699063        2.11243161714136
H           44.68671762729248       -7.61636949003872       -1.64004595084014
H           44.70311241684419       -5.13518812277008       -1.72317349159827
H           48.39621086917089       -4.55168230269236        0.00665552059601
H           50.28981428113328       -2.65571823870359       -0.03504038807877
H           50.31572189042971        2.62929862116613        0.05887678187629
H           48.44174463642961        4.54382870847116       -0.00407926430287
H           46.82814473298099        5.01635670933388       -2.05296873857004
H           46.84829052214912        7.49692725510578       -2.14945530152733
H           44.75667395874571        7.66166361774513        1.58667998713548
H           44.74454246008564        5.18136385411862        1.69117924296447
H           43.12011323380727        4.56160894679841       -0.29449909506154
H           41.22683593606484        2.66677023251654       -0.21674007440280

          :  Hamiltonian                  GFN1-xTB          :
         :: total energy            -370.494788800749 Eh    ::
         :: gradient norm              0.000437740458 Eh/a0 ::
         :: HOMO-LUMO gap              0.966986992893 eV    ::
         :: SCC energy              -375.846463810605 Eh    ::
         :: repulsion energy           5.522993233601 Eh    ::

    * Orbital Energies and Occupations

         #    Occupation            Energy/Eh            Energy/eV
      -------------------------------------------------------------
         1        2.0000           -0.9221404             -25.0927
       ...           ...                  ...                  ...
       313        2.0000           -0.4445558             -12.0970
       314        2.0000           -0.4445008             -12.0955
       315        2.0000           -0.4444985             -12.0954
       316        2.0000           -0.4423089             -12.0358
       317        2.0000           -0.4350410             -11.8381
       318        2.0000           -0.4326823             -11.7739
       319        2.0000           -0.4322701             -11.7627
       320        2.0000           -0.4188555             -11.3976
       321        2.0000           -0.4172033             -11.3527
       322        2.0000           -0.4171970             -11.3525
       323        2.0000           -0.4129442             -11.2368
       324        2.0000           -0.4063174             -11.0565
       325        2.0000           -0.3991583             -10.8616 (HOMO)
       326                         -0.3636222              -9.8947 (LUMO)
       327                         -0.3577120              -9.7338
       328                         -0.3567458              -9.7075
       329                         -0.3567247              -9.7070
       330                         -0.3548796              -9.6568
       331                         -0.3486997              -9.4886
       332                         -0.3482202              -9.4756
       333                         -0.3481658              -9.4741
       334                         -0.3479239              -9.4675
       335                         -0.3424295              -9.3180
       336                         -0.3413927              -9.2898
       ...                                ...                  ...
       664                          1.5591156              42.4257
      -------------------------------------------------------------
                  HL-Gap            0.0355361 Eh            0.9670 eV

Wiberg/Mayer (AO) data.
largest (>0.10) Wiberg bond orders for each atom

     #   Z sym  total        # sym  WBO       # sym  WBO       # sym  WBO
 ---------------------------------------------------------------------------
     1  30 Zn   1.989 --    43 N    0.458     7 N    0.458    21 N    0.454
                            28 N    0.454
     2   6 C    3.929 --    42 C    1.359     3 C    1.358    44 H    0.971
     3   6 C    3.919 --     2 C    1.358     7 N    1.231     4 C    1.169
     4   6 C    3.960 --     5 C    1.661     3 C    1.169    45 H    0.975
     5   6 C    3.963 --     4 C    1.661     6 C    1.170    46 H    0.973
     6   6 C    3.919 --     8 C    1.310     7 N    1.248     5 C    1.170
     7   7 N    3.293 --     6 C    1.248     3 C    1.231     1 Zn   0.458
     8   6 C    3.930 --    18 C    1.319     6 C    1.310     9 C    1.035
     9   6 C    3.984 --    10 C    1.383    17 C    1.382     8 C    1.035
    10   6 C    3.986 --    11 C    1.465     9 C    1.383    47 H    0.971
                            16 C    0.101
    11   6 C    3.987 --    10 C    1.465    12 C    1.386    48 H    0.965
                            17 C    0.101
    12   6 C    3.940 --    11 C    1.386    16 C    1.386    13 N    0.922
    13   7 N    3.865 --    15 O    1.453    14 O    1.453    12 C    0.922
    14   8 O    1.827 --    13 N    1.453    15 O    0.251
    15   8 O    1.827 --    13 N    1.453    14 O    0.251
    16   6 C    3.987 --    17 C    1.465    12 C    1.386    49 H    0.965
                            10 C    0.101
    17   6 C    3.986 --    16 C    1.465     9 C    1.382    50 H    0.971
                            11 C    0.101
    18   6 C    3.912 --     8 C    1.319    21 N    1.228    19 C    1.177
    19   6 C    3.959 --    20 C    1.648    18 C    1.177    51 H    0.973
    20   6 C    3.961 --    19 C    1.648    22 C    1.185    52 H    0.974
    21   7 N    3.295 --    22 C    1.262    18 C    1.228     1 Zn   0.454
    22   6 C    3.899 --    21 N    1.262    23 C    1.254    20 C    1.185
    23   6 C    3.939 --    24 C    1.255    22 C    1.254   124 C    1.191
    24   6 C    3.899 --    28 N    1.262    23 C    1.255    25 C    1.185
    25   6 C    3.961 --    26 C    1.648    24 C    1.185    53 H    0.974
    26   6 C    3.959 --    25 C    1.648    27 C    1.177    54 H    0.973
    27   6 C    3.912 --    29 C    1.319    28 N    1.229    26 C    1.177
    28   7 N    3.295 --    24 C    1.262    27 C    1.229     1 Zn   0.454
    29   6 C    3.930 --    27 C    1.319    39 C    1.310    30 C    1.035
    30   6 C    3.984 --    38 C    1.383    31 C    1.382    29 C    1.035
    31   6 C    3.986 --    32 C    1.465    30 C    1.382    55 H    0.971
                            37 C    0.101
    32   6 C    3.987 --    31 C    1.465    33 C    1.385    56 H    0.965
                            38 C    0.101
    33   6 C    3.940 --    37 C    1.386    32 C    1.385    34 N    0.922
    34   7 N    3.865 --    36 O    1.453    35 O    1.453    33 C    0.922
    35   8 O    1.827 --    34 N    1.453    36 O    0.251
    36   8 O    1.827 --    34 N    1.453    35 O    0.251
    37   6 C    3.987 --    38 C    1.465    33 C    1.386    57 H    0.965
                            31 C    0.101
    38   6 C    3.986 --    37 C    1.465    30 C    1.383    58 H    0.971
                            32 C    0.101
    39   6 C    3.918 --    29 C    1.310    43 N    1.248    40 C    1.170
    40   6 C    3.963 --    41 C    1.661    39 C    1.170    59 H    0.973
    41   6 C    3.960 --    40 C    1.661    42 C    1.169    60 H    0.975
    42   6 C    3.919 --     2 C    1.359    43 N    1.231    41 C    1.169
    43   7 N    3.293 --    39 C    1.248    42 C    1.231     1 Zn   0.458
    44   1 H    1.001 --     2 C    0.971
    45   1 H    0.997 --     4 C    0.975
    46   1 H    1.003 --     5 C    0.973
    47   1 H    1.004 --    10 C    0.971
    48   1 H    1.006 --    11 C    0.965
    49   1 H    1.006 --    16 C    0.965
    50   1 H    1.004 --    17 C    0.971
    51   1 H    1.003 --    19 C    0.973
    52   1 H    1.002 --    20 C    0.974
    53   1 H    1.002 --    25 C    0.974
    54   1 H    1.003 --    26 C    0.973
    55   1 H    1.004 --    31 C    0.971
    56   1 H    1.006 --    32 C    0.965
    57   1 H    1.006 --    37 C    0.965
    58   1 H    1.004 --    38 C    0.971
    59   1 H    1.004 --    40 C    0.973
    60   1 H    0.997 --    41 C    0.975
    61  30 Zn   1.989 --   103 N    0.458    67 N    0.458    81 N    0.454
                            88 N    0.454
    62   6 C    3.929 --   102 C    1.359    63 C    1.358   104 H    0.971
    63   6 C    3.919 --    62 C    1.358    67 N    1.231    64 C    1.169
    64   6 C    3.960 --    65 C    1.661    63 C    1.169   105 H    0.975
    65   6 C    3.963 --    64 C    1.661    66 C    1.170   106 H    0.973
    66   6 C    3.919 --    68 C    1.310    67 N    1.248    65 C    1.170
    67   7 N    3.293 --    66 C    1.248    63 C    1.231    61 Zn   0.458
    68   6 C    3.930 --    78 C    1.319    66 C    1.310    69 C    1.035
    69   6 C    3.984 --    70 C    1.382    77 C    1.382    68 C    1.035
    70   6 C    3.986 --    71 C    1.465    69 C    1.382   107 H    0.971
                            76 C    0.101
    71   6 C    3.987 --    70 C    1.465    72 C    1.386   108 H    0.965
                            77 C    0.101
    72   6 C    3.940 --    71 C    1.386    76 C    1.386    73 N    0.922
    73   7 N    3.865 --    75 O    1.453    74 O    1.453    72 C    0.922
    74   8 O    1.827 --    73 N    1.453    75 O    0.251
    75   8 O    1.827 --    73 N    1.453    74 O    0.251
    76   6 C    3.987 --    77 C    1.465    72 C    1.386   109 H    0.965
                            70 C    0.101
    77   6 C    3.986 --    76 C    1.465    69 C    1.382   110 H    0.971
                            71 C    0.101
    78   6 C    3.912 --    68 C    1.319    81 N    1.229    79 C    1.177
    79   6 C    3.959 --    80 C    1.648    78 C    1.177   111 H    0.973
    80   6 C    3.961 --    79 C    1.648    82 C    1.185   112 H    0.974
    81   7 N    3.295 --    82 C    1.262    78 C    1.229    61 Zn   0.454
    82   6 C    3.899 --    81 N    1.262    83 C    1.254    80 C    1.185
    83   6 C    3.939 --    84 C    1.254    82 C    1.254   132 C    1.192
    84   6 C    3.899 --    88 N    1.262    83 C    1.254    85 C    1.185
    85   6 C    3.961 --    86 C    1.647    84 C    1.185   113 H    0.974
    86   6 C    3.959 --    85 C    1.647    87 C    1.177   114 H    0.973
    87   6 C    3.912 --    89 C    1.319    88 N    1.229    86 C    1.177
    88   7 N    3.295 --    84 C    1.262    87 C    1.229    61 Zn   0.454
    89   6 C    3.930 --    87 C    1.319    99 C    1.310    90 C    1.035
    90   6 C    3.984 --    98 C    1.382    91 C    1.382    89 C    1.035
    91   6 C    3.986 --    92 C    1.465    90 C    1.382   115 H    0.971
                            97 C    0.101
    92   6 C    3.987 --    91 C    1.465    93 C    1.386   116 H    0.965
                            98 C    0.101
    93   6 C    3.940 --    97 C    1.386    92 C    1.386    94 N    0.922
    94   7 N    3.865 --    96 O    1.453    95 O    1.453    93 C    0.922
    95   8 O    1.827 --    94 N    1.453    96 O    0.251
    96   8 O    1.827 --    94 N    1.453    95 O    0.251
    97   6 C    3.987 --    98 C    1.465    93 C    1.386   117 H    0.965
                            91 C    0.101
    98   6 C    3.986 --    97 C    1.465    90 C    1.382   118 H    0.971
                            92 C    0.101
    99   6 C    3.919 --    89 C    1.310   103 N    1.248   100 C    1.170
   100   6 C    3.963 --   101 C    1.661    99 C    1.170   119 H    0.973
   101   6 C    3.960 --   100 C    1.661   102 C    1.169   120 H    0.975
   102   6 C    3.919 --    62 C    1.359   103 N    1.231   101 C    1.169
   103   7 N    3.293 --    99 C    1.248   102 C    1.231    61 Zn   0.458
   104   1 H    1.001 --    62 C    0.971
   105   1 H    0.997 --    64 C    0.975
   106   1 H    1.004 --    65 C    0.973
   107   1 H    1.004 --    70 C    0.971
   108   1 H    1.006 --    71 C    0.965
   109   1 H    1.006 --    76 C    0.965
   110   1 H    1.004 --    77 C    0.971
   111   1 H    1.003 --    79 C    0.973
   112   1 H    1.002 --    80 C    0.974
   113   1 H    1.002 --    85 C    0.974
   114   1 H    1.003 --    86 C    0.973
   115   1 H    1.004 --    91 C    0.971
   116   1 H    1.006 --    92 C    0.965
   117   1 H    1.006 --    97 C    0.965
   118   1 H    1.004 --    98 C    0.971
   119   1 H    1.003 --   100 C    0.973
   120   1 H    0.997 --   101 C    0.975
   121   6 C    3.926 --   122 C    2.368   125 C    1.336   124 C    0.190
   122   6 C    3.924 --   121 C    2.368   123 C    1.335   126 C    0.190
   123   6 C    3.934 --   124 C    2.449   122 C    1.335
   124   6 C    3.890 --   123 C    2.449    23 C    1.191   121 C    0.190
   125   6 C    3.931 --   126 C    2.447   121 C    1.336
   126   6 C    3.891 --   125 C    2.447   134 C    1.194   122 C    0.190
   127   6 C    3.924 --   128 C    2.367   131 C    1.335   130 C    0.190
   128   6 C    3.926 --   127 C    2.367   129 C    1.336   132 C    0.190
   129   6 C    3.931 --   130 C    2.447   128 C    1.336
   130   6 C    3.891 --   129 C    2.447   155 C    1.194   127 C    0.190
   131   6 C    3.934 --   132 C    2.449   127 C    1.335
   132   6 C    3.890 --   131 C    2.449    83 C    1.192   128 C    0.190
   133  30 Zn   1.987 --   139 N    0.455   160 N    0.455   175 N    0.455
                           153 N    0.455
   134   6 C    3.928 --   174 C    1.252   135 C    1.252   126 C    1.194
   135   6 C    3.899 --   139 N    1.262   134 C    1.252   136 C    1.187
   136   6 C    3.960 --   137 C    1.645   135 C    1.187   176 H    0.974
   137   6 C    3.960 --   136 C    1.645   138 C    1.180   177 H    0.973
   138   6 C    3.911 --   140 C    1.316   139 N    1.228   137 C    1.180
   139   7 N    3.291 --   135 C    1.262   138 C    1.228   133 Zn   0.455
   140   6 C    3.926 --   138 C    1.316   150 C    1.316   141 C    1.034
   141   6 C    3.984 --   149 C    1.383   142 C    1.383   140 C    1.034
   142   6 C    3.986 --   143 C    1.464   141 C    1.383   178 H    0.971
                           148 C    0.101
   143   6 C    3.987 --   142 C    1.464   144 C    1.386   179 H    0.965
                           149 C    0.101
   144   6 C    3.940 --   148 C    1.386   143 C    1.386   145 N    0.922
   145   7 N    3.865 --   146 O    1.454   147 O    1.453   144 C    0.922
   146   8 O    1.828 --   145 N    1.454   147 O    0.251
   147   8 O    1.828 --   145 N    1.453   146 O    0.251
   148   6 C    3.987 --   149 C    1.464   144 C    1.386   180 H    0.965
                           142 C    0.101
   149   6 C    3.986 --   148 C    1.464   141 C    1.383   181 H    0.971
                           143 C    0.101
   150   6 C    3.911 --   140 C    1.316   153 N    1.228   151 C    1.180
   151   6 C    3.960 --   152 C    1.645   150 C    1.180   182 H    0.973
   152   6 C    3.960 --   151 C    1.645   154 C    1.187   183 H    0.974
   153   7 N    3.291 --   154 C    1.262   150 C    1.228   133 Zn   0.455
   154   6 C    3.899 --   153 N    1.262   155 C    1.252   152 C    1.187
   155   6 C    3.928 --   154 C    1.252   156 C    1.252   130 C    1.194
   156   6 C    3.899 --   160 N    1.262   155 C    1.252   157 C    1.187
   157   6 C    3.960 --   158 C    1.645   156 C    1.187   184 H    0.974
   158   6 C    3.960 --   157 C    1.645   159 C    1.180   185 H    0.973
   159   6 C    3.910 --   161 C    1.316   160 N    1.228   158 C    1.180
   160   7 N    3.291 --   156 C    1.262   159 C    1.228   133 Zn   0.455
   161   6 C    3.926 --   171 C    1.316   159 C    1.316   162 C    1.034
   162   6 C    3.984 --   170 C    1.383   163 C    1.382   161 C    1.034
   163   6 C    3.986 --   164 C    1.465   162 C    1.382   186 H    0.971
                           169 C    0.101
   164   6 C    3.987 --   163 C    1.465   165 C    1.386   187 H    0.965
                           170 C    0.101
   165   6 C    3.940 --   169 C    1.386   164 C    1.386   166 N    0.922
   166   7 N    3.865 --   168 O    1.453   167 O    1.453   165 C    0.922
   167   8 O    1.828 --   166 N    1.453   168 O    0.251
   168   8 O    1.828 --   166 N    1.453   167 O    0.251
   169   6 C    3.987 --   170 C    1.464   165 C    1.386   188 H    0.965
                           163 C    0.101
   170   6 C    3.986 --   169 C    1.464   162 C    1.383   189 H    0.971
                           164 C    0.101
   171   6 C    3.911 --   161 C    1.316   175 N    1.228   172 C    1.180
   172   6 C    3.960 --   173 C    1.645   171 C    1.180   190 H    0.973
   173   6 C    3.960 --   172 C    1.645   174 C    1.187   191 H    0.974
   174   6 C    3.899 --   175 N    1.262   134 C    1.252   173 C    1.187
   175   7 N    3.291 --   174 C    1.262   171 C    1.228   133 Zn   0.455
   176   1 H    1.002 --   136 C    0.974
   177   1 H    1.003 --   137 C    0.973
   178   1 H    1.004 --   142 C    0.971
   179   1 H    1.006 --   143 C    0.965
   180   1 H    1.006 --   148 C    0.965
   181   1 H    1.004 --   149 C    0.971
   182   1 H    1.003 --   151 C    0.973
   183   1 H    1.001 --   152 C    0.974
   184   1 H    1.002 --   157 C    0.974
   185   1 H    1.003 --   158 C    0.973
   186   1 H    1.004 --   163 C    0.971
   187   1 H    1.006 --   164 C    0.965
   188   1 H    1.006 --   169 C    0.965
   189   1 H    1.004 --   170 C    0.971
   190   1 H    1.003 --   172 C    0.973
   191   1 H    1.001 --   173 C    0.974
 ---------------------------------------------------------------------------

           -------------------------------------------------
          | TOTAL ENERGY             -370.494788800749 Eh   |
          | GRADIENT NORM               0.000437740458 Eh/α |
          | HOMO-LUMO GAP               0.966986992893 eV   |
           -------------------------------------------------

 * finished run on 2022/07/30 at 10:15:05.749
