   * xtb version 6.5.1 (b24c23e) compiled by 'conda@728c89f4b128' on 2022-07-12
          program call               : xtb Py_C8_3.xyz --gfn 1 --opt -T 48

   ID    Z sym.   atoms
    1    6 C      1-5, 7-10, 12-16, 18-23, 25-28, 30-35, 56-60, 62-65, 67-71,
                  73-78, 80-83, 85-90, 111-131, 133-136, 138-142, 144-149,
                  151-154, 156-161
    2    7 N      6, 11, 17, 24, 29, 36, 61, 66, 72, 79, 84, 91, 132, 137,
                  143, 150, 155, 162
    3    1 H      37-55, 92-110, 163-180

          :  Hamiltonian                  GFN1-xTB          :
 * total energy  :  -310.0208483 Eh     change        0.8343306E-08 Eh
 * total energy  :  -310.3791166 Eh     change       -0.3582682E+00 Eh
 * total energy  :  -310.5227211 Eh     change       -0.1436045E+00 Eh
 * total energy  :  -310.5734261 Eh     change       -0.5070494E-01 Eh
 * total energy  :  -310.5963991 Eh     change       -0.2297306E-01 Eh
 * total energy  :  -310.6112520 Eh     change       -0.1485289E-01 Eh
 * total energy  :  -310.6199255 Eh     change       -0.8673470E-02 Eh
 * total energy  :  -310.6248084 Eh     change       -0.4882901E-02 Eh
 * total energy  :  -310.6264325 Eh     change       -0.1624090E-02 Eh
 * total energy  :  -310.6295615 Eh     change       -0.3129019E-02 Eh
 * total energy  :  -311.1041760 Eh     change       -0.7544581E-05 Eh
 * total energy  :  -311.1041825 Eh     change       -0.6498513E-05 Eh
 * total energy  :  -311.1041882 Eh     change       -0.5652242E-05 Eh
 * total energy  :  -311.1041932 Eh     change       -0.5077107E-05 Eh
 * total energy  :  -311.1041982 Eh     change       -0.5019039E-05 Eh
 * total energy  :  -311.1042035 Eh     change       -0.5292926E-05 Eh
 * total energy  :  -311.1042089 Eh     change       -0.5399986E-05 Eh
 * total energy  :  -311.1042141 Eh     change       -0.5136370E-05 Eh
 * total energy  :  -311.1042186 Eh     change       -0.4543194E-05 Eh
   *** GEOMETRY OPTIMIZATION CONVERGED AFTER 150 ITERATIONS ***

 final structure:
================
180
 xtb: 6.5.1 (b24c23e)
C           17.99090249623732        0.05127618440391        0.06679647875526
C           18.60212914882636        1.27819516377499        0.29011784270233
C           17.95339120266063        2.52679310095132        0.50368649450364
C           18.91823661238396        3.47654502287063        0.68789870689765
C           20.18780417300283        2.83642838694226        0.60294785468139
N           19.94628280222807        1.51566914805181        0.35302121044247
C           21.45255795186644        3.42320490254420        0.72397891154726
C           21.48280217351596        4.87613584834618        1.01626872782711
C           22.07157063115904        5.78111128321927        0.13381793620124
C           22.06753478578429        7.13103137112225        0.44762592317458
N           21.52841838092891        7.61424172103142        1.56236277403691
C           20.96852915793975        6.75812078256741        2.41086646507927
C           20.91837532540324        5.39200741347620        2.18246484502768
C           22.66846259393100        2.74818762781305        0.59506194608809
C           23.96563075218969        3.37244612146773        0.78508690327288
C           24.88693799238661        2.40743596561215        0.58608431175783
N           22.82378513772066        1.42703278603020        0.30403626169302
C           24.15155479984803        1.19469554235131        0.28306841390537
C           24.78909220927298       -0.03244054810647        0.00679942437841
C           24.15061256407945       -1.25768627568849       -0.26505318133855
C           24.79158614801866       -2.48639191994606       -0.57489380252905
C           23.82219548144548       -3.43116743729927       -0.76790434296001
C           22.55799788097119       -2.80905681409892       -0.57160598739870
N           22.80855363602539       -1.49452091973756       -0.27811336868009
C           21.29443150129097       -3.39932863446385       -0.67936860820674
C           21.25868378763275       -4.84705443141797       -0.99239212515723
C           21.83781828574671       -5.78936019298091       -0.14296651121037
C           21.77513608350146       -7.13229151343508       -0.48000336761902
N           21.18924539315899       -7.57472149704281       -1.58790244100270
C           20.63639156601024       -6.68316545151892       -2.40420023690816
C           20.64317610790918       -5.32075300160666       -2.15080973714423
C           20.07776292969941       -2.72862161506938       -0.51495037840528
C           18.77441255721591       -3.37273648518382       -0.57259882946240
C           17.86027133122765       -2.40449693399903       -0.36276071708411
C           18.60392784637099       -1.17217802031716       -0.16818744117884
N           19.93626100957299       -1.40715936688774       -0.25736330141800
H           16.90566730569269        0.05925654489625        0.07842594294176
H           16.88431342311063        2.66755901353586        0.50713936762998
H           18.76976270192788        4.53029325876109        0.85945028253258
H           20.66920141259137        0.81480931221644        0.22903878460420
H           22.51186468232711        5.43403897742715       -0.79328892333278
H           22.51554490445271        7.85537201381313       -0.22630218186062
H           20.53994921408346        7.18233939563091        3.31419408037554
H           20.46226888962542        4.73063101894386        2.90958221633153
H           24.12693499957107        4.40501172023894        1.04893092734878
H           25.96124288803614        2.48115910732340        0.64039517170757
H           25.85911483778403       -2.61899403304841       -0.64536321133772
H           23.96660978634839       -4.46589526832810       -1.03245088547790
H           22.08881041517094       -0.80069875660899       -0.10428851105368
H           22.31413048413330       -5.47688431973030        0.77876019882773
H           22.21441242627593       -7.88467418625419        0.16851917196122
H           20.16737767032105       -7.07489110619443       -3.30207330369006
H           20.19081445783065       -4.62959443075465       -2.85193283869683
H           18.60744756024210       -4.42494558329465       -0.73756026363690
H           16.78513847621284       -2.48599207099816       -0.32947768140499
C           61.95093299619905       -0.07513828069844        0.03804407929531
C           61.33944001893695       -1.27070698885622       -0.31621884505960
C           61.98789492151545       -2.48139509734311       -0.68932768180920
C           61.02287024236059       -3.41234485648771       -0.95194879677778
C           59.75348058665494       -2.80301688960584       -0.73717231078429
N           59.99527111705944       -1.51120889320671       -0.36567831989461
C           58.48847234109549       -3.38201682532509       -0.88920103367786
C           58.45683434330623       -4.81075440428939       -1.28263777207109
C           57.86034457397163       -5.22058825060046       -2.47459559394730
C           57.86293390697518       -6.56680615791021       -2.80378218369388
N           58.40776208875941       -7.50074437024159       -2.03064932262468
C           58.97494276333114       -7.11928871039017       -0.89084059121539
C           59.02708841616027       -5.79707840942566       -0.47847013578670
C           57.27299932413921       -2.72123543350602       -0.69720524215079
C           55.97578444144056       -3.36548339209824       -0.80015457148674
C           55.05490409657182       -2.41317909350190       -0.54564304306893
N           57.11822644880780       -1.40887761841511       -0.36859217461353
C           55.79061189229275       -1.19179780155261       -0.28057414927148
C           55.15342129961692        0.03172310627941        0.01223043708512
C           55.79234724959728        1.25070662466003        0.30999904930264
C           55.15209810656283        2.49010772804638        0.57550123184567
C           56.12176544954244        3.42027511406862        0.82886371738494
C           57.38531957527119        2.77348920024477        0.73503010482512
N           57.13427367341639        1.46641467856990        0.41035865005996
C           58.64895386822505        3.34707024268439        0.91085082694750
C           58.68545681610906        4.78121775067998        1.28096419822365
C           58.09967364351562        5.24323781777246        2.45922249751848
C           58.16430562463601        6.59425182884343        2.76182997402353
N           58.75801360615824        7.48551600942162        1.97467264583959
C           59.31692976591538        7.05410068622002        0.84845463848089
C           59.30893641044337        5.72307277747978        0.46281235580376
C           59.86516998420675        2.67150296261762        0.76383799635769
C           61.16843096308307        3.27056087683202        1.00790491363240
C           62.08214134104153        2.31022760778114        0.76280717312122
C           61.33825369953280        1.12337795306661        0.37873149668030
N           60.00618978225970        1.37516727219408        0.40011502430454
H           63.03615421055934       -0.08810954955756        0.04599987897917
H           63.05691610554677       -2.60840131104065       -0.75112411385779
H           61.17118562195058       -4.43017671758592       -1.27424537243190
H           59.27244016945669       -0.82981859704117       -0.15972924595084
H           57.41517769888492       -4.49272265293622       -3.14234904220940
H           57.40877733978539       -6.90933421345984       -3.72897499184531
H           59.40816571777073       -7.90524191993507       -0.27909720156828
H           59.48912799022235       -5.53489127164118        0.46594655422689
H           55.81419773106087       -4.40774926700050       -1.02240653179031
H           53.98071582415795       -2.50394029885382       -0.52605460387089
H           54.08485930025638        2.64202861827208        0.56562911435619
H           55.97804671530974        4.46480769848539        1.05204867767377
H           57.85364522795610        0.76643256787900        0.26147345275240
H           57.61685280593906        4.55140348493275        3.13918613580090
H           57.72014318169909        6.97639171664402        3.67633635195128
H           59.79226882480974        7.80604934310803        0.22538186197412
H           59.76661385546569        5.41921542883692       -0.47105381000853
H           61.33561252435885        4.28405370212498        1.33519085254356
H           63.15708550867149        2.36643549074884        0.83347667359564
C           26.19446609152747       -0.04769785582101       -0.00255152578151
C           27.41933779744470       -0.06046177583536       -0.01072453699709
C           28.76179657864317       -0.06901146588765       -0.01811177205201
C           29.99287717696122       -0.07302579262454       -0.02441157217882
C           31.33054361225123       -0.07391958009892       -0.03035131002829
C           32.56170696987911       -0.07097864937604       -0.03507303844788
C           33.90394275706943       -0.06438431355105       -0.03912954862942
C           35.12910234473134       -0.05518619493933       -0.04240338889004
C           44.81359091787104        0.04734915570426       -0.02612135321538
C           46.03870035324961        0.06116070244749       -0.02047969331281
C           47.38087464070811        0.06995387954091       -0.01423199558983
C           48.61202505326112        0.07515166208885       -0.00880229671177
C           49.94965367530666        0.07630045703054       -0.00321791010174
C           51.18076353504672        0.07154231233066        0.00063632656812
C           52.52320137299228        0.06340150763835        0.00511467191788
C           53.74810976346679        0.04995500762340        0.00847057076533
C           36.53340659304159       -0.04287271939043       -0.04385567880544
C           37.17352829283353       -1.27090065466546        0.21334948425426
C           36.53925967405561       -2.50714328074414        0.50000816213800
C           37.51526259860886       -3.44950815860728        0.67656362532610
C           38.77472058300663       -2.81610065128743        0.49326221904728
N           38.51728443207282       -1.49839993143269        0.22462744214988
C           40.04094899342933       -3.40639985485228        0.58632711866440
C           40.06739296376243       -4.86315988985262        0.86339882569845
C           40.65489505305742       -5.36774977881219        2.02292078647311
C           40.65037877553893       -6.73619840673456        2.24219984988813
N           40.11240306445602       -7.60431996905341        1.39155350634201
C           39.55375887184882       -7.13200817790500        0.28200895269313
C           39.50375755045919       -5.78069929549792       -0.02240972318779
C           41.26174564538851       -2.74536133376966        0.44254842910229
C           42.55148424547654       -3.41127447600475        0.48892601008234
C           43.48364720922049       -2.45175443741998        0.31542090290531
N           41.43148540043418       -1.41202406085953        0.22505856542457
C           42.76200692389951       -1.20481076005773        0.15544647868293
C           43.40935268877956        0.03341299424445       -0.03228643571050
C           42.76894227781784        1.27263724594770       -0.22795524981860
C           43.40266128745358        2.53094328646977       -0.39470842282802
C           42.42662629410543        3.47291268158743       -0.57331226294556
C           41.16780316288395        2.81384811708771       -0.52897642608576
N           41.42544542772409        1.48730833849265       -0.30847329840646
C           39.90182565129439        3.39690331669374       -0.66228422941098
C           39.87582004762763        4.85605375812110       -0.92673652890157
C           39.28290382188778        5.74356550026004       -0.02957923308626
C           39.28735062853471        7.09920075192658       -0.31776716642660
N           39.83018713576838        7.60340564146197       -1.42127932650787
C           40.39433186718848        6.76394640998434       -2.28343055986551
C           40.44493679515531        5.39375246304785       -2.08052953680882
C           38.68112145501331        2.72687774426471       -0.56866138122392
C           37.39184954435412        3.36456552216348       -0.76901379398265
C           36.45966856015478        2.40510301381950       -0.59543262467934
C           37.18092233656371        1.18315376176948       -0.29894956108658
N           38.51120621773177        1.40298079212711       -0.29958550486653
H           35.47249288476000       -2.64743295692243        0.56651139358267
H           37.37695228260943       -4.48993912142043        0.92110604072270
H           39.22907683780880       -0.79361901125135        0.06377018163237
H           41.09528724363585       -4.69610852868031        2.75010339830527
H           41.09762259282408       -7.15245045540483        3.14010227846219
H           39.12588407800381       -7.86592112079678       -0.39465196888846
H           39.04806270479120       -5.44255672581230       -0.94549148307442
H           42.70085916779988       -4.47036076012062        0.62227496736839
H           44.55679175805177       -2.55220224538615        0.28736024871095
H           44.46907131957681        2.68729059552519       -0.37434564679779
H           42.56435283563713        4.53239670673261       -0.71459802359676
H           40.71399855652007        0.77020132092949       -0.21442409464795
H           38.83825330796014        5.37831211575626        0.88840886569013
H           38.83582725262954        7.81033795712661        0.36773743764256
H           40.82612931864876        7.20545875331621       -3.17684806576425
H           40.90528431938318        4.74638851909123       -2.81747238361478
H           37.24277686673818        4.40189162033765       -1.02096700092269
H           35.38680125578314        2.48803883838138       -0.66319346613347

          :  Hamiltonian                  GFN1-xTB          :
         :: total energy            -311.104218623065 Eh    ::
         :: gradient norm              0.000203124934 Eh/a0 ::
         :: HOMO-LUMO gap              0.887797815472 eV    ::
         :: SCC energy              -316.475429046844 Eh    ::
         :: repulsion energy           5.523300077982 Eh    ::

    * Orbital Energies and Occupations

         #    Occupation            Energy/Eh            Energy/eV
      -------------------------------------------------------------
         1        2.0000           -0.8119942             -22.0955
       ...           ...                  ...                  ...
       273        2.0000           -0.4213731             -11.4661
       274        2.0000           -0.4208932             -11.4531
       275        2.0000           -0.4208417             -11.4517
       276        2.0000           -0.4203580             -11.4385
       277        2.0000           -0.4163147             -11.3285
       278        2.0000           -0.4133084             -11.2467
       279        2.0000           -0.4127272             -11.2309
       280        2.0000           -0.4064346             -11.0596
       281        2.0000           -0.4052914             -11.0285
       282        2.0000           -0.4052234             -11.0267
       283        2.0000           -0.3935159             -10.7081
       284        2.0000           -0.3892434             -10.5919
       285        2.0000           -0.3836736             -10.4403 (HOMO)
       286                         -0.3510476              -9.5525 (LUMO)
       287                         -0.3434186              -9.3449
       288                         -0.3397864              -9.2461
       289                         -0.3388132              -9.2196
       290                         -0.3383409              -9.2067
       291                         -0.3377725              -9.1913
       292                         -0.3165083              -8.6126
       293                         -0.3083163              -8.3897
       294                         -0.3074816              -8.3670
       295                         -0.3037522              -8.2655
       296                         -0.3013805              -8.2010
       ...                                ...                  ...
       608                          1.5991451              43.5150
      -------------------------------------------------------------
                  HL-Gap            0.0326260 Eh            0.8878 eV

Wiberg/Mayer (AO) data.
largest (>0.10) Wiberg bond orders for each atom

     #   Z sym  total        # sym  WBO       # sym  WBO       # sym  WBO
 ---------------------------------------------------------------------------
     1   6 C    3.926 --    35 C    1.367     2 C    1.347    37 H    0.971
     2   6 C    3.902 --     1 C    1.347     3 C    1.229     6 N    1.169
     3   6 C    3.954 --     4 C    1.596     2 C    1.229    38 H    0.976
     4   6 C    3.959 --     3 C    1.596     5 C    1.234    39 H    0.974
     5   6 C    3.897 --     7 C    1.302     4 C    1.234     6 N    1.178
     6   7 N    3.470 --     5 C    1.178     2 C    1.169    40 H    0.873
     7   6 C    3.939 --    14 C    1.336     5 C    1.302     8 C    1.029
     8   6 C    3.986 --    13 C    1.392     9 C    1.392     7 C    1.029
                            11 N    0.106
     9   6 C    3.987 --    10 C    1.442     8 C    1.392    41 H    0.973
                            12 C    0.109
    10   6 C    3.972 --     9 C    1.442    11 N    1.415    42 H    0.972
                            13 C    0.108
    11   7 N    3.029 --    12 C    1.416    10 C    1.415     8 C    0.106
    12   6 C    3.972 --    13 C    1.442    11 N    1.416    43 H    0.972
                             9 C    0.109
    13   6 C    3.986 --    12 C    1.442     8 C    1.392    44 H    0.973
                            10 C    0.108
    14   6 C    3.915 --     7 C    1.336    17 N    1.285    15 C    1.124
    15   6 C    3.966 --    16 C    1.711    14 C    1.124    45 H    0.973
    16   6 C    3.964 --    15 C    1.711    18 C    1.127    46 H    0.974
    17   7 N    3.022 --    18 C    1.345    14 C    1.285
    18   6 C    3.907 --    17 N    1.345    19 C    1.253    16 C    1.127
    19   6 C    3.938 --    18 C    1.253    20 C    1.251   111 C    1.193
    20   6 C    3.884 --    19 C    1.251    21 C    1.248    24 N    1.189
    21   6 C    3.959 --    22 C    1.584    20 C    1.248    47 H    0.975
    22   6 C    3.954 --    21 C    1.584    23 C    1.240    48 H    0.974
    23   6 C    3.899 --    25 C    1.309    22 C    1.240    24 N    1.165
    24   7 N    3.474 --    20 C    1.189    23 C    1.165    49 H    0.873
    25   6 C    3.925 --    32 C    1.320    23 C    1.309    26 C    1.031
    26   6 C    3.986 --    27 C    1.392    31 C    1.391    25 C    1.031
                            29 N    0.106
    27   6 C    3.986 --    28 C    1.442    26 C    1.392    50 H    0.973
                            30 C    0.108
    28   6 C    3.972 --    27 C    1.442    29 N    1.416    51 H    0.972
                            31 C    0.108
    29   7 N    3.029 --    28 C    1.416    30 C    1.415    26 C    0.106
    30   6 C    3.972 --    31 C    1.443    29 N    1.415    52 H    0.972
                            27 C    0.108
    31   6 C    3.986 --    30 C    1.443    26 C    1.391    53 H    0.973
                            28 C    0.108
    32   6 C    3.929 --    25 C    1.320    36 N    1.318    33 C    1.117
    33   6 C    3.967 --    34 C    1.724    32 C    1.117    54 H    0.973
    34   6 C    3.966 --    33 C    1.724    35 C    1.116    55 H    0.976
    35   6 C    3.928 --     1 C    1.367    36 N    1.299    34 C    1.116
    36   7 N    3.012 --    32 C    1.318    35 C    1.299
    37   1 H    1.002 --     1 C    0.971
    38   1 H    0.997 --     3 C    0.976
    39   1 H    1.004 --     4 C    0.974
    40   1 H    0.986 --     6 N    0.873
    41   1 H    1.004 --     9 C    0.973
    42   1 H    1.013 --    10 C    0.972
    43   1 H    1.013 --    12 C    0.972
    44   1 H    1.004 --    13 C    0.973
    45   1 H    1.004 --    15 C    0.973
    46   1 H    1.002 --    16 C    0.974
    47   1 H    1.002 --    21 C    0.975
    48   1 H    1.004 --    22 C    0.974
    49   1 H    0.987 --    24 N    0.873
    50   1 H    1.004 --    27 C    0.973
    51   1 H    1.013 --    28 C    0.972
    52   1 H    1.013 --    30 C    0.972
    53   1 H    1.004 --    31 C    0.973
    54   1 H    1.005 --    33 C    0.973
    55   1 H    0.998 --    34 C    0.976
    56   6 C    3.926 --    90 C    1.367    57 C    1.347    92 H    0.971
    57   6 C    3.902 --    56 C    1.347    58 C    1.229    61 N    1.169
    58   6 C    3.954 --    59 C    1.596    57 C    1.229    93 H    0.976
    59   6 C    3.959 --    58 C    1.596    60 C    1.234    94 H    0.974
    60   6 C    3.897 --    62 C    1.302    59 C    1.234    61 N    1.178
    61   7 N    3.470 --    60 C    1.178    57 C    1.169    95 H    0.873
    62   6 C    3.939 --    69 C    1.336    60 C    1.302    63 C    1.030
    63   6 C    3.986 --    68 C    1.392    64 C    1.392    62 C    1.030
                            66 N    0.106
    64   6 C    3.987 --    65 C    1.442    63 C    1.392    96 H    0.973
                            67 C    0.108
    65   6 C    3.972 --    64 C    1.442    66 N    1.415    97 H    0.972
                            68 C    0.108
    66   7 N    3.029 --    67 C    1.416    65 C    1.415    63 C    0.106
    67   6 C    3.972 --    68 C    1.442    66 N    1.416    98 H    0.972
                            64 C    0.108
    68   6 C    3.986 --    67 C    1.442    63 C    1.392    99 H    0.973
                            65 C    0.108
    69   6 C    3.915 --    62 C    1.336    72 N    1.285    70 C    1.124
    70   6 C    3.966 --    71 C    1.711    69 C    1.124   100 H    0.973
    71   6 C    3.964 --    70 C    1.711    73 C    1.127   101 H    0.974
    72   7 N    3.022 --    73 C    1.345    69 C    1.285
    73   6 C    3.907 --    72 N    1.345    74 C    1.253    71 C    1.127
    74   6 C    3.938 --    73 C    1.253    75 C    1.251   126 C    1.193
    75   6 C    3.884 --    74 C    1.251    76 C    1.248    79 N    1.189
    76   6 C    3.959 --    77 C    1.584    75 C    1.248   102 H    0.975
    77   6 C    3.954 --    76 C    1.584    78 C    1.240   103 H    0.974
    78   6 C    3.899 --    80 C    1.309    77 C    1.240    79 N    1.165
    79   7 N    3.474 --    75 C    1.189    78 C    1.165   104 H    0.873
    80   6 C    3.925 --    87 C    1.320    78 C    1.309    81 C    1.031
    81   6 C    3.986 --    82 C    1.392    86 C    1.391    80 C    1.031
                            84 N    0.106
    82   6 C    3.986 --    83 C    1.442    81 C    1.392   105 H    0.973
                            85 C    0.108
    83   6 C    3.972 --    82 C    1.442    84 N    1.416   106 H    0.972
                            86 C    0.108
    84   7 N    3.029 --    83 C    1.416    85 C    1.415    81 C    0.106
    85   6 C    3.972 --    86 C    1.443    84 N    1.415   107 H    0.972
                            82 C    0.108
    86   6 C    3.986 --    85 C    1.443    81 C    1.391   108 H    0.973
                            83 C    0.108
    87   6 C    3.929 --    80 C    1.320    91 N    1.318    88 C    1.117
    88   6 C    3.967 --    89 C    1.724    87 C    1.117   109 H    0.973
    89   6 C    3.966 --    88 C    1.724    90 C    1.116   110 H    0.976
    90   6 C    3.928 --    56 C    1.367    91 N    1.299    89 C    1.116
    91   7 N    3.012 --    87 C    1.318    90 C    1.299
    92   1 H    1.002 --    56 C    0.971
    93   1 H    0.997 --    58 C    0.976
    94   1 H    1.004 --    59 C    0.974
    95   1 H    0.986 --    61 N    0.873
    96   1 H    1.004 --    64 C    0.973
    97   1 H    1.013 --    65 C    0.972
    98   1 H    1.013 --    67 C    0.972
    99   1 H    1.004 --    68 C    0.973
   100   1 H    1.004 --    70 C    0.973
   101   1 H    1.002 --    71 C    0.974
   102   1 H    1.002 --    76 C    0.975
   103   1 H    1.004 --    77 C    0.974
   104   1 H    0.987 --    79 N    0.873
   105   1 H    1.004 --    82 C    0.973
   106   1 H    1.013 --    83 C    0.972
   107   1 H    1.013 --    85 C    0.972
   108   1 H    1.004 --    86 C    0.973
   109   1 H    1.005 --    88 C    0.973
   110   1 H    0.998 --    89 C    0.976
   111   6 C    3.876 --   112 C    2.436    19 C    1.193   114 C    0.186
   112   6 C    3.932 --   111 C    2.436   113 C    1.346
   113   6 C    3.891 --   114 C    2.333   112 C    1.346   116 C    0.182
   114   6 C    3.924 --   113 C    2.333   115 C    1.371   111 C    0.186
   115   6 C    3.922 --   116 C    2.332   114 C    1.371   118 C    0.186
   116   6 C    3.892 --   115 C    2.332   117 C    1.347   113 C    0.182
   117   6 C    3.929 --   118 C    2.433   116 C    1.347
   118   6 C    3.877 --   117 C    2.433   127 C    1.196   115 C    0.186
   119   6 C    3.877 --   120 C    2.433   145 C    1.197   122 C    0.186
   120   6 C    3.929 --   119 C    2.433   121 C    1.347
   121   6 C    3.892 --   122 C    2.331   120 C    1.347   124 C    0.182
   122   6 C    3.922 --   121 C    2.331   123 C    1.371   119 C    0.186
   123   6 C    3.924 --   124 C    2.333   122 C    1.371   126 C    0.186
   124   6 C    3.891 --   123 C    2.333   125 C    1.346   121 C    0.182
   125   6 C    3.932 --   126 C    2.436   124 C    1.346
   126   6 C    3.876 --   125 C    2.436    74 C    1.193   123 C    0.186
   127   6 C    3.925 --   161 C    1.252   128 C    1.246   118 C    1.196
   128   6 C    3.884 --   129 C    1.253   127 C    1.246   132 N    1.189
   129   6 C    3.956 --   130 C    1.578   128 C    1.253   163 H    0.975
   130   6 C    3.955 --   129 C    1.578   131 C    1.246   164 H    0.974
   131   6 C    3.894 --   133 C    1.299   130 C    1.246   132 N    1.167
   132   7 N    3.471 --   128 C    1.189   131 C    1.167   165 H    0.874
   133   6 C    3.928 --   140 C    1.338   131 C    1.299   134 C    1.028
   134   6 C    3.986 --   139 C    1.393   135 C    1.392   133 C    1.028
                           137 N    0.107
   135   6 C    3.987 --   136 C    1.442   134 C    1.392   166 H    0.973
                           138 C    0.109
   136   6 C    3.972 --   135 C    1.442   137 N    1.415   167 H    0.972
                           139 C    0.109
   137   7 N    3.030 --   138 C    1.416   136 C    1.415   134 C    0.107
   138   6 C    3.972 --   139 C    1.441   137 N    1.416   168 H    0.972
                           135 C    0.109
   139   6 C    3.986 --   138 C    1.441   134 C    1.393   169 H    0.973
                           136 C    0.109
   140   6 C    3.916 --   133 C    1.338   143 N    1.283   141 C    1.124
   141   6 C    3.966 --   142 C    1.711   140 C    1.124   170 H    0.973
   142   6 C    3.964 --   141 C    1.711   144 C    1.129   171 H    0.974
   143   7 N    3.009 --   144 C    1.345   140 C    1.283
   144   6 C    3.907 --   143 N    1.345   145 C    1.252   142 C    1.129
   145   6 C    3.925 --   144 C    1.252   146 C    1.246   119 C    1.197
   146   6 C    3.884 --   147 C    1.253   145 C    1.246   150 N    1.189
   147   6 C    3.956 --   148 C    1.577   146 C    1.253   172 H    0.975
   148   6 C    3.955 --   147 C    1.577   149 C    1.246   173 H    0.974
   149   6 C    3.894 --   151 C    1.299   148 C    1.246   150 N    1.167
   150   7 N    3.471 --   146 C    1.189   149 C    1.167   174 H    0.874
   151   6 C    3.928 --   158 C    1.338   149 C    1.299   152 C    1.028
   152   6 C    3.986 --   157 C    1.393   153 C    1.393   151 C    1.028
                           155 N    0.107
   153   6 C    3.987 --   154 C    1.442   152 C    1.393   175 H    0.973
                           156 C    0.109
   154   6 C    3.972 --   153 C    1.442   155 N    1.415   176 H    0.972
                           157 C    0.109
   155   7 N    3.030 --   156 C    1.416   154 C    1.415   152 C    0.107
   156   6 C    3.972 --   157 C    1.441   155 N    1.416   177 H    0.972
                           153 C    0.109
   157   6 C    3.986 --   156 C    1.441   152 C    1.393   178 H    0.973
                           154 C    0.109
   158   6 C    3.916 --   151 C    1.338   162 N    1.283   159 C    1.124
   159   6 C    3.966 --   160 C    1.711   158 C    1.124   179 H    0.973
   160   6 C    3.964 --   159 C    1.711   161 C    1.129   180 H    0.974
   161   6 C    3.907 --   162 N    1.345   127 C    1.252   160 C    1.129
   162   7 N    3.009 --   161 C    1.345   158 C    1.283
   163   1 H    1.001 --   129 C    0.975
   164   1 H    1.004 --   130 C    0.974
   165   1 H    0.987 --   132 N    0.874
   166   1 H    1.004 --   135 C    0.973
   167   1 H    1.013 --   136 C    0.972
   168   1 H    1.013 --   138 C    0.972
   169   1 H    1.004 --   139 C    0.973
   170   1 H    1.004 --   141 C    0.973
   171   1 H    1.002 --   142 C    0.974
   172   1 H    1.001 --   147 C    0.975
   173   1 H    1.004 --   148 C    0.974
   174   1 H    0.987 --   150 N    0.874
   175   1 H    1.004 --   153 C    0.973
   176   1 H    1.013 --   154 C    0.972
   177   1 H    1.013 --   156 C    0.972
   178   1 H    1.004 --   157 C    0.973
   179   1 H    1.004 --   159 C    0.973
   180   1 H    1.002 --   160 C    0.974
 ---------------------------------------------------------------------------

           -------------------------------------------------
          | TOTAL ENERGY             -311.104218623065 Eh   |
          | GRADIENT NORM               0.000203124934 Eh/α |
          | HOMO-LUMO GAP               0.887797815472 eV   |
           -------------------------------------------------

 * finished run on 2022/07/27 at 10:56:52.648
