   * xtb version 6.5.1 (b24c23e) compiled by 'conda@728c89f4b128' on 2022-07-12
          program call               : xtb Cu_NMA_C8_2.xyz --gfn 1 --opt -T 48

   ID    Z sym.   atoms
    1   29 Cu     1, 67
    2    6 C      2-6, 8-12, 14-19, 21-26, 28-32, 34-40, 68-72, 74-78, 80-85,
                  87-92, 94-98, 100-106, 133-140
    3    7 N      7, 13, 20, 27, 33, 41, 73, 79, 86, 93, 99, 107
    4    1 H      42-66, 108-132
########################################################################
[WARNING] Please study the warnings concerning your input carefully
-1- prog_main_parseArguments: Unknown option '-T' provided
########################################################################

          :  Hamiltonian                  GFN1-xTB          :
 * total energy  :  -217.9056288 Eh     change       -0.1141814E-08 Eh
 * total energy  :  -230.6050413 Eh     change       -0.1269941E+02 Eh
 * total energy  :  -232.1011626 Eh     change       -0.1496121E+01 Eh
 * total energy  :  -232.9382538 Eh     change       -0.8370912E+00 Eh
 * total energy  :  -233.4234958 Eh     change       -0.4852420E+00 Eh
 * total energy  :  -233.6887723 Eh     change       -0.2652765E+00 Eh
 * total energy  :  -233.8653733 Eh     change       -0.1766010E+00 Eh
 * total energy  :  -234.0081478 Eh     change       -0.1427745E+00 Eh
 * total energy  :  -234.1284499 Eh     change       -0.1203021E+00 Eh
 * total energy  :  -234.2449038 Eh     change       -0.1164539E+00 Eh
 * total energy  :  -234.7742305 Eh     change       -0.1968281E-04 Eh
 * total energy  :  -234.7742512 Eh     change       -0.2077624E-04 Eh
 * total energy  :  -234.7742722 Eh     change       -0.2100821E-04 Eh
 * total energy  :  -234.7742932 Eh     change       -0.2096783E-04 Eh
 * total energy  :  -234.7743144 Eh     change       -0.2117215E-04 Eh
 * total energy  :  -234.7743364 Eh     change       -0.2199736E-04 Eh
 * total energy  :  -234.7743592 Eh     change       -0.2281009E-04 Eh
 * total energy  :  -234.7743816 Eh     change       -0.2236613E-04 Eh
 * total energy  :  -234.7743846 Eh     change       -0.3002109E-05 Eh
   *** GEOMETRY OPTIMIZATION CONVERGED AFTER 94 ITERATIONS ***

 final structure:
================
140
 xtb: 6.5.1 (b24c23e)
Cu          15.03232416711476        0.02828718488125        0.00228283376271
C           11.62974243453428        0.09403634352791       -0.06659584369785
C           12.25447865208120        1.02006624688423        0.75590787904614
C           11.56946225324725        1.94570574812970        1.61118060554006
C           12.52115760478788        2.67007374589717        2.25168986227872
C           13.79662576120549        2.20422352679244        1.78056896820428
N           13.60343252103296        1.19694928735769        0.87968164933053
C           15.03701296469592        2.70003425487458        2.19463248820359
C           15.04595267114400        3.84100218143191        3.13988891273955
C           14.44123740599946        5.05564817014960        2.80452413619187
C           14.46761421984634        6.12427413196617        3.68061997172964
C           15.09176674109300        6.00678241880047        4.92874151198532
N           15.14197154228692        7.12352906321330        5.74957340900313
C           15.34342305107728        6.95904576204657        7.18269925257514
C           15.69796966019351        4.79415063643985        5.26951616664619
C           15.67283569369089        3.73140795023998        4.38272212261831
C           16.27372721438627        2.19930255792561        1.78000235846306
C           17.54665523031825        2.76188323238118        2.13190019947219
C           18.49852209668301        2.00124006394529        1.53360466708020
N           16.47085628946009        1.11682875545096        0.96342699574445
C           17.81477181380328        0.97563607499781        0.80580376507085
C           18.45808560224621       -0.02471016782436        0.05515730913305
C           17.80745908689371       -1.00976123421894       -0.70938568402750
C           18.48115551825027       -2.06095589315035       -1.40949740113991
C           17.52482909466839       -2.79747547392971       -2.03047582485535
C           16.25984532418668       -2.19277853171004       -1.72254927006574
N           16.46526778784732       -1.11129852464159       -0.90660758119107
C           15.02189716827237       -2.65366639507493       -2.17754849902896
C           15.02428497448837       -3.80173270162941       -3.11431103003053
C           15.69761179014130       -3.72357959185555       -4.33498116642778
C           15.71821583282253       -4.79404006482619       -5.21253955441828
C           15.06042132222900       -5.98303434215904       -4.88441374341621
N           15.10325148729120       -7.10837773721346       -5.69384005939118
C           15.36455889123676       -6.96468929202149       -7.11945890424649
C           14.38826499072255       -6.06864313621165       -3.65880556879730
C           14.36670496444405       -4.99220472270653       -2.79214838000962
C           13.78592974349804       -2.10923898929480       -1.81465449303772
C           12.51355488109857       -2.52844485180950       -2.33528275831803
C           11.56574735943982       -1.76167847931727       -1.73992955490522
C           12.25088206902430       -0.85855574765266       -0.86096258770921
N           13.59576603273199       -1.08907204760443       -0.92781299550014
H           10.54486973886019        0.11604268946174       -0.08973218383235
H           10.49735000955629        2.01278931991169        1.71072797636242
H           12.37815553721539        3.44306087788065        2.98969399357476
H           13.96669992317376        5.16702054807218        1.83563672472050
H           14.00627784460987        7.06589157699440        3.40185628632068
H           14.41957990160608        7.80049057083965        5.53588532901433
H           16.35409254839793        6.59881074343506        7.37895716527633
H           14.62026072023252        6.25742307591186        7.61415365757989
H           15.22384669658615        7.93479178941497        7.65361068567439
H           16.19341844263204        4.67355827206168        6.22504829888197
H           16.13285869985498        2.79073490156744        4.66574793145807
H           17.69099703511819        3.63890664478301        2.74175792207995
H           19.56945506325833        2.12223003416707        1.56878827637465
H           19.54842967080809       -2.21492906474073       -1.41093687619155
H           17.66052162598957       -3.68358711396062       -2.62908174831350
H           16.19845989755394       -2.80111359006228       -4.60845271782035
H           16.25054352391835       -4.69786526520714       -6.15083996626012
H           14.35084296791023       -7.75872274077087       -5.50230461979432
H           14.67847409041203       -6.24813550017339       -7.58558810061970
H           15.23631295261684       -7.94176560306650       -7.58532991834062
H           16.39170488321832       -6.63447361560061       -7.27946784914651
H           13.88580080038730       -6.99188275638596       -3.38982242711488
H           13.85411946771481       -5.07911847329735       -1.84027718864076
H           12.37089109159703       -3.30109688093703       -3.07372899856345
H           10.49689996376088       -1.78676757347040       -1.88403831170043
Cu          33.62487176796879       -0.01120946193164       -0.02854904621898
C           37.02750934697489        0.04276010211519       -0.10432205943265
C           36.40387560492542       -0.96214190150005       -0.82928475735231
C           37.08993281422062       -1.99843015481180       -1.54553533644538
C           36.13904689685729       -2.78158773925637       -2.11402332707563
C           34.86306574036903       -2.22078798125337       -1.76309058553553
N           35.05512007096017       -1.12198066056457       -0.97616657720033
C           33.62326339659633       -2.73340967508675       -2.15785953439004
C           33.61546361389631       -3.90476997241823       -3.06527305613042
C           34.21936502643974       -3.84147271451910       -4.32414284029930
C           34.19323724626410       -4.92926969744188       -5.17633209278099
C           33.57033453912607       -6.12237014270354       -4.78942171781732
N           33.51991318926912       -7.16649946308952       -5.70080676695770
C           33.31861186575584       -8.52957292698053       -5.22864137220610
C           32.96542587127723       -6.19153392829765       -3.53109356439659
C           32.99010325137093       -5.09450106218102       -2.68706196425564
C           32.38598776860427       -2.21996366628147       -1.76090002797114
C           31.11371154880580       -2.68677972707139       -2.23426534359114
C           30.16094609147601       -1.93721715769731       -1.62353676704609
N           32.18759613051686       -1.18693147225751       -0.88290645073108
C           30.84350421359276       -1.00288563706261       -0.78078343626243
C           30.19906619642499       -0.05244062568396        0.03118722581504
C           30.84857959323976        0.90885436223922        0.82632958671485
C           30.17367500771022        1.82099534781358        1.69897423747310
C           31.12913188112162        2.58794863265976        2.28337094376813
C           32.39477855962922        2.15631415092314        1.76136579699701
N           32.19061741752407        1.12412837736941        0.88359641117257
C           33.63218754531181        2.70145479368028        2.11302610094327
C           33.62855469977229        3.86616864143365        3.02891104954993
C           32.95325598672989        5.03935818348891        2.68661416411833
C           32.93182896244189        6.12951342258421        3.53954529815812
C           33.59099719870554        6.07008179009527        4.77081622117255
N           33.54793310764381        7.10599274563891        5.69192526007013
C           33.28518642213292        8.46540683434845        5.23991339615207
C           34.26495579129980        4.89366278860263        5.12159388816241
C           34.28711960968982        3.81275183470839        4.26054306079563
C           34.86877459386117        2.22897777322069        1.66199829743916
C           36.14063652329607        2.82922872061608        1.95829508436785
C           37.08931945977461        2.08098665214098        1.34116405092138
C           36.40523320492868        1.02570563267351        0.65123972686057
N           35.06011068350069        1.14074023666468        0.86041546526096
H           38.11240805052933        0.06086653710062       -0.12961424797858
H           38.16212603976385       -2.10983677206197       -1.58826909230363
H           36.28283306822023       -3.67011242456518       -2.70771381695755
H           34.69286771874880       -2.91966693361339       -4.64416058675951
H           34.65365894588771       -4.86182614503012       -6.15645836784494
H           34.24178532615387       -7.10505791532741       -6.40854724452648
H           32.30823100868837       -8.64265785051316       -4.83356259160568
H           34.04234029861462       -8.79840794983140       -4.45060966843213
H           33.43736645896374       -9.20129745955275       -6.07883703089766
H           32.47125700308059       -7.09839258887198       -3.20480873751044
H           32.53090421471796       -5.16623702576886       -1.70696969397376
H           30.97047315181442       -3.47353127939954       -2.95706745615627
H           29.09013821549970       -1.99833976239193       -1.73496406762447
H           29.10625753849491        1.85552155626114        1.84798430232109
H           30.99233305898379        3.36508737283376        3.01771848980347
H           32.45152946973509        5.10407229607820        1.72710560377359
H           32.39785843422916        7.02333749333690        3.24125173425560
H           34.30101375950455        7.06204816007205        6.36772106024808
H           33.97001789765970        8.76370161137949        4.43774989836928
H           33.41418525223381        9.13400802325773        6.09107773529295
H           32.25751319558087        8.54860813091948        4.88404560315016
H           34.76842444332996        4.83359345086063        6.08081209669516
H           34.80109167864050        2.90353813792733        4.55296405940570
H           36.28247122171283        3.71886599478242        2.55080346336114
H           38.15811097188000        2.22754857679408        1.33512224771232
C           19.86247695271071       -0.04080230727287        0.06921779967261
C           21.08697276133085       -0.04970992213011        0.07668523498729
C           22.42914414817974       -0.05783437177046        0.08022217561882
C           23.65983191972359       -0.06369474982117        0.08027976098376
C           24.99728583747641       -0.06809357966813        0.07647236878321
C           26.22799188466171       -0.06978980202437        0.06950774167956
C           27.57014774030382       -0.06766670430564        0.05980739419034
C           28.79468388550167       -0.06342333180539        0.04941668460269

          :  Hamiltonian                  GFN1-xTB          :
         :: total energy            -234.774384555796 Eh    ::
         :: gradient norm              0.000283569349 Eh/a0 ::
         :: HOMO-LUMO gap              0.004142078199 eV    ::
         :: SCC energy              -238.512689546986 Eh    ::
         :: repulsion energy           3.855801640607 Eh    ::

    * Orbital Energies and Occupations

         #    Occupation            Energy/Eh            Energy/eV
      -------------------------------------------------------------
         1        2.0000           -0.7770012             -21.1433
       ...           ...                  ...                  ...
       206        2.0000           -0.3997315             -10.8772
       207        2.0000           -0.3997305             -10.8772
       208        2.0000           -0.3996497             -10.8750
       209        2.0000           -0.3974603             -10.8154
       210        2.0000           -0.3939018             -10.7186
       211        2.0000           -0.3908071             -10.6344
       212        2.0000           -0.3894599             -10.5977
       213        2.0000           -0.3894599             -10.5977
       214        2.0000           -0.3869038             -10.5282
       215        2.0000           -0.3869029             -10.5282
       216        2.0000           -0.3775325             -10.2732
       217        2.0000           -0.3704206             -10.0797
       218        1.0400           -0.3472512              -9.4492 (HOMO)
       219        0.9600           -0.3470990              -9.4450 (LUMO)
       220                         -0.3297000              -8.9716
       221                         -0.3195704              -8.6960
       222                         -0.3182177              -8.6591
       223                         -0.3182167              -8.6591
       224                         -0.2924895              -7.9590
       225                         -0.2902392              -7.8978
       226                         -0.2837968              -7.7225
       227                         -0.2644762              -7.1968
       228                         -0.2543531              -6.9213
       229                         -0.2543509              -6.9212
       ...                                ...                  ...
       470                          1.6167900              43.9951
      -------------------------------------------------------------
                  HL-Gap            0.0001522 Eh            0.0041 eV

Wiberg/Mayer (AO) data.
largest (>0.10) Wiberg bond orders for each atom

     #   Z sym  total        # sym  WBO       # sym  WBO       # sym  WBO
 ---------------------------------------------------------------------------
     1  29 Cu   2.183 --     7 N    0.504    41 N    0.504    20 N    0.501
                            27 N    0.501
     2   6 C    3.926 --    40 C    1.360     3 C    1.360    42 H    0.971
     3   6 C    3.919 --     2 C    1.360     7 N    1.229     4 C    1.173
     4   6 C    3.954 --     5 C    1.651     3 C    1.173    43 H    0.976
     5   6 C    3.958 --     4 C    1.651     6 C    1.176    44 H    0.973
     6   6 C    3.911 --     8 C    1.313     7 N    1.241     5 C    1.176
     7   7 N    3.242 --     6 C    1.241     3 C    1.229     1 Cu   0.504
     8   6 C    3.934 --    17 C    1.324     6 C    1.313     9 C    1.036
     9   6 C    3.988 --    16 C    1.383    10 C    1.374     8 C    1.036
    10   6 C    3.987 --    11 C    1.476     9 C    1.374    45 H    0.973
    11   6 C    3.989 --    10 C    1.476    12 C    1.345    46 H    0.971
    12   6 C    3.952 --    15 C    1.353    11 C    1.345    13 N    1.109
    13   7 N    3.180 --    12 C    1.109    14 C    0.972    47 H    0.931
    14   6 C    3.968 --    50 H    0.990    48 H    0.986    49 H    0.984
                            13 N    0.972
    15   6 C    3.989 --    16 C    1.465    12 C    1.353    51 H    0.970
    16   6 C    3.987 --    15 C    1.465     9 C    1.383    52 H    0.973
    17   6 C    3.907 --     8 C    1.324    20 N    1.222    18 C    1.181
    18   6 C    3.955 --    19 C    1.640    17 C    1.181    53 H    0.973
    19   6 C    3.956 --    18 C    1.640    21 C    1.189    54 H    0.974
    20   7 N    3.246 --    21 C    1.258    17 C    1.222     1 Cu   0.501
    21   6 C    3.898 --    20 N    1.258    22 C    1.256    19 C    1.189
    22   6 C    3.935 --    21 C    1.256    23 C    1.256   133 C    1.192
    23   6 C    3.898 --    27 N    1.258    22 C    1.256    24 C    1.189
    24   6 C    3.956 --    25 C    1.640    23 C    1.189    55 H    0.974
    25   6 C    3.955 --    24 C    1.640    26 C    1.181    56 H    0.973
    26   6 C    3.907 --    28 C    1.325    27 N    1.221    25 C    1.181
    27   7 N    3.246 --    23 C    1.258    26 C    1.221     1 Cu   0.501
    28   6 C    3.934 --    26 C    1.325    37 C    1.313    29 C    1.035
    29   6 C    3.988 --    30 C    1.383    36 C    1.374    28 C    1.035
    30   6 C    3.987 --    31 C    1.465    29 C    1.383    57 H    0.973
    31   6 C    3.989 --    30 C    1.465    32 C    1.353    58 H    0.970
    32   6 C    3.952 --    31 C    1.353    35 C    1.345    33 N    1.110
    33   7 N    3.180 --    32 C    1.110    34 C    0.972    59 H    0.931
    34   6 C    3.968 --    61 H    0.990    62 H    0.986    60 H    0.984
                            33 N    0.972
    35   6 C    3.989 --    36 C    1.476    32 C    1.345    63 H    0.971
    36   6 C    3.987 --    35 C    1.476    29 C    1.374    64 H    0.973
    37   6 C    3.911 --    28 C    1.313    41 N    1.241    38 C    1.176
    38   6 C    3.958 --    39 C    1.651    37 C    1.176    65 H    0.973
    39   6 C    3.954 --    38 C    1.651    40 C    1.173    66 H    0.976
    40   6 C    3.919 --     2 C    1.360    41 N    1.229    39 C    1.173
    41   7 N    3.242 --    37 C    1.241    40 C    1.229     1 Cu   0.504
    42   1 H    1.002 --     2 C    0.971
    43   1 H    0.998 --     4 C    0.976
    44   1 H    1.006 --     5 C    0.973
    45   1 H    1.005 --    10 C    0.973
    46   1 H    0.999 --    11 C    0.971
    47   1 H    0.966 --    13 N    0.931
    48   1 H    1.012 --    14 C    0.986
    49   1 H    1.003 --    14 C    0.984
    50   1 H    1.007 --    14 C    0.990
    51   1 H    1.001 --    15 C    0.970
    52   1 H    1.006 --    16 C    0.973
    53   1 H    1.005 --    18 C    0.973
    54   1 H    1.002 --    19 C    0.974
    55   1 H    1.002 --    24 C    0.974
    56   1 H    1.005 --    25 C    0.973
    57   1 H    1.006 --    30 C    0.973
    58   1 H    1.001 --    31 C    0.970
    59   1 H    0.966 --    33 N    0.931
    60   1 H    1.003 --    34 C    0.984
    61   1 H    1.007 --    34 C    0.990
    62   1 H    1.012 --    34 C    0.986
    63   1 H    0.999 --    35 C    0.971
    64   1 H    1.005 --    36 C    0.973
    65   1 H    1.006 --    38 C    0.973
    66   1 H    0.998 --    39 C    0.976
    67  29 Cu   2.183 --   107 N    0.504    73 N    0.504    86 N    0.501
                            93 N    0.501
    68   6 C    3.926 --   106 C    1.360    69 C    1.360   108 H    0.971
    69   6 C    3.919 --    68 C    1.360    73 N    1.229    70 C    1.173
    70   6 C    3.954 --    71 C    1.651    69 C    1.173   109 H    0.976
    71   6 C    3.958 --    70 C    1.651    72 C    1.176   110 H    0.973
    72   6 C    3.911 --    74 C    1.313    73 N    1.241    71 C    1.176
    73   7 N    3.242 --    72 C    1.241    69 C    1.229    67 Cu   0.504
    74   6 C    3.934 --    83 C    1.325    72 C    1.313    75 C    1.035
    75   6 C    3.988 --    82 C    1.383    76 C    1.374    74 C    1.035
    76   6 C    3.987 --    77 C    1.476    75 C    1.374   111 H    0.973
    77   6 C    3.989 --    76 C    1.476    78 C    1.345   112 H    0.971
    78   6 C    3.952 --    81 C    1.353    77 C    1.345    79 N    1.110
    79   7 N    3.180 --    78 C    1.110    80 C    0.972   113 H    0.931
    80   6 C    3.968 --   116 H    0.990   114 H    0.986   115 H    0.984
                            79 N    0.972
    81   6 C    3.989 --    82 C    1.465    78 C    1.353   117 H    0.970
    82   6 C    3.987 --    81 C    1.465    75 C    1.383   118 H    0.973
    83   6 C    3.907 --    74 C    1.325    86 N    1.222    84 C    1.181
    84   6 C    3.955 --    85 C    1.640    83 C    1.181   119 H    0.973
    85   6 C    3.956 --    84 C    1.640    87 C    1.189   120 H    0.974
    86   7 N    3.246 --    87 C    1.258    83 C    1.222    67 Cu   0.501
    87   6 C    3.898 --    86 N    1.258    88 C    1.256    85 C    1.189
    88   6 C    3.935 --    87 C    1.256    89 C    1.256   140 C    1.192
    89   6 C    3.898 --    93 N    1.258    88 C    1.256    90 C    1.189
    90   6 C    3.956 --    91 C    1.640    89 C    1.189   121 H    0.974
    91   6 C    3.955 --    90 C    1.640    92 C    1.181   122 H    0.973
    92   6 C    3.907 --    94 C    1.325    93 N    1.221    91 C    1.181
    93   7 N    3.246 --    89 C    1.258    92 C    1.221    67 Cu   0.501
    94   6 C    3.934 --    92 C    1.325   103 C    1.313    95 C    1.036
    95   6 C    3.988 --    96 C    1.383   102 C    1.374    94 C    1.036
    96   6 C    3.987 --    97 C    1.465    95 C    1.383   123 H    0.973
    97   6 C    3.989 --    96 C    1.465    98 C    1.353   124 H    0.970
    98   6 C    3.952 --    97 C    1.353   101 C    1.345    99 N    1.110
    99   7 N    3.180 --    98 C    1.110   100 C    0.972   125 H    0.931
   100   6 C    3.968 --   127 H    0.990   128 H    0.986   126 H    0.984
                            99 N    0.972
   101   6 C    3.989 --   102 C    1.476    98 C    1.345   129 H    0.971
   102   6 C    3.987 --   101 C    1.476    95 C    1.374   130 H    0.973
   103   6 C    3.911 --    94 C    1.313   107 N    1.242   104 C    1.176
   104   6 C    3.958 --   105 C    1.651   103 C    1.176   131 H    0.973
   105   6 C    3.954 --   104 C    1.651   106 C    1.173   132 H    0.976
   106   6 C    3.919 --    68 C    1.360   107 N    1.229   105 C    1.173
   107   7 N    3.242 --   103 C    1.242   106 C    1.229    67 Cu   0.504
   108   1 H    1.002 --    68 C    0.971
   109   1 H    0.998 --    70 C    0.976
   110   1 H    1.006 --    71 C    0.973
   111   1 H    1.005 --    76 C    0.973
   112   1 H    0.999 --    77 C    0.971
   113   1 H    0.966 --    79 N    0.931
   114   1 H    1.012 --    80 C    0.986
   115   1 H    1.003 --    80 C    0.984
   116   1 H    1.007 --    80 C    0.990
   117   1 H    1.001 --    81 C    0.970
   118   1 H    1.006 --    82 C    0.973
   119   1 H    1.005 --    84 C    0.973
   120   1 H    1.002 --    85 C    0.974
   121   1 H    1.002 --    90 C    0.974
   122   1 H    1.005 --    91 C    0.973
   123   1 H    1.006 --    96 C    0.973
   124   1 H    1.001 --    97 C    0.970
   125   1 H    0.966 --    99 N    0.931
   126   1 H    1.003 --   100 C    0.984
   127   1 H    1.007 --   100 C    0.990
   128   1 H    1.012 --   100 C    0.986
   129   1 H    0.999 --   101 C    0.971
   130   1 H    1.005 --   102 C    0.973
   131   1 H    1.006 --   104 C    0.973
   132   1 H    0.998 --   105 C    0.976
   133   6 C    3.877 --   134 C    2.438    22 C    1.192   136 C    0.187
   134   6 C    3.934 --   133 C    2.438   135 C    1.345
   135   6 C    3.893 --   136 C    2.335   134 C    1.345   138 C    0.182
   136   6 C    3.925 --   135 C    2.335   137 C    1.370   133 C    0.187
   137   6 C    3.925 --   138 C    2.335   136 C    1.370   140 C    0.187
   138   6 C    3.893 --   137 C    2.335   139 C    1.345   135 C    0.182
   139   6 C    3.934 --   140 C    2.438   138 C    1.345
   140   6 C    3.877 --   139 C    2.438    88 C    1.192   137 C    0.187
 ---------------------------------------------------------------------------

           -------------------------------------------------
          | TOTAL ENERGY             -234.774384555796 Eh   |
          | GRADIENT NORM               0.000283569349 Eh/α |
          | HOMO-LUMO GAP               0.004142078199 eV   |
           -------------------------------------------------

 * finished run on 2022/07/30 at 06:59:46.556
