   * xtb version 6.5.1 (b24c23e) compiled by 'conda@728c89f4b128' on 2022-07-12
          program call               : xtb Ni_BSA_C8_3.xyz --gfn 1 --opt -T 48

   ID    Z sym.   atoms
    1   28 Ni     1, 65, 145
    2    6 C      2-6, 8-12, 17-21, 23-28, 30-34, 39-44, 66-70, 72-76, 81-85,
                  87-92, 94-98, 103-108, 129-144, 146-150, 152-156, 161-165,
                  167-172, 174-178, 183-188
    3    7 N      7, 22, 29, 45, 71, 86, 93, 109, 151, 166, 173, 189
    4   16 S      13, 35, 77, 99, 157, 179
    5    8 O      14-16, 36-38, 78-80, 100-102, 158-160, 180-182
    6    1 H      46-64, 110-128, 190-207

          :  Hamiltonian                  GFN1-xTB          :
 * total energy  :  -422.4087120 Eh     change       -0.1170014E-07 Eh
 * total energy  :  -422.8193261 Eh     change       -0.4106141E+00 Eh
 * total energy  :  -422.9835583 Eh     change       -0.1642321E+00 Eh
 * total energy  :  -423.0560303 Eh     change       -0.7247205E-01 Eh
 * total energy  :  -423.1069539 Eh     change       -0.5092358E-01 Eh
 * total energy  :  -423.1586783 Eh     change       -0.5172434E-01 Eh
 * total energy  :  -423.2161099 Eh     change       -0.5743169E-01 Eh
 * total energy  :  -423.2631502 Eh     change       -0.4704028E-01 Eh
 * total energy  :  -423.2967598 Eh     change       -0.3360953E-01 Eh
 * total energy  :  -423.3241289 Eh     change       -0.2736917E-01 Eh
 * total energy  :  -423.4994330 Eh     change        0.4067663E-05 Eh
 * total energy  :  -423.4994449 Eh     change       -0.1186355E-04 Eh
 * total energy  :  -423.4994252 Eh     change        0.1970090E-04 Eh
 * total energy  :  -423.4994594 Eh     change       -0.3426793E-04 Eh
 * total energy  :  -423.4994528 Eh     change        0.6631091E-05 Eh
 * total energy  :  -423.4994634 Eh     change       -0.1060482E-04 Eh
 * total energy  :  -423.4994688 Eh     change       -0.5408295E-05 Eh
 * total energy  :  -423.4994739 Eh     change       -0.5057586E-05 Eh
 * total energy  :  -423.4994783 Eh     change       -0.4417436E-05 Eh
   *** GEOMETRY OPTIMIZATION CONVERGED AFTER 80 ITERATIONS ***

 final structure:
================
207
 xtb: 6.5.1 (b24c23e)
Ni          28.91328905676982        0.07225904245310        0.02006515569601
C           25.52321946553211        0.18980743091003        0.07472456817112
C           26.17427478734723       -0.26343047057245        1.20307588929531
C           25.49813514718426       -0.71930103025049        2.37922246836068
C           26.45540418159262       -0.99247084547709        3.29603512235711
C           27.71555364373330       -0.68680226725708        2.68339958566042
N           27.53454447642189       -0.27972753930130        1.38570087386544
C           28.93513136044338       -0.74139967680086        3.34564694486213
C           28.94601761070516       -1.09896804281074        4.78399991767373
C           28.29348143113911       -0.28766502031352        5.71563986229258
C           28.30129256829433       -0.61637508525307        7.06104102454562
C           28.96140787758618       -1.76723132317935        7.46056907841726
S           28.97812868381523       -2.18389723533226        9.16354279341354
O           28.86005107582608       -1.01005657931317        9.97770291441222
O           27.56430332997019       -2.98135337099963        9.22343177253558
O           30.03235465417865       -3.11158507956048        9.44967299772114
C           29.61898400523568       -2.59012952169639        6.56095058387557
C           29.61057059061502       -2.24817233217403        5.21851788901754
C           30.14384465019784       -0.46384583207885        2.72066327398437
C           31.40437476218741       -0.43660905776157        3.39891175184244
C           32.35034454480137       -0.20993755165609        2.45622228627106
N           30.31358629595013       -0.21534890083873        1.37796908545973
C           31.66585505734160       -0.09548501967404        1.20778886656838
C           32.32552152369487        0.02634071761177       -0.01824934024523
C           31.64255333671241        0.14670786044510       -1.23174290644852
C           32.30105753823671        0.21255986922676       -2.49738266548482
C           31.33834874024647        0.42753797927882       -3.42594470499464
C           30.09493267476795        0.50622091474681       -2.72065055132503
N           30.28981164891285        0.29091648498737       -1.37539118946768
C           28.88209796066565        0.81647270806777       -3.32166179913329
C           28.86504987712641        1.13398112945055       -4.76923671073809
C           28.13473287487334        0.33799302079641       -5.65504582313952
C           28.10801513479488        0.63417850285363       -7.00791428406864
C           28.81582230441781        1.73536019474800       -7.46137836186784
S           28.77047075324467        2.12737103391698       -9.16979207441264
O           29.04512150145997        3.51790024600851       -9.38559761882807
O           30.07627942060989        1.28460235610978       -9.64175544255012
O           27.61120205958300        1.55474213150093       -9.78686044247963
C           29.54572819199744        2.54575104961281       -6.60695735565565
C           29.56960677120802        2.23741134428613       -5.25678487612163
C           27.68266466470603        0.85149726007147       -2.62190658022848
C           26.42725191732456        1.23302182684044       -3.20091825023965
C           25.48628767688981        1.06114527520862       -2.24367657353408
C           26.16769116667179        0.58247491037115       -1.07959236723642
N           27.51826294533702        0.49155921823343       -1.30839909401302
H           24.44057256916342        0.23224317261734        0.09350124963668
H           24.42790739835092       -0.81326609621751        2.47097177251731
H           26.33279262535681       -1.36866175585547        4.29864000067033
H           27.79201261076738        0.61356861291585        5.38279666912795
H           27.80888022756278        0.01084179315780        7.79350051086474
H           27.37503016779543       -3.25812807857804       10.12826051481080
H           30.12967135324217       -3.47918108479738        6.90898766141089
H           30.11150840757930       -2.88243416040399        4.49653044648902
H           31.53729215498633       -0.56783348002268        4.46030135920197
H           33.41822818267515       -0.12894449851686        2.57876371846671
H           33.36406121337746        0.10531610560337       -2.64073964714515
H           31.44979376549031        0.52240746458338       -4.49368042214576
H           27.59481531630416       -0.52366858817185       -5.28018635425168
H           27.54391779162553        0.02543255867931       -7.70328791634222
H           30.30406171804472        1.50516537580738      -10.55313803434775
H           30.07735683246961        3.40590642998931       -6.99412930921492
H           30.12375660358386        2.86557507366131       -4.56917109068641
H           26.29707204696802        1.59015087704958       -4.20949327934715
H           24.42365016508338        1.23444635633877       -2.30160865103463
Ni          66.05333758420316        0.05686970707188       -0.00436608129161
C           69.44437677643907        0.18160067438464       -0.01844947117108
C           68.79067521128151        0.18434028657021       -1.23289680935977
C           69.46466728556335        0.20300664739780       -2.49530519041308
C           68.50576879286635        0.29435112170880       -3.44587279940008
C           67.24674719932889        0.34643016853092       -2.76109359610880
N           67.43004116275719        0.23789565656197       -1.40577204355168
C           66.02562079033305        0.53709136582836       -3.39462996594371
C           66.01397899215038        0.74389179979880       -4.86234418783831
C           66.65817991452028        1.85061796163573       -5.42102799993257
C           66.65152786753985        2.04965448883940       -6.79162427722306
C           66.00096032633589        1.12651335013319       -7.59434991472609
S           65.98722708504495        1.37681617172347       -9.32959322645499
O           66.10397034466838        2.77018166884148       -9.64480757555554
O           67.40210874682585        0.66000915636445       -9.68025540252120
O           64.93573736654317        0.62206140427265       -9.94508409463181
C           65.35154405542114        0.02111326256441       -7.06968668222175
C           65.35871299600957       -0.16453078386844       -5.69685360307642
C           64.81707262179391        0.55248656440963       -2.71089277549480
C           63.55404395107839        0.81716202782071       -3.33098718132485
C           62.60950818447277        0.67105914080017       -2.37121309730249
N           64.64994228480550        0.28544603070752       -1.37137206185985
C           63.29736007669213        0.32363718352649       -1.16849560901350
C           62.64050286857154       -0.01110571882990        0.01865520487966
C           63.32571743949560       -0.33429327872729        1.19298576138087
C           62.66918721372131       -0.73128209433926        2.39770651480955
C           63.63341556505618       -0.86733982685329        3.33939438437895
C           64.87592121800952       -0.53926597897543        2.70823487423888
N           64.67883496588311       -0.25125670070155        1.37699390101653
C           66.09049851923695       -0.47405877605718        3.37820747000707
C           66.11069665363262       -0.70898273404726        4.84148580763736
C           66.83703869525841       -1.77821054688400        5.37142184110131
C           66.86798495283874       -1.99816182753705        6.73864846905293
C           66.16825666744177       -1.13557338282545        7.56661784449125
S           66.21991406048467       -1.39625901811950        9.29977086654769
O           65.95736703665409       -0.17930126961086       10.01091603067379
O           64.90782844616891       -2.34366827957017        9.43726798414188
O           67.37558081550222       -2.16320870881024        9.65866324589552
C           65.44205140536090       -0.06475219727147        7.07112377275304
C           65.41393459875718        0.14293392166460        5.70190562644006
C           67.28971682544443       -0.19082700655005        2.73707207056823
C           68.54742226944458       -0.05527397878040        3.41291344827372
C           69.48707462365641        0.13213748562727        2.45735550197741
C           68.80246754382392        0.11944447466311        1.20053576603914
N           67.45159404166230       -0.04348322725477        1.38282962448613
H           70.52714275990373        0.22505858998976       -0.02248218514688
H           70.53469865686328        0.15044665251603       -2.61740848924402
H           68.62647011982521        0.32229216105364       -4.51658025857214
H           67.15261958752758        2.56557437423481       -4.77384130185067
H           67.13774210203908        2.90956319995645       -7.23492208770360
H           67.58004723572674        0.71727957139423      -10.62692186895706
H           64.84816417293314       -0.67723004166004       -7.72640203844945
H           64.86441023365212       -1.02737650951367       -5.26599079020579
H           63.41858889552756        1.08586573631679       -4.36581593348995
H           61.54059861057380        0.78217501622474       -2.45503074662387
H           61.60634356524063       -0.88317850973634        2.49418592758130
H           63.52375726179552       -1.16570113723386        4.36916470431837
H           67.37073305670447       -2.44565647135950        4.70495432547960
H           67.42930162977031       -2.82231135927993        7.16057270764992
H           64.67949658179901       -2.46425599974410       10.36704805434850
H           64.91665648031547        0.59674763922161        7.74845366556867
H           64.86270683030783        0.98224350282110        5.29424898157673
H           68.67999782194407       -0.09470360085588        4.48182203496417
H           70.55066625527259        0.26679341024176        2.57240476609292
C           33.73057364730917        0.01752989373173       -0.03176353079778
C           34.95451511971749        0.01145164361907       -0.04029438508735
C           36.29792707077350        0.00620583372923       -0.04663002963106
C           37.52811798729901       -0.00147361473668       -0.04916341910568
C           38.86663429842186       -0.00964367321053       -0.04940257856773
C           40.09689391960718       -0.01618355738140       -0.04812851581850
C           41.44009465451970       -0.02268125386610       -0.04582149160566
C           42.66424887346439       -0.02730155156494       -0.04258343767373
C           52.30082710837550       -0.06356587965083        0.01217607408988
C           53.52489147643973       -0.06601994228676        0.02140199712470
C           54.86839476191467       -0.06594198307530        0.02934455607186
C           56.09857160458877       -0.06277818279730        0.03548922418769
C           57.43740830366260       -0.05770417536190        0.03953801432690
C           58.66754990290134       -0.05166571461344        0.04060421112778
C           60.01125388106529       -0.03975575180815        0.03598520332336
C           61.23509194674817       -0.02863818934560        0.02933921880483
Ni          47.48254485447008       -0.04078285117562       -0.02476832045559
C           44.06852494475484       -0.03134600185840       -0.03775745870813
C           44.74248193823384        0.91977090759859        0.73423967579966
C           44.07703475764410        1.88047107330008        1.55479908880450
C           45.03244935491003        2.71881168011895        2.02470727910203
C           46.27818321040657        2.27038008421660        1.48109540639342
N           46.09339889228254        1.13424141960684        0.72748105336963
C           47.48345410854176        2.94227754596513        1.63989180420662
C           47.47837902052818        4.24215477373346        2.35113982250067
C           48.21136447048961        4.40722077653776        3.52867909471597
C           48.20466975904392        5.62111520624397        4.19629162378784
C           47.46210499753207        6.66536764687519        3.67000454342273
S           47.45935619492267        8.20994370967175        4.50032768091034
O           47.20547602557245        9.28474966325298        3.58591525236864
O           46.12032886192420        7.99738073207585        5.39448367154161
O           48.58605615096162        8.30961689520833        5.37922532718967
C           46.73068855265525        6.53407248993747        2.50054121285528
C           46.73934771022424        5.31439245480934        1.84463283760293
C           48.68966132259727        2.45034649961048        1.15842631121671
C           49.93774958733234        3.14327089144957        1.26193559285450
C           50.89278015106273        2.29782788954638        0.80438077544065
N           48.87319339511117        1.21047712924442        0.59024028812977
C           50.22472600520387        1.09809440720476        0.41227371859742
C           50.89618577302702       -0.05723889230578        0.00081636203911
C           50.21992631097017       -1.20460925893836       -0.42449941942227
C           50.88242705507305       -2.40827177278891       -0.81399084751474
C           49.92682371951179       -3.24050715121968       -1.29405878749848
C           48.68391899355334       -2.53640018182357       -1.20466879146493
N           48.87032140515391       -1.30246029932305       -0.62484992580824
C           47.48001072010609       -3.01511970579374       -1.70495388345742
C           47.47460454849087       -4.30845821374448       -2.42808010795454
C           48.21903708333588       -4.46634604132224       -3.59946776544804
C           48.21141839826817       -5.67319657537736       -4.27959918914707
C           47.45619373698738       -6.71777101951938       -3.77208044946568
S           47.45110696201119       -8.25258748537165       -4.62017765674722
O           47.13834560915799       -9.33143996569060       -3.72909675090757
O           46.15310750202108       -7.99906702484758       -5.56301494195642
O           48.60810894341372       -8.36827705211199       -5.45677492934362
C           46.71386966245979       -6.59384782395216       -2.60878159062101
C           46.72395680906757       -5.38111105185244       -1.94001476186780
C           46.27737401370906       -2.33710959411980       -1.55256244776703
C           45.03324039376403       -2.77612895248707       -2.10746564369140
C           44.07841958344366       -1.93712811072727       -1.63749599250376
C           44.74290570187113       -0.98421277886432       -0.80720734565599
N           46.09270742545836       -1.20491360417028       -0.79286924058704
H           43.01447530359864        1.90058113777909        1.73520417880112
H           44.91426107657475        3.56388309991082        2.68300804491129
H           48.77756827433395        3.57426646175532        3.92876017059324
H           48.76836511137909        5.76035248906951        5.11017853666797
H           45.84644519573302        8.83469614061698        5.78831208435329
H           46.17129849592127        7.37525254314361        2.11081340871502
H           46.18261703327771        5.19279985397513        0.92280685033933
H           50.05793316700353        4.14710921201690        1.63514397139076
H           51.95659957455440        2.45710417433491        0.73453427493627
H           51.94340947915693       -2.57840088366522       -0.72823262616486
H           50.04314948511801       -4.24253427335551       -1.67334355374202
H           48.79495891435885       -3.63310670560111       -3.98481296509223
H           48.78386876991168       -5.80689850872738       -5.18886078119801
H           45.88122724977616       -8.82359832166840       -5.98421327957960
H           46.14497193765368       -7.43525217391140       -2.23356998620923
H           46.15887592668660       -5.26556621108656       -1.02250328277646
H           44.91546072523094       -3.61621034453771       -2.77219422671460
H           43.01689411486980       -1.95153347184020       -1.82447282919660

          :  Hamiltonian                  GFN1-xTB          :
         :: total energy            -423.499478307424 Eh    ::
         :: gradient norm              0.000354413333 Eh/a0 ::
         :: HOMO-LUMO gap              1.185104979874 eV    ::
         :: SCC energy              -429.413618067045 Eh    ::
         :: repulsion energy           6.102986576652 Eh    ::

    * Orbital Energies and Occupations

         #    Occupation            Energy/Eh            Energy/eV
      -------------------------------------------------------------
         1        2.0000           -1.0375420             -28.2330
       ...           ...                  ...                  ...
       357        2.0000           -0.4157302             -11.3126
       358        2.0000           -0.4154700             -11.3055
       359        2.0000           -0.4153802             -11.3031
       360        2.0000           -0.4153736             -11.3029
       361        2.0000           -0.4153670             -11.3027
       362        2.0000           -0.4144797             -11.2786
       363        2.0000           -0.4143053             -11.2738
       364        2.0000           -0.4142034             -11.2710
       365        2.0000           -0.4134106             -11.2495
       366        2.0000           -0.4133099             -11.2467
       367        2.0000           -0.4079367             -11.1005
       368        2.0000           -0.4055458             -11.0355
       369        2.0000           -0.4023111             -10.9474 (HOMO)
       370                         -0.3587593              -9.7623 (LUMO)
       371                         -0.3524920              -9.5918
       372                         -0.3520693              -9.5803
       373                         -0.3507337              -9.5440
       374                         -0.3497232              -9.5165
       375                         -0.3487965              -9.4912
       376                         -0.3470499              -9.4437
       377                         -0.3462299              -9.4214
       378                         -0.3454636              -9.4005
       379                         -0.3303331              -8.9888
       380                         -0.3225486              -8.7770
       ...                                ...                  ...
       761                          1.5905055              43.2799
      -------------------------------------------------------------
                  HL-Gap            0.0435518 Eh            1.1851 eV

Wiberg/Mayer (AO) data.
largest (>0.10) Wiberg bond orders for each atom

     #   Z sym  total        # sym  WBO       # sym  WBO       # sym  WBO
 ---------------------------------------------------------------------------
     1  28 Ni   3.013 --    45 N    0.664     7 N    0.664    22 N    0.660
                            29 N    0.660
     2   6 C    3.936 --    44 C    1.365     3 C    1.364    46 H    0.970
     3   6 C    3.921 --     2 C    1.364     7 N    1.213     4 C    1.174
     4   6 C    3.960 --     5 C    1.651     3 C    1.174    47 H    0.975
     5   6 C    3.963 --     4 C    1.651     6 C    1.175    48 H    0.973
     6   6 C    3.921 --     8 C    1.323     7 N    1.222     5 C    1.175
     7   7 N    3.402 --     6 C    1.222     3 C    1.213     1 Ni   0.664
     8   6 C    3.938 --    19 C    1.326     6 C    1.323     9 C    1.028
     9   6 C    3.986 --    18 C    1.392    10 C    1.390     8 C    1.028
    10   6 C    3.987 --    11 C    1.451     9 C    1.390    49 H    0.971
                            17 C    0.106
    11   6 C    3.989 --    10 C    1.451    12 C    1.407    50 H    0.967
                            18 C    0.106
    12   6 C    3.931 --    17 C    1.408    11 C    1.407    13 S    0.754
    13  16 S    5.265 --    16 O    1.721    14 O    1.719    15 O    1.013
                            12 C    0.754
    14   8 O    2.077 --    13 S    1.719    16 O    0.139
    15   8 O    2.087 --    13 S    1.013    51 H    0.827
    16   8 O    2.080 --    13 S    1.721    14 O    0.139
    17   6 C    3.989 --    18 C    1.449    12 C    1.408    52 H    0.967
                            10 C    0.106
    18   6 C    3.987 --    17 C    1.449     9 C    1.392    53 H    0.971
                            11 C    0.106
    19   6 C    3.915 --     8 C    1.326    22 N    1.208    20 C    1.183
    20   6 C    3.959 --    21 C    1.637    19 C    1.183    54 H    0.973
    21   6 C    3.961 --    20 C    1.637    23 C    1.190    55 H    0.973
    22   7 N    3.406 --    23 C    1.237    19 C    1.208     1 Ni   0.660
    23   6 C    3.902 --    24 C    1.264    22 N    1.237    21 C    1.190
    24   6 C    3.946 --    23 C    1.264    25 C    1.263   129 C    1.184
    25   6 C    3.902 --    24 C    1.263    29 N    1.238    26 C    1.191
    26   6 C    3.961 --    27 C    1.636    25 C    1.191    56 H    0.973
    27   6 C    3.958 --    26 C    1.636    28 C    1.183    57 H    0.973
    28   6 C    3.915 --    30 C    1.327    29 N    1.207    27 C    1.183
    29   7 N    3.406 --    25 C    1.238    28 C    1.207     1 Ni   0.660
    30   6 C    3.938 --    28 C    1.327    41 C    1.322    31 C    1.028
    31   6 C    3.986 --    32 C    1.391    40 C    1.391    30 C    1.028
    32   6 C    3.987 --    33 C    1.449    31 C    1.391    58 H    0.971
                            39 C    0.106
    33   6 C    3.989 --    32 C    1.449    34 C    1.408    59 H    0.967
                            40 C    0.106
    34   6 C    3.931 --    33 C    1.408    39 C    1.407    35 S    0.754
    35  16 S    5.265 --    38 O    1.724    36 O    1.716    37 O    1.013
                            34 C    0.754
    36   8 O    2.075 --    35 S    1.716    38 O    0.139
    37   8 O    2.088 --    35 S    1.013    60 H    0.828
    38   8 O    2.082 --    35 S    1.724    36 O    0.139
    39   6 C    3.989 --    40 C    1.450    34 C    1.407    61 H    0.967
                            32 C    0.106
    40   6 C    3.987 --    39 C    1.450    31 C    1.391    62 H    0.971
                            33 C    0.106
    41   6 C    3.921 --    30 C    1.322    45 N    1.223    42 C    1.175
    42   6 C    3.963 --    43 C    1.651    41 C    1.175    63 H    0.973
    43   6 C    3.960 --    42 C    1.651    44 C    1.173    64 H    0.974
    44   6 C    3.921 --     2 C    1.365    45 N    1.212    43 C    1.173
    45   7 N    3.402 --    41 C    1.223    44 C    1.212     1 Ni   0.664
    46   1 H    1.000 --     2 C    0.970
    47   1 H    0.997 --     4 C    0.975
    48   1 H    1.003 --     5 C    0.973
    49   1 H    1.003 --    10 C    0.971
    50   1 H    0.999 --    11 C    0.967
    51   1 H    0.854 --    15 O    0.827
    52   1 H    1.000 --    17 C    0.967
    53   1 H    1.003 --    18 C    0.971
    54   1 H    1.003 --    20 C    0.973
    55   1 H    1.001 --    21 C    0.973
    56   1 H    1.001 --    26 C    0.973
    57   1 H    1.003 --    27 C    0.973
    58   1 H    1.003 --    32 C    0.971
    59   1 H    0.999 --    33 C    0.967
    60   1 H    0.854 --    37 O    0.828
    61   1 H    0.999 --    39 C    0.967
    62   1 H    1.003 --    40 C    0.971
    63   1 H    1.003 --    42 C    0.973
    64   1 H    0.997 --    43 C    0.974
    65  28 Ni   3.012 --   109 N    0.664    71 N    0.664    86 N    0.660
                            93 N    0.660
    66   6 C    3.937 --   108 C    1.365    67 C    1.364   110 H    0.970
    67   6 C    3.921 --    66 C    1.364    71 N    1.213    68 C    1.174
    68   6 C    3.960 --    69 C    1.651    67 C    1.174   111 H    0.975
    69   6 C    3.963 --    68 C    1.651    70 C    1.175   112 H    0.973
    70   6 C    3.921 --    72 C    1.323    71 N    1.222    69 C    1.175
    71   7 N    3.402 --    70 C    1.222    67 C    1.213    65 Ni   0.664
    72   6 C    3.938 --    83 C    1.327    70 C    1.323    73 C    1.027
    73   6 C    3.986 --    82 C    1.392    74 C    1.391    72 C    1.027
    74   6 C    3.987 --    75 C    1.450    73 C    1.391   113 H    0.971
                            81 C    0.106
    75   6 C    3.989 --    74 C    1.450    76 C    1.407   114 H    0.967
                            82 C    0.106
    76   6 C    3.931 --    81 C    1.408    75 C    1.407    77 S    0.754
    77  16 S    5.264 --    80 O    1.720    78 O    1.719    79 O    1.013
                            76 C    0.754
    78   8 O    2.078 --    77 S    1.719    80 O    0.139
    79   8 O    2.087 --    77 S    1.013   115 H    0.828
    80   8 O    2.079 --    77 S    1.720    78 O    0.139
    81   6 C    3.989 --    82 C    1.449    76 C    1.408   116 H    0.967
                            74 C    0.106
    82   6 C    3.987 --    81 C    1.449    73 C    1.392   117 H    0.971
                            75 C    0.106
    83   6 C    3.915 --    72 C    1.327    86 N    1.208    84 C    1.182
    84   6 C    3.959 --    85 C    1.637    83 C    1.182   118 H    0.973
    85   6 C    3.961 --    84 C    1.637    87 C    1.190   119 H    0.973
    86   7 N    3.406 --    87 C    1.237    83 C    1.208    65 Ni   0.660
    87   6 C    3.902 --    88 C    1.265    86 N    1.237    85 C    1.190
    88   6 C    3.946 --    87 C    1.265    89 C    1.264   144 C    1.182
    89   6 C    3.902 --    88 C    1.264    93 N    1.237    90 C    1.191
    90   6 C    3.961 --    91 C    1.637    89 C    1.191   120 H    0.973
    91   6 C    3.959 --    90 C    1.637    92 C    1.183   121 H    0.973
    92   6 C    3.915 --    94 C    1.327    93 N    1.208    91 C    1.183
    93   7 N    3.406 --    89 C    1.237    92 C    1.208    65 Ni   0.660
    94   6 C    3.938 --    92 C    1.327   105 C    1.322    95 C    1.028
    95   6 C    3.986 --    96 C    1.391   104 C    1.391    94 C    1.028
    96   6 C    3.987 --    97 C    1.449    95 C    1.391   122 H    0.971
                           103 C    0.106
    97   6 C    3.989 --    96 C    1.449    98 C    1.408   123 H    0.967
                           104 C    0.106
    98   6 C    3.931 --    97 C    1.408   103 C    1.407    99 S    0.754
    99  16 S    5.266 --   102 O    1.724   100 O    1.716   101 O    1.013
                            98 C    0.754
   100   8 O    2.075 --    99 S    1.716   102 O    0.139
   101   8 O    2.088 --    99 S    1.013   124 H    0.828
   102   8 O    2.082 --    99 S    1.724   100 O    0.139
   103   6 C    3.989 --   104 C    1.450    98 C    1.407   125 H    0.967
                            96 C    0.106
   104   6 C    3.987 --   103 C    1.450    95 C    1.391   126 H    0.971
                            97 C    0.106
   105   6 C    3.921 --    94 C    1.322   109 N    1.223   106 C    1.175
   106   6 C    3.963 --   107 C    1.651   105 C    1.175   127 H    0.973
   107   6 C    3.960 --   106 C    1.651   108 C    1.173   128 H    0.974
   108   6 C    3.921 --    66 C    1.365   109 N    1.212   107 C    1.173
   109   7 N    3.402 --   105 C    1.223   108 C    1.212    65 Ni   0.664
   110   1 H    1.000 --    66 C    0.970
   111   1 H    0.997 --    68 C    0.975
   112   1 H    1.003 --    69 C    0.973
   113   1 H    1.003 --    74 C    0.971
   114   1 H    0.999 --    75 C    0.967
   115   1 H    0.854 --    79 O    0.828
   116   1 H    1.000 --    81 C    0.967
   117   1 H    1.003 --    82 C    0.971
   118   1 H    1.003 --    84 C    0.973
   119   1 H    1.001 --    85 C    0.973
   120   1 H    1.001 --    90 C    0.973
   121   1 H    1.003 --    91 C    0.973
   122   1 H    1.003 --    96 C    0.971
   123   1 H    0.999 --    97 C    0.967
   124   1 H    0.854 --   101 O    0.828
   125   1 H    0.999 --   103 C    0.967
   126   1 H    1.003 --   104 C    0.971
   127   1 H    1.003 --   106 C    0.973
   128   1 H    0.997 --   107 C    0.974
   129   6 C    3.878 --   130 C    2.447    24 C    1.184   132 C    0.187
   130   6 C    3.938 --   129 C    2.447   131 C    1.339
   131   6 C    3.893 --   132 C    2.342   130 C    1.339   134 C    0.183
   132   6 C    3.927 --   131 C    2.342   133 C    1.365   129 C    0.187
   133   6 C    3.926 --   134 C    2.341   132 C    1.365   136 C    0.187
   134   6 C    3.894 --   133 C    2.341   135 C    1.340   131 C    0.183
   135   6 C    3.936 --   136 C    2.445   134 C    1.340
   136   6 C    3.878 --   135 C    2.445   146 C    1.187   133 C    0.187
   137   6 C    3.878 --   138 C    2.446   168 C    1.185   140 C    0.187
   138   6 C    3.936 --   137 C    2.446   139 C    1.339
   139   6 C    3.894 --   140 C    2.343   138 C    1.339   142 C    0.183
   140   6 C    3.925 --   139 C    2.343   141 C    1.363   137 C    0.187
   141   6 C    3.927 --   142 C    2.344   140 C    1.363   144 C    0.187
   142   6 C    3.893 --   141 C    2.344   143 C    1.338   139 C    0.183
   143   6 C    3.938 --   144 C    2.449   142 C    1.338
   144   6 C    3.878 --   143 C    2.449    88 C    1.182   141 C    0.187
   145  28 Ni   3.006 --   166 N    0.660   173 N    0.660   151 N    0.660
                           189 N    0.660
   146   6 C    3.937 --   147 C    1.261   188 C    1.261   136 C    1.187
   147   6 C    3.902 --   146 C    1.261   151 N    1.237   148 C    1.192
   148   6 C    3.959 --   149 C    1.634   147 C    1.192   190 H    0.973
   149   6 C    3.959 --   148 C    1.634   150 C    1.185   191 H    0.973
   150   6 C    3.913 --   152 C    1.324   151 N    1.206   149 C    1.185
   151   7 N    3.400 --   147 C    1.237   150 C    1.206   145 Ni   0.660
   152   6 C    3.934 --   163 C    1.325   150 C    1.324   153 C    1.029
   153   6 C    3.986 --   154 C    1.392   162 C    1.390   152 C    1.029
   154   6 C    3.987 --   155 C    1.448   153 C    1.392   192 H    0.971
                           161 C    0.106
   155   6 C    3.989 --   154 C    1.448   156 C    1.409   193 H    0.966
                           162 C    0.106
   156   6 C    3.931 --   155 C    1.409   161 C    1.407   157 S    0.754
   157  16 S    5.266 --   160 O    1.725   158 O    1.715   159 O    1.014
                           156 C    0.754
   158   8 O    2.074 --   157 S    1.715   160 O    0.139
   159   8 O    2.088 --   157 S    1.014   194 H    0.827
   160   8 O    2.084 --   157 S    1.725   158 O    0.139
   161   6 C    3.989 --   162 C    1.451   156 C    1.407   195 H    0.967
                           154 C    0.106
   162   6 C    3.987 --   161 C    1.451   153 C    1.390   196 H    0.971
                           155 C    0.106
   163   6 C    3.914 --   152 C    1.325   166 N    1.206   164 C    1.184
   164   6 C    3.959 --   165 C    1.635   163 C    1.184   197 H    0.973
   165   6 C    3.960 --   164 C    1.635   167 C    1.192   198 H    0.973
   166   7 N    3.400 --   167 C    1.238   163 C    1.206   145 Ni   0.660
   167   6 C    3.902 --   168 C    1.262   166 N    1.238   165 C    1.192
   168   6 C    3.937 --   169 C    1.262   167 C    1.262   137 C    1.185
   169   6 C    3.902 --   168 C    1.262   173 N    1.237   170 C    1.192
   170   6 C    3.960 --   171 C    1.635   169 C    1.192   199 H    0.973
   171   6 C    3.959 --   170 C    1.635   172 C    1.184   200 H    0.973
   172   6 C    3.914 --   174 C    1.325   173 N    1.206   171 C    1.184
   173   7 N    3.400 --   169 C    1.237   172 C    1.206   145 Ni   0.660
   174   6 C    3.934 --   172 C    1.325   185 C    1.324   175 C    1.029
   175   6 C    3.986 --   176 C    1.392   184 C    1.390   174 C    1.029
   176   6 C    3.987 --   177 C    1.449   175 C    1.392   201 H    0.971
                           183 C    0.106
   177   6 C    3.989 --   176 C    1.449   178 C    1.408   202 H    0.966
                           184 C    0.106
   178   6 C    3.931 --   177 C    1.408   183 C    1.407   179 S    0.754
   179  16 S    5.266 --   182 O    1.725   180 O    1.715   181 O    1.014
                           178 C    0.754
   180   8 O    2.074 --   179 S    1.715   182 O    0.139
   181   8 O    2.088 --   179 S    1.014   203 H    0.828
   182   8 O    2.083 --   179 S    1.725   180 O    0.139
   183   6 C    3.989 --   184 C    1.451   178 C    1.407   204 H    0.967
                           176 C    0.106
   184   6 C    3.987 --   183 C    1.451   175 C    1.390   205 H    0.971
                           177 C    0.106
   185   6 C    3.914 --   174 C    1.324   189 N    1.206   186 C    1.185
   186   6 C    3.959 --   187 C    1.634   185 C    1.185   206 H    0.973
   187   6 C    3.959 --   186 C    1.634   188 C    1.192   207 H    0.973
   188   6 C    3.902 --   146 C    1.261   189 N    1.238   187 C    1.192
   189   7 N    3.400 --   188 C    1.238   185 C    1.206   145 Ni   0.660
   190   1 H    1.001 --   148 C    0.973
   191   1 H    1.003 --   149 C    0.973
   192   1 H    1.003 --   154 C    0.971
   193   1 H    1.000 --   155 C    0.966
   194   1 H    0.854 --   159 O    0.827
   195   1 H    0.999 --   161 C    0.967
   196   1 H    1.003 --   162 C    0.971
   197   1 H    1.003 --   164 C    0.973
   198   1 H    1.001 --   165 C    0.973
   199   1 H    1.001 --   170 C    0.973
   200   1 H    1.003 --   171 C    0.973
   201   1 H    1.003 --   176 C    0.971
   202   1 H    0.999 --   177 C    0.966
   203   1 H    0.854 --   181 O    0.828
   204   1 H    0.999 --   183 C    0.967
   205   1 H    1.003 --   184 C    0.971
   206   1 H    1.003 --   186 C    0.973
   207   1 H    1.001 --   187 C    0.973
 ---------------------------------------------------------------------------

           -------------------------------------------------
          | TOTAL ENERGY             -423.499478307424 Eh   |
          | GRADIENT NORM               0.000354413333 Eh/α |
          | HOMO-LUMO GAP               1.185104979874 eV   |
           -------------------------------------------------

 * finished run on 2022/07/30 at 11:18:07.286
