   * xtb version 6.5.1 (b24c23e) compiled by 'conda@728c89f4b128' on 2022-07-12
          program call               : xtb Zn_PhCHO_C2_3.xyz --gfn 1 --opt -T 48

   ID    Z sym.   atoms
    1   30 Zn     1, 61, 125
    2    6 C      2-6, 8-13, 15-19, 21-26, 28-33, 35-40, 62-66, 68-73, 75-79,
                  81-86, 88-93, 95-100, 121-124, 126-130, 132-137, 139-143,
                  145-150, 152-157, 159-164
    3    7 N      7, 20, 27, 41, 67, 80, 87, 101, 131, 144, 151, 165
    4    8 O      14, 34, 74, 94, 138, 158
    5    1 H      42-60, 102-120, 166-183
########################################################################
[WARNING] Please study the warnings concerning your input carefully
-1- prog_main_parseArguments: Unknown option '-T' provided
########################################################################

          :  Hamiltonian                  GFN1-xTB          :
 * total energy  :  -322.3651886 Eh     change       -0.6240839E-09 Eh
 * total energy  :  -322.6928845 Eh     change       -0.3276960E+00 Eh
 * total energy  :  -322.8253008 Eh     change       -0.1324163E+00 Eh
 * total energy  :  -322.8761654 Eh     change       -0.5086453E-01 Eh
 * total energy  :  -322.8928597 Eh     change       -0.1669429E-01 Eh
 * total energy  :  -322.9028652 Eh     change       -0.1000558E-01 Eh
 * total energy  :  -322.9088950 Eh     change       -0.6029805E-02 Eh
 * total energy  :  -322.9135861 Eh     change       -0.4691016E-02 Eh
 * total energy  :  -322.9166562 Eh     change       -0.3070174E-02 Eh
 * total energy  :  -322.9185818 Eh     change       -0.1925553E-02 Eh
 * total energy  :  -322.9273894 Eh     change       -0.1122477E-04 Eh
 * total energy  :  -322.9273996 Eh     change       -0.1018314E-04 Eh
 * total energy  :  -322.9274079 Eh     change       -0.8314298E-05 Eh
 * total energy  :  -322.9274205 Eh     change       -0.1253203E-04 Eh
 * total energy  :  -322.9274367 Eh     change       -0.1621352E-04 Eh
 * total energy  :  -322.9274572 Eh     change       -0.2050284E-04 Eh
 * total energy  :  -322.9274760 Eh     change       -0.1880560E-04 Eh
 * total energy  :  -322.9274907 Eh     change       -0.1473733E-04 Eh
 * total energy  :  -322.9274946 Eh     change       -0.3828917E-05 Eh
   *** GEOMETRY OPTIMIZATION CONVERGED AFTER 68 ITERATIONS ***

 final structure:
================
183
 xtb: 6.5.1 (b24c23e)
Zn          34.54654387488984        0.01493422693262        0.00248426411937
C           31.13342866683395        0.05841756736385       -0.04921081581194
C           31.76613596930100        1.28711511998065        0.09433977923852
C           31.09506619936274        2.54535542013211        0.26593249592362
C           32.05612725237935        3.49565680278030        0.37819976644323
C           33.32712841433109        2.82991126679791        0.26281272885168
N           33.11607230538163        1.49205093206721        0.10388236730210
C           34.58138098381004        3.44964469302995        0.32028716802130
C           34.60375281492165        4.92308661909824        0.47755631714320
C           35.21306789542220        5.50254615725018        1.59535669364356
C           35.22931321667039        6.87499772641795        1.74961909910296
C           34.64257870675955        7.70241316226187        0.78608730656936
C           34.67386430099794        9.16385762110186        0.97290490950739
O           35.17628849553464        9.70674275306738        1.92372985410108
C           34.03807137798443        7.12575588616679       -0.33373045646075
C           34.01666130399226        5.75066741144989       -0.48398848954717
C           35.81927975414606        2.79967354118005        0.24415918706124
C           37.09511321807073        3.45821952779263        0.20641847618744
C           38.04074774607197        2.48896643462715        0.11725945142645
N           36.01435684410144        1.44730426346163        0.16142429454101
C           37.35703727286791        1.22997731517005        0.10107798902878
C           37.99112271449683       -0.02787104676396        0.03665475753442
C           37.33019890936036       -1.27099481235315       -0.03825066120678
C           37.98703302177329       -2.54245171103572       -0.10908787479533
C           37.01987460115787       -3.48888283674300       -0.21074357851311
C           35.75687446545366       -2.80510045721620       -0.18721064118896
N           35.98250040392971       -1.45866421889721       -0.08210989811031
C           34.50461897471444       -3.42008355170327       -0.30063610325459
C           34.48401778015455       -4.89689944472280       -0.43594884855415
C           33.97086049759808       -5.48841913023634       -1.59386222894527
C           33.94922041832792       -6.86505627128593       -1.72839068983486
C           34.43521535867227       -7.67972411831802       -0.70277250453886
C           34.41844444740296       -9.14885748734135       -0.81894904525706
O           34.82093861943497       -9.89316361706595        0.03841881630579
C           34.94577923769906       -7.08848654048463        0.45774679962742
C           34.97258193389388       -5.71338747305852        0.58845844040798
C           33.26666371239919       -2.76603739251636       -0.29893795226090
C           31.98088367480816       -3.40995145674720       -0.36410790739448
C           31.04094254655727       -2.43494977969229       -0.29321580795169
C           31.73951090706051       -1.18547173980608       -0.17562125125815
N           33.08474663825181       -1.41967115582055       -0.18176090927322
H           30.04793458374972        0.07021951835153       -0.05081180640789
H           30.02446921901491        2.67217906835680        0.30276260159597
H           31.92074427317538        4.55336571393701        0.53784918988600
H           35.65810091801204        4.86345095946041        2.34974495501138
H           35.69379794665614        7.33101992567536        2.61736865328305
H           34.18773089855083        9.73854768716375        0.15577542568161
H           33.58532118889170        7.76044338943931       -1.08864069455361
H           33.55867033949386        5.30714709685380       -1.36098897222244
H           37.24652441566167        4.52538747604262        0.22468848240301
H           39.10873889978028        2.61340048159928        0.05075921762677
H           39.05405206417975       -2.68928104417292       -0.08382811115433
H           37.15051210423231       -4.55494453335042       -0.30287915347986
H           33.60334305030641       -4.85806962129354       -2.39589373352941
H           33.55478670692575       -7.31509492947670       -2.63370025079388
H           33.99755595287720       -9.52554785028400       -1.77566899280254
H           35.31691942829593       -7.72903316148351        1.25060669657902
H           35.35699559065578       -5.25884148750293        1.49459053497609
H           31.82238310052994       -4.47379326420646       -0.43978319200116
H           29.96758752609992       -2.54096808217335       -0.30986542819143
Zn          56.41110502867448       -0.04729412980041       -0.01081977176173
C           59.82241292423321       -0.06589267748253       -0.07947012670735
C           59.19646444560740       -1.30613405138023       -0.10211054408672
C           59.87510516963220       -2.57190340577063       -0.11796003954923
C           58.91983750935669       -3.53449325237175       -0.10894078431078
C           57.64434180761001       -2.86727864118665       -0.09669477317159
N           57.84768031731126       -1.51883871630174       -0.08844664850726
C           56.39558286877583       -3.49925062933262       -0.04923309766292
C           56.38721524559175       -4.98159859723461       -0.06604310865554
C           55.85695747850617       -5.70178966493611        1.00908534864781
C           55.84728244439770       -7.08296452362886        0.98781689352387
C           56.36374804913315       -7.77785644598651       -0.11110341641837
C           56.33610609572550       -9.25112455418711       -0.11326540449238
O           55.89434311328586       -9.91425436174324        0.79032546332940
C           56.89477145988509       -7.06005554519433       -1.18569225189738
C           56.90828432646601       -5.67699407983300       -1.16116460413084
C           55.15410738716889       -2.85490339560507        0.01248920137270
C           53.87818854611676       -3.51499859029395        0.03026305456666
C           52.92838619016260       -2.54625987724243        0.06263083091282
N           54.95359729613991       -1.50068466988062        0.02182151944261
C           53.60982255941320       -1.28571005188685        0.04928222036568
C           52.97145804975832       -0.02922032030643        0.04605191018259
C           53.62213260842594        1.22072025772919        0.02949241567621
C           52.95481781918553        2.48791314607933       -0.02415873937981
C           53.91596358536777        3.44613689240534       -0.02536311124945
C           55.18376142114469        2.77260609208846        0.03038569282124
N           54.96831246695158        1.42089861510503        0.04984502221766
C           56.43331879057810        3.40421216136170        0.02937560360689
C           56.44188965749104        4.88622984390785        0.04953048453383
C           57.02755698860607        5.60463269564722       -0.99705328498680
C           57.03834458893891        6.98785663781361       -0.97922578480818
C           56.46823115137267        7.68245028043578        0.09048681066875
C           56.47404697008253        9.15558392557663        0.13735876909869
O           56.00529607934958        9.79866243110719        1.04152030904092
C           55.88277771174553        6.96453733303330        1.13879540225825
C           55.86696418723752        5.58343455259139        1.11693469231757
C           57.67612496186094        2.75887536903087        0.00947754717352
C           58.95889102357967        3.41017876851808        0.05865280679904
C           59.90337811930119        2.43755001264938        0.02369477550403
C           59.21051817435006        1.18091167290770       -0.03634329707298
N           57.86420551878975        1.40889969775521       -0.03622473112398
H           60.90796190351109       -0.07185881266331       -0.08513175964152
H           60.94662812773042       -2.69594578834387       -0.12659857021617
H           59.06202700515922       -4.60325195947162       -0.09720004161312
H           55.46759464599904       -5.16697600556200        1.86806951380021
H           55.44120668391213       -7.64829093760591        1.81979247807827
H           56.76314543076282       -9.71372979774214       -1.02868606481414
H           57.29517889213943       -7.59086142711577       -2.04338561443254
H           57.30815444819209       -5.12274089140768       -2.00292382207239
H           53.72718743305077       -4.58213526464435        0.00960043185592
H           51.85836718026432       -2.67070705752396        0.09398695865345
H           51.88640146823875        2.62281931577408       -0.06930990387060
H           53.77954203120714        4.51422055643350       -0.07738075932956
H           57.45974551579165        5.06890222216666       -1.83482664834452
H           57.49030667755538        7.53686359477776       -1.79901288154470
H           56.95432648414052        9.63756448669025       -0.74094875373647
H           55.44519887913748        7.51196179115011        1.96675456931195
H           55.42415027733134        5.02994914437209        1.93736025277069
H           59.11281335692438        4.47522349092509        0.12614816780605
H           60.97614455763370        2.54874096462148        0.04428716129294
C           39.40206409005128       -0.03991510062398        0.03980199737221
C           40.62011935896383       -0.04152914107715        0.04784493049662
C           50.34360182635486       -0.02406475610619        0.04166811046979
C           51.56108295229603       -0.02380853149057        0.04607856140878
Zn          45.48323374537707       -0.02984664977782        0.03649215286740
C           42.03076351361906       -0.04056159450941        0.04923671487708
C           42.67805269961312        1.13831729819573        0.47302988156792
C           42.00572453012071        2.33178114286103        0.89192721933514
C           42.96205824645266        3.24382240444630        1.20084589833425
C           44.23242283183210        2.60843196136335        0.99181308590396
N           44.02370544753961        1.33094651189480        0.54550702124849
C           45.47878709543646        3.21266110578040        1.19044549884876
C           45.47880566310499        4.61796170819751        1.66569057670194
C           46.02390513720118        5.62822826679339        0.86725778597963
C           46.01512920236481        6.94045039574520        1.29881087709586
C           45.46769647985597        7.27246729467170        2.54252392564162
C           45.46939066506834        8.68061579869529        2.97944026282447
O           45.91913708858162        9.58401045971979        2.32213871999214
C           44.92950476784526        6.26318616152311        3.34447564881625
C           44.93278823263050        4.94999071010029        2.90848243440673
C           46.72715652358394        2.61719409562806        0.97861294735082
C           47.99431271725690        3.22851272801369        1.26631253807174
C           48.95399295017312        2.32050922609972        0.95484270820990
N           46.93949602360284        1.34969755082500        0.50844178974317
C           48.28501962354028        1.14790285628813        0.47463638640303
C           48.93370323777977       -0.02435380199879        0.03783195321526
C           48.28821201336662       -1.19578750775089       -0.40661716449894
C           48.96070083433928       -2.35890952938199       -0.90399806380071
C           48.00406411640709       -3.26525744952591       -1.22960163895903
C           46.73512967257879       -2.66374352635661       -0.93026160369675
N           46.94337787695861       -1.40247253784200       -0.44151167772973
C           45.48876595141612       -3.26248956762763       -1.14539262668195
C           45.49309354797077       -4.65505669609043       -1.65637412935120
C           46.05303115127963       -5.68296941008669       -0.89248963030666
C           46.05571890139959       -6.98436193804155       -1.36183060904632
C           45.50445225332939       -7.28296675583059       -2.61027826224783
C           45.49970710541777       -8.65990216538752       -3.13633299596956
O           45.04285229186029       -8.96509503503668       -4.20833126930786
C           44.94775837331667       -6.25387411779336       -3.37708254804591
C           44.93907314523371       -4.95580458204327       -2.90433253586237
C           44.24038522366315       -2.66986882042307       -0.92651960856254
C           42.97256182707154       -3.31352584232858       -1.12599935546901
C           42.01307017714459       -2.41193033073646       -0.79693536309159
C           42.68135421400083       -1.21579968957458       -0.37897540788645
N           44.02745655596884       -1.39835641818046       -0.46584862427831
H           40.93665004426488        2.45379456128620        0.94278465494166
H           42.81912323995615        4.25928502826857        1.53306635986698
H           46.43841273013135        5.37500150711654       -0.10208390605171
H           46.42856578023510        7.73094453203014        0.68167489227923
H           45.01582530242894        8.84847211454567        3.97950983207495
H           44.50791678973888        6.51134738804448        4.31313924637126
H           44.52453242301555        4.16723983700641        3.53791257686074
H           48.13055478677778        4.21857511632390        1.67048419635099
H           50.02214346814643        2.42666100588957        1.05236157491517
H           50.02884064746303       -2.45957573609529       -1.00594175223469
H           48.14416235602435       -4.24770702288773       -1.65071770451334
H           46.47223735116955       -5.45516865803787        0.08115332880320
H           46.48618693115690       -7.77715984691066       -0.75869437981167
H           45.95580682001354       -9.40983608304951       -2.45543044625970
H           44.52601843319217       -6.49440155728731       -4.34710729642550
H           44.51744651364486       -4.15860163234479       -3.50613523448063
H           42.83399237089797       -4.32735091599281       -1.46501348531680
H           40.94434630878857       -2.54285819714988       -0.83245965786447

          :  Hamiltonian                  GFN1-xTB          :
         :: total energy            -322.927494556067 Eh    ::
         :: gradient norm              0.000602787159 Eh/a0 ::
         :: HOMO-LUMO gap              0.927917863839 eV    ::
         :: SCC energy              -327.857093771374 Eh    ::
         :: repulsion energy           5.099617794826 Eh    ::

    * Orbital Energies and Occupations

         #    Occupation            Energy/Eh            Energy/eV
      -------------------------------------------------------------
         1        2.0000           -0.7914075             -21.5353
       ...           ...                  ...                  ...
       279        2.0000           -0.4335676             -11.7980
       280        2.0000           -0.4335134             -11.7965
       281        2.0000           -0.4334167             -11.7939
       282        2.0000           -0.4332155             -11.7884
       283        2.0000           -0.4330476             -11.7838
       284        2.0000           -0.4329595             -11.7814
       285        2.0000           -0.4308666             -11.7245
       286        2.0000           -0.4066003             -11.0642
       287        2.0000           -0.4059501             -11.0465
       288        2.0000           -0.4058622             -11.0441
       289        2.0000           -0.4058555             -11.0439
       290        2.0000           -0.3966060             -10.7922
       291        2.0000           -0.3865172             -10.5177 (HOMO)
       292                         -0.3524168              -9.5897 (LUMO)
       293                         -0.3422483              -9.3130
       294                         -0.3421309              -9.3099
       295                         -0.3420603              -9.3079
       296                         -0.3410005              -9.2791
       297                         -0.3302250              -8.9859
       298                         -0.3265890              -8.8869
       299                         -0.3254979              -8.8572
       300                         -0.3251122              -8.8468
       301                         -0.3209573              -8.7337
       302                         -0.3209310              -8.7330
       ...                                ...                  ...
       620                          1.3261118              36.0853
      -------------------------------------------------------------
                  HL-Gap            0.0341004 Eh            0.9279 eV

Wiberg/Mayer (AO) data.
largest (>0.10) Wiberg bond orders for each atom

     #   Z sym  total        # sym  WBO       # sym  WBO       # sym  WBO
 ---------------------------------------------------------------------------
     1  30 Zn   1.993 --    41 N    0.459     7 N    0.458    20 N    0.456
                            27 N    0.455
     2   6 C    3.927 --    40 C    1.358     3 C    1.358    42 H    0.971
     3   6 C    3.920 --     2 C    1.358     7 N    1.233     4 C    1.170
     4   6 C    3.960 --     5 C    1.660     3 C    1.170    43 H    0.975
     5   6 C    3.963 --     4 C    1.660     6 C    1.171    44 H    0.973
     6   6 C    3.918 --     8 C    1.312     7 N    1.246     5 C    1.171
     7   7 N    3.292 --     6 C    1.246     3 C    1.233     1 Zn   0.458
     8   6 C    3.931 --    17 C    1.317     6 C    1.312     9 C    1.035
     9   6 C    3.985 --    16 C    1.382    10 C    1.378     8 C    1.035
    10   6 C    3.987 --    11 C    1.473     9 C    1.378    45 H    0.972
    11   6 C    3.988 --    10 C    1.473    12 C    1.368    46 H    0.968
    12   6 C    3.982 --    15 C    1.377    11 C    1.368    13 C    1.051
    13   6 C    3.864 --    14 O    1.806    12 C    1.051    47 H    0.942
    14   8 O    2.002 --    13 C    1.806
    15   6 C    3.993 --    16 C    1.466    12 C    1.377    48 H    0.971
    16   6 C    3.987 --    15 C    1.466     9 C    1.382    49 H    0.972
    17   6 C    3.912 --     8 C    1.317    20 N    1.229    18 C    1.179
    18   6 C    3.959 --    19 C    1.644    17 C    1.179    50 H    0.973
    19   6 C    3.962 --    18 C    1.644    21 C    1.187    51 H    0.967
    20   7 N    3.296 --    21 C    1.259    17 C    1.229     1 Zn   0.456
    21   6 C    3.905 --    20 N    1.259    22 C    1.258    19 C    1.187
    22   6 C    3.939 --    23 C    1.259    21 C    1.258   121 C    1.180
    23   6 C    3.905 --    27 N    1.260    22 C    1.259    24 C    1.186
    24   6 C    3.962 --    25 C    1.646    23 C    1.186    52 H    0.967
    25   6 C    3.959 --    24 C    1.646    26 C    1.179    53 H    0.973
    26   6 C    3.912 --    28 C    1.320    27 N    1.228    25 C    1.179
    27   7 N    3.295 --    23 C    1.260    26 C    1.228     1 Zn   0.455
    28   6 C    3.931 --    26 C    1.320    37 C    1.313    29 C    1.031
    29   6 C    3.985 --    30 C    1.383    36 C    1.381    28 C    1.031
    30   6 C    3.987 --    31 C    1.466    29 C    1.383    54 H    0.972
                            35 C    0.100
    31   6 C    3.993 --    30 C    1.466    32 C    1.377    55 H    0.971
    32   6 C    3.983 --    31 C    1.377    35 C    1.369    33 C    1.050
    33   6 C    3.864 --    34 O    1.807    32 C    1.050    56 H    0.942
    34   8 O    2.003 --    33 C    1.807
    35   6 C    3.988 --    36 C    1.471    32 C    1.369    57 H    0.968
                            30 C    0.100
    36   6 C    3.987 --    35 C    1.471    29 C    1.381    58 H    0.972
    37   6 C    3.918 --    28 C    1.313    41 N    1.245    38 C    1.171
    38   6 C    3.963 --    39 C    1.660    37 C    1.171    59 H    0.973
    39   6 C    3.960 --    38 C    1.660    40 C    1.170    60 H    0.975
    40   6 C    3.920 --     2 C    1.358    41 N    1.232    39 C    1.170
    41   7 N    3.293 --    37 C    1.245    40 C    1.232     1 Zn   0.459
    42   1 H    1.001 --     2 C    0.971
    43   1 H    0.998 --     4 C    0.975
    44   1 H    1.004 --     5 C    0.973
    45   1 H    1.004 --    10 C    0.972
    46   1 H    1.005 --    11 C    0.968
    47   1 H    1.010 --    13 C    0.942
    48   1 H    1.000 --    15 C    0.971
    49   1 H    1.004 --    16 C    0.972
    50   1 H    1.004 --    18 C    0.973
    51   1 H    1.007 --    19 C    0.967
    52   1 H    1.007 --    24 C    0.967
    53   1 H    1.004 --    25 C    0.973
    54   1 H    1.004 --    30 C    0.972
    55   1 H    1.000 --    31 C    0.971
    56   1 H    1.010 --    33 C    0.942
    57   1 H    1.005 --    35 C    0.968
    58   1 H    1.004 --    36 C    0.972
    59   1 H    1.004 --    38 C    0.973
    60   1 H    0.998 --    39 C    0.975
    61  30 Zn   1.993 --   101 N    0.459    67 N    0.458    80 N    0.456
                            87 N    0.455
    62   6 C    3.928 --    63 C    1.358   100 C    1.358   102 H    0.971
    63   6 C    3.920 --    62 C    1.358    67 N    1.232    64 C    1.170
    64   6 C    3.960 --    65 C    1.660    63 C    1.170   103 H    0.975
    65   6 C    3.963 --    64 C    1.660    66 C    1.171   104 H    0.973
    66   6 C    3.918 --    68 C    1.313    67 N    1.246    65 C    1.171
    67   7 N    3.292 --    66 C    1.246    63 C    1.232    61 Zn   0.458
    68   6 C    3.931 --    77 C    1.319    66 C    1.313    69 C    1.033
    69   6 C    3.985 --    76 C    1.382    70 C    1.379    68 C    1.033
    70   6 C    3.987 --    71 C    1.472    69 C    1.379   105 H    0.972
    71   6 C    3.988 --    70 C    1.472    72 C    1.369   106 H    0.968
    72   6 C    3.983 --    75 C    1.377    71 C    1.369    73 C    1.051
    73   6 C    3.864 --    74 O    1.806    72 C    1.051   107 H    0.942
    74   8 O    2.002 --    73 C    1.806
    75   6 C    3.993 --    76 C    1.466    72 C    1.377   108 H    0.971
    76   6 C    3.987 --    75 C    1.466    69 C    1.382   109 H    0.972
    77   6 C    3.913 --    68 C    1.319    80 N    1.229    78 C    1.179
    78   6 C    3.959 --    79 C    1.645    77 C    1.179   110 H    0.973
    79   6 C    3.962 --    78 C    1.645    81 C    1.186   111 H    0.969
    80   7 N    3.296 --    81 C    1.260    77 C    1.229    61 Zn   0.456
    81   6 C    3.905 --    80 N    1.260    82 C    1.259    79 C    1.186
    82   6 C    3.939 --    83 C    1.259    81 C    1.259   124 C    1.179
    83   6 C    3.906 --    87 N    1.260    82 C    1.259    84 C    1.186
    84   6 C    3.962 --    85 C    1.646    83 C    1.186   112 H    0.969
    85   6 C    3.959 --    84 C    1.646    86 C    1.179   113 H    0.973
    86   6 C    3.912 --    88 C    1.319    87 N    1.229    85 C    1.179
    87   7 N    3.296 --    83 C    1.260    86 C    1.229    61 Zn   0.455
    88   6 C    3.931 --    86 C    1.319    97 C    1.312    89 C    1.035
    89   6 C    3.985 --    90 C    1.382    96 C    1.379    88 C    1.035
    90   6 C    3.987 --    91 C    1.466    89 C    1.382   114 H    0.972
    91   6 C    3.993 --    90 C    1.466    92 C    1.377   115 H    0.971
    92   6 C    3.982 --    91 C    1.377    95 C    1.369    93 C    1.050
    93   6 C    3.864 --    94 O    1.807    92 C    1.050   116 H    0.942
    94   8 O    2.003 --    93 C    1.807
    95   6 C    3.988 --    96 C    1.472    92 C    1.369   117 H    0.968
    96   6 C    3.987 --    95 C    1.472    89 C    1.379   118 H    0.972
    97   6 C    3.918 --    88 C    1.312   101 N    1.246    98 C    1.171
    98   6 C    3.963 --    99 C    1.660    97 C    1.171   119 H    0.973
    99   6 C    3.960 --    98 C    1.660   100 C    1.170   120 H    0.975
   100   6 C    3.920 --    62 C    1.358   101 N    1.233    99 C    1.170
   101   7 N    3.293 --    97 C    1.246   100 C    1.233    61 Zn   0.459
   102   1 H    1.001 --    62 C    0.971
   103   1 H    0.998 --    64 C    0.975
   104   1 H    1.004 --    65 C    0.973
   105   1 H    1.004 --    70 C    0.972
   106   1 H    1.005 --    71 C    0.968
   107   1 H    1.010 --    73 C    0.942
   108   1 H    1.000 --    75 C    0.971
   109   1 H    1.004 --    76 C    0.972
   110   1 H    1.004 --    78 C    0.973
   111   1 H    1.006 --    79 C    0.969
   112   1 H    1.006 --    84 C    0.969
   113   1 H    1.004 --    85 C    0.973
   114   1 H    1.004 --    90 C    0.972
   115   1 H    1.000 --    91 C    0.971
   116   1 H    1.010 --    93 C    0.942
   117   1 H    1.005 --    95 C    0.968
   118   1 H    1.004 --    96 C    0.972
   119   1 H    1.004 --    98 C    0.973
   120   1 H    0.998 --    99 C    0.975
   121   6 C    3.931 --   122 C    2.575    22 C    1.180
   122   6 C    3.934 --   121 C    2.575   126 C    1.181
   123   6 C    3.934 --   124 C    2.575   146 C    1.180
   124   6 C    3.931 --   123 C    2.575    82 C    1.179
   125  30 Zn   1.991 --   131 N    0.456   165 N    0.456   144 N    0.455
                           151 N    0.455
   126   6 C    3.928 --   164 C    1.257   127 C    1.256   122 C    1.181
   127   6 C    3.906 --   131 N    1.261   126 C    1.256   128 C    1.188
   128   6 C    3.960 --   129 C    1.643   127 C    1.188   166 H    0.967
   129   6 C    3.960 --   128 C    1.643   130 C    1.181   167 H    0.973
   130   6 C    3.911 --   132 C    1.318   131 N    1.226   129 C    1.181
   131   7 N    3.291 --   127 C    1.261   130 C    1.226   125 Zn   0.456
   132   6 C    3.926 --   130 C    1.318   141 C    1.317   133 C    1.031
   133   6 C    3.985 --   140 C    1.384   134 C    1.381   132 C    1.031
   134   6 C    3.987 --   135 C    1.471   133 C    1.381   168 H    0.972
   135   6 C    3.988 --   134 C    1.471   136 C    1.370   169 H    0.968
                           140 C    0.100
   136   6 C    3.983 --   139 C    1.379   135 C    1.370   137 C    1.049
   137   6 C    3.864 --   138 O    1.808   136 C    1.049   170 H    0.942
   138   8 O    2.004 --   137 C    1.808
   139   6 C    3.993 --   140 C    1.465   136 C    1.379   171 H    0.971
   140   6 C    3.987 --   139 C    1.465   133 C    1.384   172 H    0.972
                           135 C    0.100
   141   6 C    3.911 --   132 C    1.317   144 N    1.228   142 C    1.181
   142   6 C    3.960 --   143 C    1.644   141 C    1.181   173 H    0.973
   143   6 C    3.961 --   142 C    1.644   145 C    1.187   174 H    0.969
   144   7 N    3.290 --   145 C    1.260   141 C    1.228   125 Zn   0.455
   145   6 C    3.906 --   144 N    1.260   146 C    1.257   143 C    1.187
   146   6 C    3.928 --   145 C    1.257   147 C    1.257   123 C    1.180
   147   6 C    3.906 --   151 N    1.260   146 C    1.257   148 C    1.188
   148   6 C    3.960 --   149 C    1.642   147 C    1.188   175 H    0.969
   149   6 C    3.960 --   148 C    1.642   150 C    1.181   176 H    0.973
   150   6 C    3.911 --   152 C    1.316   151 N    1.228   149 C    1.181
   151   7 N    3.290 --   147 C    1.260   150 C    1.228   125 Zn   0.455
   152   6 C    3.926 --   161 C    1.318   150 C    1.316   153 C    1.031
   153   6 C    3.985 --   154 C    1.383   160 C    1.381   152 C    1.031
   154   6 C    3.987 --   155 C    1.466   153 C    1.383   177 H    0.972
                           159 C    0.100
   155   6 C    3.993 --   154 C    1.466   156 C    1.378   178 H    0.971
   156   6 C    3.983 --   155 C    1.378   159 C    1.369   157 C    1.050
   157   6 C    3.864 --   158 O    1.807   156 C    1.050   179 H    0.942
   158   8 O    2.003 --   157 C    1.807
   159   6 C    3.988 --   160 C    1.471   156 C    1.369   180 H    0.968
                           154 C    0.100
   160   6 C    3.987 --   159 C    1.471   153 C    1.381   181 H    0.972
   161   6 C    3.911 --   152 C    1.318   165 N    1.227   162 C    1.181
   162   6 C    3.960 --   163 C    1.643   161 C    1.181   182 H    0.973
   163   6 C    3.960 --   162 C    1.643   164 C    1.188   183 H    0.967
   164   6 C    3.906 --   165 N    1.261   126 C    1.257   163 C    1.188
   165   7 N    3.290 --   164 C    1.261   161 C    1.227   125 Zn   0.456
   166   1 H    1.007 --   128 C    0.967
   167   1 H    1.004 --   129 C    0.973
   168   1 H    1.004 --   134 C    0.972
   169   1 H    1.005 --   135 C    0.968
   170   1 H    1.010 --   137 C    0.942
   171   1 H    1.000 --   139 C    0.971
   172   1 H    1.004 --   140 C    0.972
   173   1 H    1.004 --   142 C    0.973
   174   1 H    1.006 --   143 C    0.969
   175   1 H    1.006 --   148 C    0.969
   176   1 H    1.004 --   149 C    0.973
   177   1 H    1.004 --   154 C    0.972
   178   1 H    1.000 --   155 C    0.971
   179   1 H    1.010 --   157 C    0.942
   180   1 H    1.005 --   159 C    0.968
   181   1 H    1.004 --   160 C    0.972
   182   1 H    1.004 --   162 C    0.973
   183   1 H    1.007 --   163 C    0.967
 ---------------------------------------------------------------------------

           -------------------------------------------------
          | TOTAL ENERGY             -322.927494556067 Eh   |
          | GRADIENT NORM               0.000602787159 Eh/α |
          | HOMO-LUMO GAP               0.927917863839 eV   |
           -------------------------------------------------

 * finished run on 2022/07/30 at 09:01:33.136
