   * xtb version 6.5.1 (b24c23e) compiled by 'conda@728c89f4b128' on 2022-07-12
          program call               : xtb Fe_BSA_C2_3.xyz --gfn 1 --opt -T 48

   ID    Z sym.   atoms
    1   26 Fe     1, 65, 133
    2    6 C      2-6, 8-12, 17-21, 23-28, 30-34, 39-44, 66-70, 72-76, 81-85,
                  87-92, 94-98, 103-108, 129-132, 134-138, 140-144, 149-153,
                  155-160, 162-166, 171-176
    3    7 N      7, 22, 29, 45, 71, 86, 93, 109, 139, 154, 161, 177
    4   16 S      13, 35, 77, 99, 145, 167
    5    8 O      14-16, 36-38, 78-80, 100-102, 146-148, 168-170
    6    1 H      46-64, 110-128, 178-195

          :  Hamiltonian                  GFN1-xTB          :
 * total energy  :  -394.4348856 Eh     change        0.1377452E-07 Eh
 * total energy  :  -394.6214810 Eh     change       -0.1865954E+00 Eh
 * total energy  :  -394.7618015 Eh     change       -0.1403206E+00 Eh
 * total energy  :  -394.8290141 Eh     change       -0.6721255E-01 Eh
 * total energy  :  -394.8670525 Eh     change       -0.3803844E-01 Eh
 * total energy  :  -394.8910632 Eh     change       -0.2401067E-01 Eh
 * total energy  :  -394.9118083 Eh     change       -0.2074513E-01 Eh
 * total energy  :  -394.9291288 Eh     change       -0.1732044E-01 Eh
 * total energy  :  -394.9441049 Eh     change       -0.1497618E-01 Eh
 * total energy  :  -394.9565522 Eh     change       -0.1244725E-01 Eh
 * total energy  :  -395.0257328 Eh     change       -0.1089641E-04 Eh
 * total energy  :  -395.0257526 Eh     change       -0.1979521E-04 Eh
 * total energy  :  -395.0257753 Eh     change       -0.2265259E-04 Eh
 * total energy  :  -395.0257935 Eh     change       -0.1819133E-04 Eh
 * total energy  :  -395.0258218 Eh     change       -0.2832066E-04 Eh
 * total energy  :  -395.0258392 Eh     change       -0.1737766E-04 Eh
 * total energy  :  -395.0258530 Eh     change       -0.1383924E-04 Eh
 * total energy  :  -395.0258662 Eh     change       -0.1318544E-04 Eh
 * total energy  :  -395.0258711 Eh     change       -0.4868357E-05 Eh
   *** GEOMETRY OPTIMIZATION CONVERGED AFTER 68 ITERATIONS ***

 final structure:
================
195
 xtb: 6.5.1 (b24c23e)
Fe          36.64144153584231        0.01808276119605        0.01721138786290
C           33.26655715690115        0.15698301903156        0.06236938690493
C           33.91337261114523       -0.32043666636749        1.18506943745479
C           33.24544981124097       -0.82456728160986        2.34703875182724
C           34.20257114763673       -1.05453628666471        3.27727736970730
C           35.45387917013436       -0.67113128288681        2.68899328301533
N           35.26688969254736       -0.27619297883660        1.39183883115101
C           36.66270385463475       -0.60658632600121        3.37461278380935
C           36.68153160503076       -0.92276722633679        4.82053783476193
C           35.90259757521554       -0.18775942988149        5.71793792339146
C           35.92221682254725       -0.48293437838676        7.07115341700131
C           36.72370081706160       -1.52260444939508        7.51401951769492
S           36.75999413707635       -1.89640583882599        9.22670436407164
O           36.36594434733397       -0.75964922608527       10.00545886858493
O           35.54658795984749       -2.97493918387272        9.25604195603522
O           37.97391388610090       -2.57500517467376        9.57244130863160
C           37.50872767884869       -2.26788459987176        6.64931051424472
C           37.48515831556018       -1.96133016795560        5.29895724085601
C           37.85743263820677       -0.25651860135077        2.75651241639260
C           39.10581400582222       -0.08921973096249        3.43956338202595
C           40.05078544318570        0.09919351333282        2.48627752763091
N           38.03326283921508       -0.10139974551741        1.40379767194619
C           39.37811416930689        0.05199305305666        1.22586310610174
C           40.03698655088274       -0.00249200954244       -0.00640172937072
C           39.35529850811120       -0.04480590814682       -1.22725293248138
C           40.00066006533750       -0.13649497062472       -2.49930300181043
C           39.04413571275902        0.07175576033279       -3.43720764683409
C           37.81701756206696        0.29762547572330       -2.73289351029820
N           38.01601545461143        0.16793139613794       -1.38109243217431
C           36.62538007077444        0.68825664613710       -3.33187591506540
C           36.62937903834628        0.98576885907393       -4.78221022108204
C           35.81057241022808        0.27078603656791       -5.65951456667851
C           35.81655715543469        0.55525120037865       -7.01544129889274
C           36.64513061210792        1.56338011373284       -7.48029116063524
S           36.64647855884638        1.94262600683003       -9.19235552230035
O           37.04494705866210        3.30141598035807       -9.41654341891880
O           37.87738450165973        0.98565846548804       -9.64678597371717
O           35.44535561285496        1.46970106730144       -9.81305478055078
C           37.46418407292004        2.29343242967078       -6.63415133011299
C           37.45531134462751        1.99657537003289       -5.28170082622853
C           35.43673422527834        0.82239435561323       -2.62191132705840
C           34.19471545977817        1.26220305970556       -3.19046701581069
C           33.24950277194872        1.10879099046534       -2.23318143104176
C           33.91526810637490        0.58838154121198       -1.07680304334541
N           35.26138480765960        0.47424414509586       -1.30973345324071
H           32.18310776863001        0.18949675443715        0.07425770735272
H           32.18071372905914       -0.97723717115379        2.42286062104100
H           34.08364700730545       -1.44816687188637        4.27370265801777
H           35.29368020051218        0.63119613951963        5.35330017228406
H           35.33106463508819        0.08715366132565        7.77679375689447
H           35.39504920877695       -3.28424135117230       10.15747928439015
H           38.12831361742620       -3.06987647908647        7.03053366832139
H           38.08304352979636       -2.53931456911092        4.60394946094817
H           39.23353211650740       -0.11160980005752        4.50952769690122
H           41.11147484020894        0.24628603186389        2.61121777733744
H           41.05203728859833       -0.32761757984934       -2.64244295709029
H           39.14967820095134        0.06914068911191       -4.50990134197777
H           35.17777445313805       -0.52157248999657       -5.27719185821547
H           35.18618052069395        0.00782121786798       -7.70487250938963
H           38.14457187918057        1.19376245243434      -10.55044988607651
H           38.09038039412852        3.08310945169873       -7.02994530891674
H           38.07918845946658        2.56299246178164       -4.60019535134500
H           34.07418910408041        1.63787122763722       -4.19357836993968
H           32.19324153426626        1.31849932878508       -2.28820876376207
Fe          58.30423126038703       -0.00427505519888       -0.02835800047637
C           61.68900765639791        0.15806162450622       -0.02942409553791
C           61.03964205625719        0.15131939027120       -1.24663875589594
C           61.71540061587962        0.14714216024862       -2.50901346424197
C           60.75906019513320        0.24263132913931       -3.46211481163130
C           59.49926087976923        0.32038976787026       -2.77970421530448
N           59.68310233560535        0.22710993893522       -1.42567519085319
C           58.28048928337537        0.52706704915107       -3.41342798451753
C           58.26859064789004        0.72569447124167       -4.88170743863731
C           58.93779897368149        1.81255087172803       -5.44971820818622
C           58.92597070032836        2.00649120663833       -6.82114715834311
C           58.24405931404628        1.09878044771763       -7.61511800547742
S           58.21914877951654        1.34232816792281       -9.35118644911861
O           58.45686418723375        2.71779219061450       -9.67598266769475
O           59.55280790843024        0.49430387340728       -9.72488330340353
O           57.09055053325179        0.68539479473498       -9.94193780091685
C           57.57061511068685        0.01215646640441       -7.08118546550838
C           57.58436324722209       -0.16919694792580       -5.70802333326307
C           57.07172062840480        0.55956298780850       -2.72971740056707
C           55.80807230616484        0.83061607873995       -3.34908746789154
C           54.86306083963847        0.68194614481893       -2.39058911460273
N           56.90263769860840        0.30207949368289       -1.39206598344527
C           55.55072571745562        0.32818287291396       -1.18769930831652
C           54.90000529971325       -0.01827688460207       -0.00533833050544
C           55.57457240668645       -0.34952547209529        1.16838560041433
C           54.91470473482521       -0.75534922225689        2.37009631542255
C           55.87489801131322       -0.88075408262596        3.31723318255187
C           57.11883944472374       -0.54013207024745        2.69275523653561
N           56.92375009133169       -0.25075598864869        1.36536209913379
C           58.33056667860414       -0.46068686096744        3.36705837264771
C           58.33829541031687       -0.68429808841802        4.83213790266338
C           59.05132033718432       -1.75285648219187        5.38039661060528
C           59.05389401403537       -1.96693734702080        6.74913460911556
C           58.34118284114781       -1.09829384062313        7.55940783187184
S           58.34983899658090       -1.35478838305066        9.29394502638753
O           58.09693383474828       -0.13051599508713        9.99578257729129
O           57.01479219242255       -2.27356005585063        9.40495740938459
O           59.48072306819880       -2.14487716575886        9.68014631467230
C           57.63180138493765       -0.02478318302925        7.04555941339541
C           57.63059586183235        0.17610288445993        5.67523386124423
C           59.53132081924029       -0.17807987073451        2.72880255315941
C           60.79005801085762       -0.04505297232392        3.40488311616562
C           61.73115062102893        0.13176412359177        2.44864253680023
C           61.04728507296243        0.11501779966470        1.19042633604292
N           59.69665142042320       -0.02836227683807        1.37732032034603
H           62.77245700891492        0.19192775796771       -0.03213459854068
H           62.78458611367090        0.07674267505653       -2.62987845234015
H           60.88197430567514        0.25577967773072       -4.53292726040291
H           59.45502059020967        2.51723732164484       -4.80914926455078
H           59.43145457697197        2.85156017613666       -7.27136130842477
H           59.70278584130541        0.50918229445831      -10.67799743609384
H           57.04313558702152       -0.67451263084342       -7.73128807740674
H           57.07205365203783       -1.01800052355789       -5.27032061372583
H           55.67208542639009        1.10276257198901       -4.38299146264900
H           53.79411591700752        0.79350694963350       -2.47507914738521
H           53.85306903023451       -0.92010683023230        2.46028614318940
H           55.76233094956626       -1.18205084828744        4.34592943755431
H           59.59427534929318       -2.42608543930147        4.72739247666547
H           59.60184924875533       -2.79252453219508        7.18558951214557
H           56.76921152860724       -2.39050613880974       10.33086465503907
H           57.09646786501813        0.64211045830211        7.70967789831785
H           57.09034731829468        1.01505603094617        5.25244000633446
H           60.92205339100079       -0.08188232735263        4.47403210904219
H           62.79572217072077        0.25881610417612        2.56378419557142
C           41.44338365772395       -0.01683065144785       -0.01830716241773
C           42.66051227784687       -0.02191590886077       -0.02662923569899
C           52.27001934446282       -0.03868901533777        0.00006290334382
C           53.48446144173145       -0.03585782347942        0.00163970088249
Fe          47.46179577224500       -0.05389555536865        0.02226727591389
C           44.06659701797007       -0.02194372157303       -0.02988254176384
C           44.73794720386392        0.84147499020429        0.84324010420762
C           44.08305053840832        1.71721160316360        1.76379801131168
C           45.03437364709448        2.55071949786517        2.25240221875864
C           46.26765143217978        2.18368464751682        1.62283428163991
N           46.07713348495686        1.09965363886491        0.80332073356202
C           47.45875128255685        2.89007797079996        1.74336772063908
C           47.45164886347789        4.16435146510482        2.49629440019305
C           48.27636416322055        4.33500457070067        3.61107974240872
C           48.27172140273925        5.52963128031314        4.31236946790115
C           47.43756438086066        6.54927554665058        3.88405753512265
S           47.43942824650891        8.07151899804255        4.75520707787470
O           47.03459153667559        9.15075197479586        3.90290357450226
O           46.21594651476651        7.76152525561513        5.77625879644171
O           48.64543129731962        8.21333139955734        5.51466545248116
C           46.61148750699685        6.41142688449882        2.78033638249465
C           46.61961546495054        5.21109323432480        2.08972939260029
C           48.65419071331504        2.44908846093307        1.18536510213767
C           49.89416756529324        3.16483039521669        1.24966632045140
C           50.84947928042209        2.33584761857688        0.76319739330298
N           48.84153001898304        1.22710493532725        0.59072189304169
C           50.18941924868622        1.12368836281539        0.38934047690715
C           50.85560161243709       -0.03674354570085       -0.00550023617392
C           50.18655909448446       -1.19253979192647       -0.41078673093941
C           50.83987992711219       -2.41164487358775       -0.77258648182897
C           49.88452540238985       -3.22942109846591       -1.27879498642008
C           48.65167791591352       -2.50037138924374       -1.23648094710165
N           48.84453569019630       -1.27480334911615       -0.65258100182954
C           47.45821700667194       -2.92941611364439       -1.80852933369569
C           47.45153317465316       -4.20297585697165       -2.56287664223723
C           48.28476554239389       -4.37250838763670       -3.67153256807691
C           48.28537356292332       -5.56613838877213       -4.37438839493067
C           47.44811203590331       -6.58634416084247       -3.95340772766994
S           47.45932595798812       -8.10826923382678       -4.82487657171619
O           47.03673626212930       -9.18645037199740       -3.97980378001204
O           46.25488176757315       -7.79425797149203       -5.86735689672489
O           48.67756163743830       -8.25403251031747       -5.56397296541202
C           46.61407081154434       -6.44982450451878       -2.85552696247643
C           46.61685446685831       -5.25022770354399       -2.16344813475554
C           46.27035611561432       -2.21722211753199       -1.69286408453650
C           45.03587112755568       -2.58677572348671       -2.31896777828428
C           44.08338400054632       -1.75975708150201       -1.82220402423224
C           44.73933880689120       -0.88265082131816       -0.90370068812556
N           46.08229699281008       -1.12448657798787       -0.88289000146635
H           43.02938664369371        1.69420695620495        1.99077880203107
H           44.92098696685340        3.34063168031066        2.97692667582566
H           48.91284801448822        3.52058468070704        3.93676554703535
H           48.90743803843652        5.67337664146896        5.17698507742261
H           45.94656650224642        8.56934173802430        6.23030904452572
H           45.98057096996922        7.23346713325146        2.46630990259447
H           45.99108853795229        5.08669100399006        1.21566868163117
H           50.00969705300047        4.17016568919920        1.62044932227181
H           51.90842140061555        2.51245786928528        0.66507060799830
H           51.89410631360855       -2.60168583537196       -0.65103012619651
H           49.99536981815618       -4.23654389147582       -1.64630741715757
H           48.92444819288438       -3.55793378935737       -3.99044420804973
H           48.92783818223543       -5.70895056075070       -5.23414533053352
H           45.99737146650245       -8.59945730734187       -6.33278426720025
H           45.98153536023170       -7.27259751355346       -2.54670119402249
H           45.98243818476988       -5.12744734738029       -1.29342234703235
H           44.92173330300049       -3.37804085620285       -3.04186172878668
H           43.02788216580725       -1.74154229793664       -2.04122540606049

          :  Hamiltonian                  GFN1-xTB          :
         :: total energy            -395.025871061692 Eh    ::
         :: gradient norm              0.000489178271 Eh/a0 ::
         :: HOMO-LUMO gap              0.104674355987 eV    ::
         :: SCC energy              -400.156808457129 Eh    ::
         :: repulsion energy           5.316930605970 Eh    ::

    * Orbital Energies and Occupations

         #    Occupation            Energy/Eh            Energy/eV
      -------------------------------------------------------------
         1        2.0000           -1.0401110             -28.3029
       ...           ...                  ...                  ...
       330        2.0000           -0.4182954             -11.3824
       331        1.9999           -0.4159045             -11.3173
       332        1.9947           -0.4121473             -11.2151
       333        1.9936           -0.4119717             -11.2103
       334        1.9930           -0.4118911             -11.2081
       335        1.9920           -0.4117661             -11.2047
       336        1.9353           -0.4097506             -11.1499
       337        1.9326           -0.4097095             -11.1488
       338        1.9311           -0.4096880             -11.1482
       339        1.9224           -0.4095707             -11.1450
       340        1.9149           -0.4094801             -11.1425
       341        1.8997           -0.4093156             -11.1380
       342        1.8116           -0.4086722             -11.1205 (HOMO)
       343        0.2873           -0.4048255             -11.0159 (LUMO)
       344        0.2233           -0.4045515             -11.0084
       345        0.1688           -0.4042568             -11.0004
       346                         -0.3603656              -9.8060
       347                         -0.3532670              -9.6129
       348                         -0.3517372              -9.5713
       349                         -0.3494665              -9.5095
       350                         -0.3488211              -9.4919
       351                         -0.3468180              -9.4374
       352                         -0.3268460              -8.8939
       353                         -0.3222776              -8.7696
       ...                                ...                  ...
       713                          1.3202337              35.9254
      -------------------------------------------------------------
                  HL-Gap            0.0038467 Eh            0.1047 eV

Wiberg/Mayer (AO) data.
largest (>0.10) Wiberg bond orders for each atom

     #   Z sym  total        # sym  WBO       # sym  WBO       # sym  WBO
 ---------------------------------------------------------------------------
     1  26 Fe   3.206 --    45 N    0.683    22 N    0.675     7 N    0.673
                            29 N    0.665
     2   6 C    3.928 --    44 C    1.366     3 C    1.360    46 H    0.970
     3   6 C    3.921 --     2 C    1.360     7 N    1.208     4 C    1.173
     4   6 C    3.959 --     5 C    1.650     3 C    1.173    47 H    0.975
     5   6 C    3.961 --     4 C    1.650     6 C    1.173    48 H    0.973
     6   6 C    3.922 --     8 C    1.315     7 N    1.220     5 C    1.173
     7   7 N    3.382 --     6 C    1.220     3 C    1.208     1 Fe   0.673
     8   6 C    3.928 --    19 C    1.325     6 C    1.315     9 C    1.034
     9   6 C    3.986 --    10 C    1.389    18 C    1.389     8 C    1.034
    10   6 C    3.985 --    11 C    1.450     9 C    1.389    49 H    0.971
                            17 C    0.106
    11   6 C    3.989 --    10 C    1.450    12 C    1.408    50 H    0.967
                            18 C    0.106
    12   6 C    3.930 --    11 C    1.408    17 C    1.407    13 S    0.754
    13  16 S    5.266 --    16 O    1.720    14 O    1.719    15 O    1.014
                            12 C    0.754
    14   8 O    2.078 --    13 S    1.719    16 O    0.139
    15   8 O    2.088 --    13 S    1.014    51 H    0.827
    16   8 O    2.079 --    13 S    1.720    14 O    0.139
    17   6 C    3.989 --    18 C    1.450    12 C    1.407    52 H    0.967
                            10 C    0.106
    18   6 C    3.985 --    17 C    1.450     9 C    1.389    53 H    0.971
                            11 C    0.106
    19   6 C    3.917 --     8 C    1.325    22 N    1.204    20 C    1.180
    20   6 C    3.957 --    21 C    1.637    19 C    1.180    54 H    0.973
    21   6 C    3.960 --    20 C    1.637    23 C    1.187    55 H    0.972
    22   7 N    3.385 --    23 C    1.234    19 C    1.204     1 Fe   0.675
    23   6 C    3.909 --    24 C    1.264    22 N    1.234    21 C    1.187
    24   6 C    3.928 --    23 C    1.264    25 C    1.260   129 C    1.178
    25   6 C    3.910 --    24 C    1.260    29 N    1.235    26 C    1.188
    26   6 C    3.960 --    27 C    1.636    25 C    1.188    56 H    0.972
    27   6 C    3.957 --    26 C    1.636    28 C    1.180    57 H    0.973
    28   6 C    3.917 --    30 C    1.325    29 N    1.204    27 C    1.180
    29   7 N    3.382 --    25 C    1.235    28 C    1.204     1 Fe   0.665
    30   6 C    3.928 --    28 C    1.325    41 C    1.316    31 C    1.032
    31   6 C    3.986 --    32 C    1.391    40 C    1.388    30 C    1.032
    32   6 C    3.986 --    33 C    1.449    31 C    1.391    58 H    0.971
                            39 C    0.106
    33   6 C    3.989 --    32 C    1.449    34 C    1.409    59 H    0.966
                            40 C    0.106
    34   6 C    3.931 --    33 C    1.409    39 C    1.406    35 S    0.754
    35  16 S    5.267 --    38 O    1.725    36 O    1.716    37 O    1.014
                            34 C    0.754
    36   8 O    2.075 --    35 S    1.716    38 O    0.139
    37   8 O    2.088 --    35 S    1.014    60 H    0.827
    38   8 O    2.084 --    35 S    1.725    36 O    0.139
    39   6 C    3.989 --    40 C    1.451    34 C    1.406    61 H    0.967
                            32 C    0.106
    40   6 C    3.986 --    39 C    1.451    31 C    1.388    62 H    0.971
                            33 C    0.106
    41   6 C    3.921 --    30 C    1.316    45 N    1.221    42 C    1.173
    42   6 C    3.961 --    43 C    1.652    41 C    1.173    63 H    0.973
    43   6 C    3.959 --    42 C    1.652    44 C    1.171    64 H    0.974
    44   6 C    3.921 --     2 C    1.366    45 N    1.205    43 C    1.171
    45   7 N    3.386 --    41 C    1.221    44 C    1.205     1 Fe   0.683
    46   1 H    1.000 --     2 C    0.970
    47   1 H    0.997 --     4 C    0.975
    48   1 H    1.003 --     5 C    0.973
    49   1 H    1.003 --    10 C    0.971
    50   1 H    0.999 --    11 C    0.967
    51   1 H    0.853 --    15 O    0.827
    52   1 H    0.999 --    17 C    0.967
    53   1 H    1.003 --    18 C    0.971
    54   1 H    1.003 --    20 C    0.973
    55   1 H    1.003 --    21 C    0.972
    56   1 H    1.002 --    26 C    0.972
    57   1 H    1.003 --    27 C    0.973
    58   1 H    1.003 --    32 C    0.971
    59   1 H    0.999 --    33 C    0.966
    60   1 H    0.854 --    37 O    0.827
    61   1 H    0.999 --    39 C    0.967
    62   1 H    1.003 --    40 C    0.971
    63   1 H    1.003 --    42 C    0.973
    64   1 H    0.997 --    43 C    0.974
    65  26 Fe   3.269 --   109 N    0.694    86 N    0.687    71 N    0.684
                            93 N    0.678
    66   6 C    3.946 --   108 C    1.367    67 C    1.363   110 H    0.970
    67   6 C    3.920 --    66 C    1.363    71 N    1.207    68 C    1.172
    68   6 C    3.959 --    69 C    1.651    67 C    1.172   111 H    0.974
    69   6 C    3.960 --    68 C    1.651    70 C    1.172   112 H    0.973
    70   6 C    3.922 --    72 C    1.322    71 N    1.218    69 C    1.172
    71   7 N    3.395 --    70 C    1.218    67 C    1.207    65 Fe   0.684
    72   6 C    3.945 --    83 C    1.325    70 C    1.322    73 C    1.029
    73   6 C    3.986 --    74 C    1.391    82 C    1.391    72 C    1.029
    74   6 C    3.986 --    75 C    1.450    73 C    1.391   113 H    0.971
                            81 C    0.106
    75   6 C    3.989 --    74 C    1.450    76 C    1.408   114 H    0.967
                            82 C    0.106
    76   6 C    3.931 --    75 C    1.408    81 C    1.407    77 S    0.754
    77  16 S    5.265 --    78 O    1.720    80 O    1.719    79 O    1.013
                            76 C    0.754
    78   8 O    2.079 --    77 S    1.720    80 O    0.139
    79   8 O    2.087 --    77 S    1.013   115 H    0.827
    80   8 O    2.078 --    77 S    1.719    78 O    0.139
    81   6 C    3.989 --    82 C    1.450    76 C    1.407   116 H    0.967
                            74 C    0.106
    82   6 C    3.986 --    81 C    1.450    73 C    1.391   117 H    0.971
                            75 C    0.106
    83   6 C    3.917 --    72 C    1.325    86 N    1.208    84 C    1.178
    84   6 C    3.960 --    85 C    1.642    83 C    1.178   118 H    0.973
    85   6 C    3.959 --    84 C    1.642    87 C    1.184   119 H    0.973
    86   7 N    3.398 --    87 C    1.224    83 C    1.208    65 Fe   0.687
    87   6 C    3.916 --    88 C    1.284    86 N    1.224    85 C    1.184
    88   6 C    3.948 --    87 C    1.284    89 C    1.281   132 C    1.140
    89   6 C    3.916 --    88 C    1.281    93 N    1.225    90 C    1.185
    90   6 C    3.959 --    91 C    1.641    89 C    1.185   120 H    0.973
    91   6 C    3.960 --    90 C    1.641    92 C    1.179   121 H    0.973
    92   6 C    3.917 --    94 C    1.325    93 N    1.207    91 C    1.179
    93   7 N    3.395 --    89 C    1.225    92 C    1.207    65 Fe   0.678
    94   6 C    3.945 --    92 C    1.325   105 C    1.323    95 C    1.028
    95   6 C    3.986 --    96 C    1.392   104 C    1.390    94 C    1.028
    96   6 C    3.986 --    97 C    1.449    95 C    1.392   122 H    0.971
                           103 C    0.106
    97   6 C    3.989 --    96 C    1.449    98 C    1.408   123 H    0.966
                           104 C    0.106
    98   6 C    3.931 --    97 C    1.408   103 C    1.407    99 S    0.754
    99  16 S    5.266 --   102 O    1.724   100 O    1.716   101 O    1.013
                            98 C    0.754
   100   8 O    2.075 --    99 S    1.716   102 O    0.139
   101   8 O    2.087 --    99 S    1.013   124 H    0.827
   102   8 O    2.083 --    99 S    1.724   100 O    0.139
   103   6 C    3.989 --   104 C    1.450    98 C    1.407   125 H    0.967
                            96 C    0.106
   104   6 C    3.987 --   103 C    1.450    95 C    1.390   126 H    0.971
                            97 C    0.106
   105   6 C    3.922 --    94 C    1.323   109 N    1.218   106 C    1.172
   106   6 C    3.960 --   107 C    1.653   105 C    1.172   127 H    0.973
   107   6 C    3.959 --   106 C    1.653   108 C    1.171   128 H    0.974
   108   6 C    3.920 --    66 C    1.367   109 N    1.205   107 C    1.171
   109   7 N    3.399 --   105 C    1.218   108 C    1.205    65 Fe   0.694
   110   1 H    1.000 --    66 C    0.970
   111   1 H    0.997 --    68 C    0.974
   112   1 H    1.003 --    69 C    0.973
   113   1 H    1.003 --    74 C    0.971
   114   1 H    0.999 --    75 C    0.967
   115   1 H    0.854 --    79 O    0.827
   116   1 H    0.999 --    81 C    0.967
   117   1 H    1.003 --    82 C    0.971
   118   1 H    1.003 --    84 C    0.973
   119   1 H    1.001 --    85 C    0.973
   120   1 H    1.001 --    90 C    0.973
   121   1 H    1.003 --    91 C    0.973
   122   1 H    1.002 --    96 C    0.971
   123   1 H    0.999 --    97 C    0.966
   124   1 H    0.854 --   101 O    0.827
   125   1 H    0.999 --   103 C    0.967
   126   1 H    1.002 --   104 C    0.971
   127   1 H    1.003 --   106 C    0.973
   128   1 H    0.997 --   107 C    0.974
   129   6 C    3.920 --   130 C    2.561    24 C    1.178
   130   6 C    3.926 --   129 C    2.561   134 C    1.180
   131   6 C    3.925 --   132 C    2.597   156 C    1.145
   132   6 C    3.918 --   131 C    2.597    88 C    1.140
   133  26 Fe   3.256 --   154 N    0.682   177 N    0.679   161 N    0.667
                           139 N    0.664
   134   6 C    3.929 --   176 C    1.262   135 C    1.258   130 C    1.180
   135   6 C    3.911 --   134 C    1.258   139 N    1.236   136 C    1.189
   136   6 C    3.960 --   137 C    1.636   135 C    1.189   178 H    0.972
   137   6 C    3.959 --   136 C    1.636   138 C    1.181   179 H    0.973
   138   6 C    3.917 --   140 C    1.322   139 N    1.205   137 C    1.181
   139   7 N    3.379 --   135 C    1.236   138 C    1.205   133 Fe   0.664
   140   6 C    3.932 --   138 C    1.322   151 C    1.318   141 C    1.034
   141   6 C    3.986 --   142 C    1.390   150 C    1.388   140 C    1.034
   142   6 C    3.985 --   143 C    1.449   141 C    1.390   180 H    0.971
                           149 C    0.106
   143   6 C    3.989 --   142 C    1.449   144 C    1.408   181 H    0.966
                           150 C    0.106
   144   6 C    3.931 --   143 C    1.408   149 C    1.407   145 S    0.754
   145  16 S    5.268 --   148 O    1.725   146 O    1.716   147 O    1.015
                           144 C    0.754
   146   8 O    2.075 --   145 S    1.716   148 O    0.139
   147   8 O    2.089 --   145 S    1.015   182 H    0.827
   148   8 O    2.084 --   145 S    1.725   146 O    0.139
   149   6 C    3.989 --   150 C    1.451   144 C    1.407   183 H    0.967
                           142 C    0.106
   150   6 C    3.985 --   149 C    1.451   141 C    1.388   184 H    0.971
                           143 C    0.106
   151   6 C    3.917 --   140 C    1.318   154 N    1.210   152 C    1.179
   152   6 C    3.961 --   153 C    1.640   151 C    1.179   185 H    0.973
   153   6 C    3.960 --   152 C    1.640   155 C    1.185   186 H    0.973
   154   7 N    3.387 --   155 C    1.226   151 C    1.210   133 Fe   0.682
   155   6 C    3.916 --   156 C    1.279   154 N    1.226   153 C    1.185
   156   6 C    3.931 --   155 C    1.279   157 C    1.275   131 C    1.145
   157   6 C    3.916 --   156 C    1.275   161 N    1.227   158 C    1.186
   158   6 C    3.960 --   159 C    1.639   157 C    1.186   187 H    0.973
   159   6 C    3.962 --   158 C    1.639   160 C    1.180   188 H    0.973
   160   6 C    3.917 --   162 C    1.315   161 N    1.211   159 C    1.180
   161   7 N    3.380 --   157 C    1.227   160 C    1.211   133 Fe   0.667
   162   6 C    3.932 --   173 C    1.325   160 C    1.315   163 C    1.033
   163   6 C    3.986 --   164 C    1.390   172 C    1.388   162 C    1.033
   164   6 C    3.985 --   165 C    1.449   163 C    1.390   189 H    0.971
                           171 C    0.106
   165   6 C    3.989 --   164 C    1.449   166 C    1.408   190 H    0.966
                           172 C    0.106
   166   6 C    3.931 --   165 C    1.408   171 C    1.407   167 S    0.754
   167  16 S    5.268 --   170 O    1.725   168 O    1.716   169 O    1.014
                           166 C    0.754
   168   8 O    2.075 --   167 S    1.716   170 O    0.139
   169   8 O    2.088 --   167 S    1.014   191 H    0.827
   170   8 O    2.084 --   167 S    1.725   168 O    0.139
   171   6 C    3.989 --   172 C    1.451   166 C    1.407   192 H    0.967
                           164 C    0.106
   172   6 C    3.985 --   171 C    1.451   163 C    1.388   193 H    0.971
                           165 C    0.106
   173   6 C    3.917 --   162 C    1.325   177 N    1.203   174 C    1.181
   174   6 C    3.958 --   175 C    1.637   173 C    1.181   194 H    0.973
   175   6 C    3.960 --   174 C    1.637   176 C    1.188   195 H    0.972
   176   6 C    3.911 --   134 C    1.262   177 N    1.236   175 C    1.188
   177   7 N    3.385 --   176 C    1.236   173 C    1.203   133 Fe   0.679
   178   1 H    1.002 --   136 C    0.972
   179   1 H    1.003 --   137 C    0.973
   180   1 H    1.003 --   142 C    0.971
   181   1 H    0.999 --   143 C    0.966
   182   1 H    0.853 --   147 O    0.827
   183   1 H    0.999 --   149 C    0.967
   184   1 H    1.003 --   150 C    0.971
   185   1 H    1.003 --   152 C    0.973
   186   1 H    1.001 --   153 C    0.973
   187   1 H    1.001 --   158 C    0.973
   188   1 H    1.003 --   159 C    0.973
   189   1 H    1.003 --   164 C    0.971
   190   1 H    0.999 --   165 C    0.966
   191   1 H    0.853 --   169 O    0.827
   192   1 H    0.999 --   171 C    0.967
   193   1 H    1.003 --   172 C    0.971
   194   1 H    1.003 --   174 C    0.973
   195   1 H    1.002 --   175 C    0.972
 ---------------------------------------------------------------------------

           -------------------------------------------------
          | TOTAL ENERGY             -395.025871061692 Eh   |
          | GRADIENT NORM               0.000489178271 Eh/α |
          | HOMO-LUMO GAP               0.104674355987 eV   |
           -------------------------------------------------

 * finished run on 2022/07/29 at 20:25:33.791
