   * xtb version 6.5.1 (b24c23e) compiled by 'conda@728c89f4b128' on 2022-07-12
          program call               : xtb Zn_Ph2OMe_C2_2.xyz --gfn 1 --opt -T 48

   ID    Z sym.   atoms
    1   30 Zn     1, 73
    2    6 C      2-6, 8-11, 13-21, 23-27, 29-33, 36, 37, 39-43, 45, 74-78,
                  80-83, 85-93, 95-99, 101-105, 108, 109, 111-115, 117, 145,
                  146
    3    7 N      7, 12, 34, 35, 79, 84, 106, 107
    4    8 O      22, 28, 38, 44, 94, 100, 110, 116
    5    1 H      46-72, 118-144
########################################################################
[WARNING] Please study the warnings concerning your input carefully
-1- prog_main_parseArguments: Unknown option '-T' provided
########################################################################

          :  Hamiltonian                  GFN1-xTB          :
 * total energy  :  -250.0926976 Eh     change       -0.3674074E-09 Eh
 * total energy  :  -250.1821695 Eh     change       -0.8947190E-01 Eh
 * total energy  :  -250.2322325 Eh     change       -0.5006304E-01 Eh
 * total energy  :  -250.2470313 Eh     change       -0.1479873E-01 Eh
 * total energy  :  -250.2551377 Eh     change       -0.8106418E-02 Eh
 * total energy  :  -250.2594889 Eh     change       -0.4351164E-02 Eh
 * total energy  :  -250.2622849 Eh     change       -0.2796024E-02 Eh
 * total energy  :  -250.2640925 Eh     change       -0.1807621E-02 Eh
 * total energy  :  -250.2652222 Eh     change       -0.1129731E-02 Eh
 * total energy  :  -250.2659977 Eh     change       -0.7754763E-03 Eh
 * total energy  :  -250.2688370 Eh     change       -0.2106203E-04 Eh
 * total energy  :  -250.2688554 Eh     change       -0.1840105E-04 Eh
 * total energy  :  -250.2688700 Eh     change       -0.1465228E-04 Eh
 * total energy  :  -250.2688810 Eh     change       -0.1094713E-04 Eh
 * total energy  :  -250.2688901 Eh     change       -0.9151076E-05 Eh
 * total energy  :  -250.2688995 Eh     change       -0.9365567E-05 Eh
 * total energy  :  -250.2689096 Eh     change       -0.1012199E-04 Eh
 * total energy  :  -250.2689205 Eh     change       -0.1084441E-04 Eh
 * total energy  :  -250.2689247 Eh     change       -0.4275084E-05 Eh
   *** GEOMETRY OPTIMIZATION CONVERGED AFTER 68 ITERATIONS ***

 final structure:
================
146
 xtb: 6.5.1 (b24c23e)
Zn          15.71806141920522        0.02832944700252        0.03041591523302
C           12.30499874941645        0.15703970186432       -0.05117016862268
C           12.93923383282494        1.04245591460316        0.81255043973949
C           12.27095480077316        1.97949992305588        1.67282185560197
C           13.23437044131786        2.65843568678511        2.34439677086691
C           14.50328092485707        2.14934369403678        1.89730546887289
N           14.28858001316440        1.16648711220341        0.97555539009237
C           15.75507982918458        2.58800994472744        2.33843588580811
C           16.99146939119947        2.08789701049956        1.92081746708592
C           18.26950003121449        2.59299175759273        2.33734778511613
C           19.21599837810711        1.85539417818876        1.70342919650319
N           17.18644605032752        1.05894444675976        1.03871598927421
C           18.52896824224147        0.88988536616859        0.89638176944971
C           19.15915729683036       -0.08140261045257        0.09218139318032
C           18.49595424168120       -1.02072393348620       -0.72358443935454
C           19.14729287576176       -2.03867263854904       -1.49473668065472
C           18.17835327336256       -2.72095441095179       -2.15633591310326
C           16.92188428761935       -2.12647773011784       -1.79621001209865
C           15.67252791165137       -2.53948049332057       -2.26787823531738
C           15.65520853463270       -3.64693783137876       -3.26640259574993
C           16.15430177977816       -3.44239376470411       -4.55988777636990
O           16.62976741674005       -2.19591200138792       -4.82340219787644
C           17.18129394678724       -1.89269145479632       -6.08825604300455
C           16.13318664414622       -4.47479638598108       -5.49715126249282
C           15.61591470065318       -5.70993343588464       -5.13699641043875
C           15.11775119822271       -5.93705662971328       -3.86297544371482
C           15.13599891808298       -4.90330744197246       -2.92712480054142
O           14.68010564964155       -5.03388140931553       -1.65210764170964
C           14.09027339280910       -6.24415633756057       -1.22424101116919
C           14.43717767670615       -2.00541360759920       -1.88861782331257
C           13.15636912121132       -2.41695857827104       -2.39826268323490
C           12.21595219262976       -1.66310160527572       -1.77585136006306
C           12.91086687117032       -0.77698098453952       -0.88343577549654
N           14.25312589254774       -1.00492080997961       -0.97943125391532
N           17.15112381051614       -1.10447332275983       -0.91379722768782
C           15.77645549429695        3.69240081233404        3.34042401684943
C           16.18545695436037        3.44460733733845        4.65751391875984
O           16.53111506304073        2.16017490242541        4.94014725269891
C           16.99704006350356        1.81075953153711        6.22733157158571
C           16.21015652140041        4.47625579836904        5.59550946135661
C           15.82984505828726        5.75333627112497        5.21155870257434
C           15.42283087979302        6.02326549728361        3.91368035289919
C           15.39421353487120        4.99024899529116        2.97724240050466
O           15.01992882756774        5.15838818721444        1.68032950263228
C           14.60391443843402        6.42549114124726        1.21452908221139
H           11.22032693639082        0.19921740412928       -0.07810168283891
H           11.20021389157454        2.09156160379211        1.74693601680613
H           13.10493837596177        3.43701919254535        3.07935695812254
H           18.41965176367860        3.41210758832920        3.02235758421975
H           20.28699815495006        1.95815603566272        1.76677558469918
H           20.21064407943721       -2.21394575762527       -1.51367845366764
H           18.29957510803145       -3.55723830244524       -2.82612065992576
H           16.43682078402869       -1.99606546933790       -6.88726303844813
H           17.50805286537800       -0.85240478560271       -6.03592878653417
H           18.04507634393439       -2.53006758284457       -6.31346690486571
H           16.51209030064228       -4.32460806070229       -6.49928212125526
H           15.60026821369368       -6.51323075102404       -5.86549008691450
H           14.72248981809622       -6.91143086203708       -3.60852432135909
H           13.78701252482406       -6.08495463301440       -0.18768467131155
H           13.20595045464285       -6.49350637817847       -1.82350379637818
H           14.80274493220299       -7.07715175682965       -1.26627457960329
H           13.00309134561450       -3.18577855362413       -3.13886646135569
H           11.14480607534943       -1.69292811679494       -1.90354604040675
H           17.23228825751815        0.74552879588049        6.18660281168530
H           16.23018148477314        1.98060930614251        6.99305806432284
H           17.90307177053358        2.36941061716916        6.49198593952748
H           16.52043241804456        4.29376352047634        6.61572902595995
H           15.85130046691875        6.55641585939739        5.94015658432375
H           15.13424106641571        7.02974736208711        3.64144763251989
H           15.40653875240575        7.16851514039755        1.29809319053040
H           14.34696156586677        6.29319032765955        0.16179873074116
H           13.72091463202808        6.78373414876226        1.75784519105368
Zn          26.63830751205662       -0.02577517902781       -0.03258638872645
C           30.05135489352104        0.07353465648028       -0.14861766519905
C           29.41711006388140       -0.65574533977452       -1.14767369810309
C           30.08538949768634       -1.37418780805120       -2.19741698274978
C           29.12198117953150       -1.94271194392273       -2.96471511640118
C           27.85306596488019       -1.57238592350840       -2.39734311458560
N           28.06776842761791       -0.79951991798479       -1.29357139528116
C           26.60126194922544       -1.94681987466299       -2.89415319679480
C           25.36487773249784       -1.60446528694268       -2.33977621237518
C           24.08683641743055       -1.94495033857857       -2.89893824724761
C           23.14034719955082       -1.42236846796449       -2.07867766637541
N           25.16991590993235       -0.87745927950770       -1.19595831531159
C           23.82739748434959       -0.76050276799732       -1.00842416369226
C           23.19722094825701       -0.10246828572790        0.06728108970434
C           23.86043744485670        0.57154083973775        1.11298606416936
C           23.20912676787382        1.19012515641585        2.23025427781267
C           24.17807237061483        1.74813245530229        2.99956544218154
C           25.43452143434015        1.47620595193600        2.35988221668398
C           26.68388097611616        1.88442030856553        2.83568005707388
C           26.70122871905142        2.71533059868509        4.07386658705822
C           26.20233173720112        4.02482694761059        4.05528267013326
O           25.72700453438061        4.46295976857359        2.85890179160007
C           25.17583705823810        5.75822190955289        2.73853218420653
C           26.22347482538722        4.80576188141687        5.21047023245212
C           26.74057796287731        4.27355955551174        6.38188479336655
C           27.23854282782173        2.98011358138913        6.42558440946992
C           27.22026471276786        2.20076797417524        5.26926513817385
O           27.67598288050262        0.92007744322320        5.21723266238738
C           28.26545083085956        0.32429716851706        6.35447119656956
C           27.91921790458776        1.58494850190842        2.25309312109287
C           29.20002454956514        2.03097911116971        2.73284295675046
C           30.14042963110469        1.52205589744171        1.89814833428926
C           29.44550104569884        0.76466143316327        0.89418223019582
N           28.10325381774663        0.82719006978229        1.13353087278528
N           25.20526915101899        0.74790190817505        1.22290600319446
C           26.57986791495384       -2.78193448183812       -4.12956200636097
C           26.17051629559009       -4.12076068018224       -4.07124088744691
O           25.82456925942269       -4.58272707418869       -2.83996403989637
C           25.35807945001808       -5.90628307500115       -2.67685022748809
C           26.14580567959507       -4.90287545948993       -5.22554982161721
C           26.52647198286287       -4.34170261645868       -6.43516744362528
C           26.93382774299684       -3.01875317789425       -6.51813356807198
C           26.96244811830736       -2.23837481024013       -5.36269131081515
O           27.33705065430463       -0.93081482133696       -5.34506533291250
C           27.75370213661046       -0.29013920724099       -6.53314071795902
H           31.13602070602120        0.10623078747714       -0.18659718625531
H           31.15612605839415       -1.43157629379104       -2.31890681784635
H           29.25142672990310       -2.55973037768717       -3.83972561019664
H           23.93666400958644       -2.50660939786344       -3.80708297539536
H           22.06934628057281       -1.47049418412706       -2.18936805727321
H           22.14578271856460        1.18393980811992        2.40647551719868
H           24.05686754697997        2.29231791248296        3.92252241307355
H           25.92049688842572        6.53421281970094        2.95453856510471
H           24.84921919994985        5.85441823140028        1.70133751013805
H           24.31201717226525        5.89075928992968        3.40135771969156
H           25.84471271805260        5.81911837196135        5.20427980944176
H           26.75623810160986        4.88042280054485        7.28060949112228
H           27.63367807499551        2.58964147321434        7.35390654426381
H           28.56852451032278       -0.67915720998872        6.04953392842343
H           29.14984559599574        0.88178917750331        6.68668566891366
H           27.55279706218226        0.24761467551903        7.18483746920401
H           29.35330546324631        2.65478865570418        3.59912065353460
H           31.21157249814028        1.64425520389850        1.94578729716601
H           25.12256626113467       -6.01703221467134       -1.61666934453705
H           26.12469384750338       -6.64047195834143       -2.95348730354853
H           24.45209249384204       -6.08860456812061       -3.26758750637627
H           25.83526854436147       -5.93858657408234       -5.18970812663077
H           26.50497588778591       -4.94895848580374       -7.33351626071084
H           27.22266040142798       -2.60652505259907       -7.47575367596996
H           26.95134195870258       -0.26715570438371       -7.28077906970272
H           28.01094588207912        0.73308012313962       -6.25275375463449
H           28.63666662046924       -0.77747471794084       -6.96452774970449
C           20.56936678262447       -0.10729044652080        0.09734699230868
C           21.78701543217520       -0.11148857835493        0.09232050412477

          :  Hamiltonian                  GFN1-xTB          :
         :: total energy            -250.268924739998 Eh    ::
         :: gradient norm              0.000299883941 Eh/a0 ::
         :: HOMO-LUMO gap              1.084867773471 eV    ::
         :: SCC energy              -253.677558793805 Eh    ::
         :: repulsion energy           3.538329917860 Eh    ::

    * Orbital Energies and Occupations

         #    Occupation            Energy/Eh            Energy/eV
      -------------------------------------------------------------
         1        2.0000           -0.8021827             -21.8285
       ...           ...                  ...                  ...
       209        2.0000           -0.4073225             -11.0838
       210        2.0000           -0.4027311             -10.9589
       211        2.0000           -0.4027299             -10.9588
       212        2.0000           -0.4018726             -10.9355
       213        2.0000           -0.4012818             -10.9194
       214        2.0000           -0.4012544             -10.9187
       215        2.0000           -0.4008090             -10.9066
       216        2.0000           -0.4007962             -10.9062
       217        2.0000           -0.4000784             -10.8867
       218        2.0000           -0.3736679             -10.1680
       219        2.0000           -0.3736634             -10.1679
       220        2.0000           -0.3707110             -10.0876
       221        2.0000           -0.3565076              -9.7011 (HOMO)
       222                         -0.3166395              -8.6162 (LUMO)
       223                         -0.3061349              -8.3304
       224                         -0.3061344              -8.3303
       225                         -0.3001221              -8.1667
       226                         -0.2751261              -7.4866
       227                         -0.2666121              -7.2549
       228                         -0.2498142              -6.7978
       229                         -0.2498064              -6.7976
       230                         -0.2490444              -6.7768
       231                         -0.2482700              -6.7558
       232                         -0.2376892              -6.4679
       ...                                ...                  ...
       476                          1.3560668              36.9005
      -------------------------------------------------------------
                  HL-Gap            0.0398682 Eh            1.0849 eV

Wiberg/Mayer (AO) data.
largest (>0.10) Wiberg bond orders for each atom

     #   Z sym  total        # sym  WBO       # sym  WBO       # sym  WBO
 ---------------------------------------------------------------------------
     1  30 Zn   2.000 --     7 N    0.460    34 N    0.460    35 N    0.458
                            12 N    0.457
     2   6 C    3.928 --    33 C    1.357     3 C    1.356    46 H    0.972
     3   6 C    3.924 --     2 C    1.356     7 N    1.236     4 C    1.170
     4   6 C    3.960 --     5 C    1.660     3 C    1.170    47 H    0.976
     5   6 C    3.963 --     4 C    1.660     6 C    1.172    48 H    0.975
     6   6 C    3.918 --     8 C    1.321     7 N    1.241     5 C    1.172
     7   7 N    3.294 --     6 C    1.241     3 C    1.236     1 Zn   0.460
     8   6 C    3.933 --     9 C    1.328     6 C    1.321    36 C    1.014
     9   6 C    3.913 --     8 C    1.328    12 N    1.225    10 C    1.179
    10   6 C    3.960 --    11 C    1.647     9 C    1.179    49 H    0.975
    11   6 C    3.962 --    10 C    1.647    13 C    1.186    50 H    0.969
    12   7 N    3.298 --    13 C    1.262     9 C    1.225     1 Zn   0.457
    13   6 C    3.908 --    12 N    1.262    14 C    1.258    11 C    1.186
    14   6 C    3.940 --    13 C    1.258    15 C    1.258   145 C    1.179
    15   6 C    3.908 --    35 N    1.262    14 C    1.258    16 C    1.186
    16   6 C    3.963 --    17 C    1.646    15 C    1.186    51 H    0.969
    17   6 C    3.960 --    16 C    1.646    18 C    1.180    52 H    0.975
    18   6 C    3.913 --    19 C    1.328    35 N    1.224    17 C    1.180
    19   6 C    3.933 --    18 C    1.328    30 C    1.321    20 C    1.015
    20   6 C    3.978 --    27 C    1.344    21 C    1.343    19 C    1.015
                            25 C    0.101
    21   6 C    3.902 --    24 C    1.362    20 C    1.343    22 O    1.030
    22   8 O    2.144 --    21 C    1.030    23 C    0.936
    23   6 C    3.908 --    54 H    0.983    55 H    0.980    53 H    0.980
                            22 O    0.936
    24   6 C    3.983 --    25 C    1.442    21 C    1.362    56 H    0.969
    25   6 C    3.992 --    24 C    1.442    26 C    1.442    57 H    0.974
                            20 C    0.101
    26   6 C    3.983 --    25 C    1.442    27 C    1.362    58 H    0.969
    27   6 C    3.902 --    26 C    1.362    20 C    1.344    28 O    1.029
    28   8 O    2.143 --    27 C    1.029    29 C    0.937
    29   6 C    3.909 --    59 H    0.983    60 H    0.980    61 H    0.980
                            28 O    0.937
    30   6 C    3.918 --    19 C    1.321    34 N    1.241    31 C    1.172
    31   6 C    3.963 --    32 C    1.660    30 C    1.172    62 H    0.975
    32   6 C    3.960 --    31 C    1.660    33 C    1.170    63 H    0.976
    33   6 C    3.924 --     2 C    1.357    34 N    1.236    32 C    1.170
    34   7 N    3.294 --    30 C    1.241    33 C    1.236     1 Zn   0.460
    35   7 N    3.299 --    15 C    1.262    18 C    1.224     1 Zn   0.458
    36   6 C    3.978 --    43 C    1.345    37 C    1.343     8 C    1.014
                            41 C    0.101
    37   6 C    3.903 --    40 C    1.362    36 C    1.343    38 O    1.030
    38   8 O    2.144 --    37 C    1.030    39 C    0.936
    39   6 C    3.908 --    64 H    0.983    66 H    0.980    65 H    0.980
                            38 O    0.936
    40   6 C    3.983 --    41 C    1.442    37 C    1.362    67 H    0.969
    41   6 C    3.992 --    42 C    1.442    40 C    1.442    68 H    0.974
                            36 C    0.101
    42   6 C    3.983 --    41 C    1.442    43 C    1.362    69 H    0.969
    43   6 C    3.902 --    42 C    1.362    36 C    1.345    44 O    1.029
    44   8 O    2.143 --    43 C    1.029    45 C    0.937
    45   6 C    3.909 --    71 H    0.983    72 H    0.980    70 H    0.980
                            44 O    0.937
    46   1 H    1.002 --     2 C    0.972
    47   1 H    0.999 --     4 C    0.976
    48   1 H    1.003 --     5 C    0.975
    49   1 H    1.003 --    10 C    0.975
    50   1 H    1.007 --    11 C    0.969
    51   1 H    1.007 --    16 C    0.969
    52   1 H    1.003 --    17 C    0.975
    53   1 H    1.009 --    23 C    0.980
    54   1 H    1.016 --    23 C    0.983
    55   1 H    1.009 --    23 C    0.980
    56   1 H    1.000 --    24 C    0.969
    57   1 H    1.003 --    25 C    0.974
    58   1 H    1.000 --    26 C    0.969
    59   1 H    1.016 --    29 C    0.983
    60   1 H    1.009 --    29 C    0.980
    61   1 H    1.009 --    29 C    0.980
    62   1 H    1.003 --    31 C    0.975
    63   1 H    0.999 --    32 C    0.976
    64   1 H    1.016 --    39 C    0.983
    65   1 H    1.009 --    39 C    0.980
    66   1 H    1.009 --    39 C    0.980
    67   1 H    1.000 --    40 C    0.969
    68   1 H    1.003 --    41 C    0.974
    69   1 H    1.000 --    42 C    0.969
    70   1 H    1.009 --    45 C    0.980
    71   1 H    1.016 --    45 C    0.983
    72   1 H    1.009 --    45 C    0.980
    73  30 Zn   2.000 --    79 N    0.460   106 N    0.460   107 N    0.458
                            84 N    0.457
    74   6 C    3.928 --   105 C    1.357    75 C    1.356   118 H    0.972
    75   6 C    3.924 --    74 C    1.356    79 N    1.236    76 C    1.170
    76   6 C    3.960 --    77 C    1.660    75 C    1.170   119 H    0.976
    77   6 C    3.963 --    76 C    1.660    78 C    1.172   120 H    0.975
    78   6 C    3.918 --    80 C    1.321    79 N    1.241    77 C    1.172
    79   7 N    3.294 --    78 C    1.241    75 C    1.236    73 Zn   0.460
    80   6 C    3.933 --    81 C    1.328    78 C    1.321   108 C    1.014
    81   6 C    3.913 --    80 C    1.328    84 N    1.225    82 C    1.179
    82   6 C    3.960 --    83 C    1.647    81 C    1.179   121 H    0.975
    83   6 C    3.962 --    82 C    1.647    85 C    1.186   122 H    0.969
    84   7 N    3.298 --    85 C    1.262    81 C    1.225    73 Zn   0.457
    85   6 C    3.908 --    84 N    1.262    86 C    1.258    83 C    1.186
    86   6 C    3.940 --    85 C    1.258    87 C    1.258   146 C    1.179
    87   6 C    3.908 --   107 N    1.262    86 C    1.258    88 C    1.186
    88   6 C    3.963 --    89 C    1.646    87 C    1.186   123 H    0.969
    89   6 C    3.960 --    88 C    1.646    90 C    1.180   124 H    0.975
    90   6 C    3.913 --    91 C    1.328   107 N    1.224    89 C    1.180
    91   6 C    3.933 --    90 C    1.328   102 C    1.321    92 C    1.015
    92   6 C    3.978 --    99 C    1.344    93 C    1.343    91 C    1.015
                            97 C    0.101
    93   6 C    3.902 --    96 C    1.362    92 C    1.343    94 O    1.030
    94   8 O    2.144 --    93 C    1.030    95 C    0.936
    95   6 C    3.908 --   126 H    0.983   127 H    0.980   125 H    0.980
                            94 O    0.936
    96   6 C    3.983 --    97 C    1.442    93 C    1.362   128 H    0.969
    97   6 C    3.992 --    96 C    1.442    98 C    1.442   129 H    0.974
                            92 C    0.101
    98   6 C    3.983 --    97 C    1.442    99 C    1.362   130 H    0.969
    99   6 C    3.902 --    98 C    1.362    92 C    1.344   100 O    1.029
   100   8 O    2.143 --    99 C    1.029   101 C    0.937
   101   6 C    3.909 --   131 H    0.983   132 H    0.980   133 H    0.980
                           100 O    0.937
   102   6 C    3.918 --    91 C    1.321   106 N    1.241   103 C    1.172
   103   6 C    3.963 --   104 C    1.660   102 C    1.172   134 H    0.975
   104   6 C    3.960 --   103 C    1.660   105 C    1.170   135 H    0.976
   105   6 C    3.924 --    74 C    1.357   106 N    1.236   104 C    1.170
   106   7 N    3.294 --   102 C    1.241   105 C    1.236    73 Zn   0.460
   107   7 N    3.299 --    87 C    1.262    90 C    1.224    73 Zn   0.458
   108   6 C    3.978 --   115 C    1.345   109 C    1.343    80 C    1.014
                           113 C    0.101
   109   6 C    3.903 --   112 C    1.362   108 C    1.343   110 O    1.030
   110   8 O    2.144 --   109 C    1.030   111 C    0.936
   111   6 C    3.908 --   136 H    0.983   138 H    0.980   137 H    0.980
                           110 O    0.936
   112   6 C    3.983 --   113 C    1.442   109 C    1.362   139 H    0.969
   113   6 C    3.992 --   114 C    1.442   112 C    1.442   140 H    0.974
                           108 C    0.101
   114   6 C    3.983 --   113 C    1.442   115 C    1.362   141 H    0.969
   115   6 C    3.902 --   114 C    1.362   108 C    1.345   116 O    1.029
   116   8 O    2.143 --   115 C    1.029   117 C    0.937
   117   6 C    3.909 --   143 H    0.983   144 H    0.980   142 H    0.980
                           116 O    0.937
   118   1 H    1.002 --    74 C    0.972
   119   1 H    0.999 --    76 C    0.976
   120   1 H    1.003 --    77 C    0.975
   121   1 H    1.003 --    82 C    0.975
   122   1 H    1.007 --    83 C    0.969
   123   1 H    1.007 --    88 C    0.969
   124   1 H    1.003 --    89 C    0.975
   125   1 H    1.009 --    95 C    0.980
   126   1 H    1.016 --    95 C    0.983
   127   1 H    1.009 --    95 C    0.980
   128   1 H    1.000 --    96 C    0.969
   129   1 H    1.003 --    97 C    0.974
   130   1 H    1.000 --    98 C    0.969
   131   1 H    1.016 --   101 C    0.983
   132   1 H    1.009 --   101 C    0.980
   133   1 H    1.009 --   101 C    0.980
   134   1 H    1.003 --   103 C    0.975
   135   1 H    0.999 --   104 C    0.976
   136   1 H    1.016 --   111 C    0.983
   137   1 H    1.009 --   111 C    0.980
   138   1 H    1.009 --   111 C    0.980
   139   1 H    1.000 --   112 C    0.969
   140   1 H    1.003 --   113 C    0.974
   141   1 H    1.000 --   114 C    0.969
   142   1 H    1.009 --   117 C    0.980
   143   1 H    1.016 --   117 C    0.983
   144   1 H    1.009 --   117 C    0.980
   145   6 C    3.934 --   146 C    2.576    14 C    1.179
   146   6 C    3.934 --   145 C    2.576    86 C    1.179
 ---------------------------------------------------------------------------

           -------------------------------------------------
          | TOTAL ENERGY             -250.268924739998 Eh   |
          | GRADIENT NORM               0.000299883941 Eh/α |
          | HOMO-LUMO GAP               1.084867773471 eV   |
           -------------------------------------------------

 * finished run on 2022/07/30 at 14:49:26.987
