   * xtb version 6.5.1 (b24c23e) compiled by 'conda@728c89f4b128' on 2022-07-12
          program call               : xtb Cu_PhCHO_C6_2.xyz --gfn 1 --opt -T 48

   ID    Z sym.   atoms
    1   29 Cu     1, 61
    2    6 C      2-6, 8-13, 15-19, 21-26, 28-33, 35-40, 62-66, 68-73, 75-79,
                  81-86, 88-93, 95-100, 121-126
    3    7 N      7, 20, 27, 41, 67, 80, 87, 101
    4    8 O      14, 34, 74, 94
    5    1 H      42-60, 102-120
########################################################################
[WARNING] Please study the warnings concerning your input carefully
-1- prog_main_parseArguments: Unknown option '-T' provided
########################################################################

          :  Hamiltonian                  GFN1-xTB          :
 * total energy  :  -229.8687435 Eh     change       -0.8363116E-08 Eh
 * total energy  :  -229.9617936 Eh     change       -0.9305014E-01 Eh
 * total energy  :  -230.0051767 Eh     change       -0.4338307E-01 Eh
 * total energy  :  -230.0147389 Eh     change       -0.9562160E-02 Eh
 * total energy  :  -230.0203314 Eh     change       -0.5592497E-02 Eh
 * total energy  :  -230.0231339 Eh     change       -0.2802532E-02 Eh
 * total energy  :  -230.0254310 Eh     change       -0.2297059E-02 Eh
 * total energy  :  -230.0265120 Eh     change       -0.1081098E-02 Eh
 * total energy  :  -230.0275174 Eh     change       -0.1005361E-02 Eh
 * total energy  :  -230.0280221 Eh     change       -0.5047186E-03 Eh
 * total energy  :  -230.0308308 Eh     change       -0.1646146E-04 Eh
 * total energy  :  -230.0308516 Eh     change       -0.2085709E-04 Eh
 * total energy  :  -230.0308672 Eh     change       -0.1559975E-04 Eh
 * total energy  :  -230.0308725 Eh     change       -0.5269412E-05 Eh
 * total energy  :  -230.0308781 Eh     change       -0.5612838E-05 Eh
 * total energy  :  -230.0308830 Eh     change       -0.4874386E-05 Eh
 * total energy  :  -230.0308870 Eh     change       -0.4049505E-05 Eh
 * total energy  :  -230.0308867 Eh     change        0.3395951E-06 Eh
 * total energy  :  -230.0308894 Eh     change       -0.2755322E-05 Eh
   *** GEOMETRY OPTIMIZATION CONVERGED AFTER 45 ITERATIONS ***

 final structure:
================
126
 xtb: 6.5.1 (b24c23e)
Cu          14.55141897161780        0.04148693442724       -0.02810974119174
C           11.14610716544563        0.07644253245606       -0.09293809388759
C           11.77926482601008        1.30151513348911        0.05261055820264
C           11.10161192473649        2.55613221238133        0.21440127803704
C           12.05843359187647        3.50683936960733        0.35246078056150
C           13.33060072157829        2.84203309059731        0.26458977163112
N           13.12963802747121        1.50353915657313        0.08919193997122
C           14.57503656208451        3.46705956625202        0.37803168205881
C           14.58829082561533        4.93742577018761        0.56898643459790
C           15.12650571070347        5.49220070249755        1.73419968958766
C           15.13823439761557        6.86175405233010        1.91450870748242
C           14.61699508419001        7.70929809830571        0.93118024353711
C           14.64518691286777        9.16756659120597        1.14479279149797
O           15.09435375500103        9.69125486010845        2.13224646541671
C           14.08081056856287        7.15642367517328       -0.23434264272100
C           14.06446449499977        5.78431289803738       -0.41156238233150
C           15.80938417895078        2.81551393693656        0.32915880043825
C           17.08631512414484        3.46944762143072        0.38710139367654
C           18.03323807725601        2.50305833562936        0.28360187347278
N           15.99903615068972        1.46746884282712        0.17971688095430
C           17.34301620362528        1.25471481571876        0.15544479798165
C           17.98037402727990        0.00934501448327        0.01492673038830
C           17.32385180891567       -1.22504928684769       -0.13294625144214
C           17.99442764302999       -2.47932818943071       -0.30083716017816
C           17.03247407450180       -3.42932342194020       -0.41753404918134
C           15.76589236136416       -2.76101669099472       -0.31372180066792
N           15.97667827607997       -1.41770560426277       -0.15021381241937
C           14.52083697168563       -3.38778172293979       -0.40191052199779
C           14.50632359461865       -4.86230054077213       -0.55516979120656
C           13.94476934335976       -5.44840917886499       -1.69304677295261
C           13.92698429280850       -6.82420784729157       -1.83730218837011
C           14.46686913373184       -7.64313435851662       -0.84259118847336
C           14.45483925969927       -9.11152735352548       -0.96978166453118
O           14.90497814521490       -9.85922682271581       -0.14017374030540
C           15.02840077286282       -7.05720401759307        0.29674966895748
C           15.05022628290738       -5.68307155945435        0.43757014518400
C           13.28646289709946       -2.73415170830759       -0.35611976464473
C           12.00372730583965       -3.38302579481611       -0.39933656556807
C           11.06220477311065       -2.41077499742616       -0.31812478112021
C           11.75984849453026       -1.16117914963504       -0.21306502636156
N           13.10692266337137       -1.38685863591586       -0.23310965792498
H           10.06104619498855        0.08557740627558       -0.09908921607830
H           10.03003362687961        2.67814163955240        0.22745942421172
H           11.92163539694672        4.56418648583332        0.51261577561854
H           15.52044939177142        4.83714595642124        2.50298103850569
H           15.54870362528299        7.29945200559820        2.81807579793487
H           14.21230785189784        9.75880225136123        0.30981392345229
H           13.67863886194268        7.80698554278904       -1.00409033889100
H           13.65986051129330        5.35896926811930       -1.32303798171887
H           17.23562414645508        4.53293108843840        0.47990341629493
H           19.10544532962806        2.61638099193674        0.28707996721453
H           19.06477564053893       -2.60597076348841       -0.33044095982776
H           17.16524690214759       -4.48745527538837       -0.57446677531595
H           13.53586133622956       -4.81514321701623       -2.47233693202205
H           13.49308124555392       -7.27024447987726       -2.72628954870031
H           13.98903652481112       -9.48398036183366       -1.90696579329446
H           15.44271542888761       -7.70082965730212        1.06525654284250
H           15.47435588234647       -5.23263672033991        1.32779629413607
H           11.84979332827553       -4.44782832990281       -0.46833821799174
H            9.98884450382461       -2.51681938442736       -0.31908727877237
Cu          30.58620517159295       -0.03779062172559       -0.03397973464610
C           33.99154004990734       -0.06347607837069       -0.10189844058442
C           33.35824732945601       -1.29684762773072       -0.12646111045288
C           34.03581714932896       -2.56182998259163       -0.13701979897497
C           33.07889482278427       -3.52240367515769       -0.13547274273192
C           31.80674703982776       -2.85174287912777       -0.13584413501111
N           32.00781361226244       -1.50189474597757       -0.12253387392818
C           30.56206633564155       -3.48644809392626       -0.11838077628273
C           30.54904083826546       -4.96888640096653       -0.13938820734820
C           30.00023941019856       -5.68485768191658        0.92902941780929
C           29.98942994447543       -7.06612370120323        0.91169251446934
C           30.52258193502232       -7.76424231270209       -0.17702126630301
C           30.49609945680835       -9.23806710425359       -0.17381726578217
O           30.03780549041975       -9.89762844027511        0.72381102341511
C           31.06928231489370       -7.05019437414009       -1.24611516576349
C           31.08431439193122       -5.66685264997069       -1.22548449208696
C           29.32767093417310       -2.83417753509308       -0.07964695024517
C           28.05061132878408       -3.48905286273614       -0.12232272600086
C           27.10393160751714       -2.51752533672935       -0.08736808134614
N           29.13835595462495       -1.47862925001622       -0.03292353690488
C           27.79442726958892       -1.26409893025708       -0.02993473343464
C           27.15725047342503       -0.01146297200203        0.01275135746129
C           27.81393881405751        1.23119851213146        0.04655904686193
C           27.14361844971894        2.49667170113802        0.06527471250404
C           28.10579145126928        3.45336653157115        0.08513871117126
C           29.37225080804412        2.77683629212031        0.08608537366222
N           29.16115544961120        1.42405500732332        0.05371918836226
C           30.61726991148244        3.40969888254148        0.08291950890052
C           30.63148550118894        4.89112183116077        0.14194075265474
C           31.18201128102151        5.63457246134513       -0.90575839157789
C           31.19825710495037        7.01691943555555       -0.85194558771783
C           30.66829350578727        7.68437203221579        0.25493946292260
C           30.67867413290281        9.15593261654684        0.33884664226632
O           30.23728831278424        9.77662674105054        1.27167027520605
C           30.11833116702511        6.94074697309813        1.30440069887383
C           30.09764038218488        5.56057815630189        1.24728714387041
C           31.85146128288598        2.75645506986872        0.03004300644408
C           33.13424306314935        3.40525731272328        0.07234861448803
C           34.07568474766267        2.43120414847082        0.01537957510920
C           33.37793607004137        1.17898702017437       -0.05090355066723
N           32.03090306550794        1.40514983651229       -0.03607153570079
H           35.07660209327521       -0.07183938811221       -0.10890334606675
H           35.10738300251158       -2.68460550523500       -0.13662312894286
H           33.21570320535573       -4.59172318803883       -0.12204502440081
H           29.59739213203056       -5.14668990353495        1.77956624593329
H           29.57075144936496       -7.62866279402772        1.73922263104780
H           30.93934802904741       -9.70381280861968       -1.08005178016562
H           31.48085429533976       -7.58385606484953       -2.09658941580836
H           31.49697194030113       -5.11547257991313       -2.06283948633814
H           27.90099301234930       -4.55462053338904       -0.18618793667389
H           26.03172748325309       -2.62971577614177       -0.10426226679966
H           26.07327274411645        2.62646972077433        0.05796030429844
H           27.97331501470661        4.52311216526978        0.08484190374077
H           31.58334505112306        5.11979270444329       -1.77147955142301
H           31.62313870398243        7.58617285220602       -1.67229730933336
H           31.13387343546762        9.65929112576581       -0.54051815142398
H           29.71186997232547        7.46724832489079        2.16119895833556
H           29.68206982024830        4.98674029108825        2.06783635630129
H           33.28816648571732        4.46946108453314        0.15010596642151
H           35.14908036181182        2.53645009569578        0.02539282665154
C           23.18278704356073        0.00110981070328        0.01627039590258
C           21.95478884971180       -0.00065264669402        0.01731331940474
C           20.60997322909737       -0.00040518925304        0.01670250640129
C           19.38646260871899        0.00035900544494        0.01454676654579
C           24.52760804543316       -0.00046006875348        0.01637698029646
C           25.75116050221621       -0.00240981565319        0.01446713939622

          :  Hamiltonian                  GFN1-xTB          :
         :: total energy            -230.030889434003 Eh    ::
         :: gradient norm              0.000967930643 Eh/a0 ::
         :: HOMO-LUMO gap              0.000037446729 eV    ::
         :: SCC energy              -233.562987711225 Eh    ::
         :: repulsion energy           3.643612622241 Eh    ::

    * Orbital Energies and Occupations

         #    Occupation            Energy/Eh            Energy/eV
      -------------------------------------------------------------
         1        2.0000           -0.7913218             -21.5330
       ...           ...                  ...                  ...
       198        2.0000           -0.4233797             -11.5207
       199        2.0000           -0.4229033             -11.5078
       200        2.0000           -0.4202496             -11.4356
       201        2.0000           -0.4202469             -11.4355
       202        2.0000           -0.4200762             -11.4309
       203        2.0000           -0.4200304             -11.4296
       204        2.0000           -0.4200274             -11.4295
       205        2.0000           -0.4199721             -11.4280
       206        2.0000           -0.4077517             -11.0955
       207        2.0000           -0.4077514             -11.0955
       208        2.0000           -0.4039301             -10.9915
       209        2.0000           -0.3931889             -10.6992
       210        1.0004           -0.3677775             -10.0077 (HOMO)
       211        0.9996           -0.3677761             -10.0077 (LUMO)
       212                         -0.3498151              -9.5190
       213                         -0.3431573              -9.3378
       214                         -0.3431557              -9.3377
       215                         -0.3381607              -9.2018
       216                         -0.3270426              -8.8993
       217                         -0.3265643              -8.8863
       218                         -0.3217004              -8.7539
       219                         -0.3216914              -8.7537
       220                         -0.3077749              -8.3750
       221                         -0.3003636              -8.1733
       ...                                ...                  ...
       438                          1.5711740              42.7538
      -------------------------------------------------------------
                  HL-Gap            0.0000014 Eh            0.0000 eV

Wiberg/Mayer (AO) data.
largest (>0.10) Wiberg bond orders for each atom

     #   Z sym  total        # sym  WBO       # sym  WBO       # sym  WBO
 ---------------------------------------------------------------------------
     1  29 Cu   2.182 --    41 N    0.504     7 N    0.504    20 N    0.502
                            27 N    0.501
     2   6 C    3.930 --    40 C    1.362     3 C    1.362    42 H    0.971
     3   6 C    3.916 --     2 C    1.362     7 N    1.229     4 C    1.170
     4   6 C    3.955 --     5 C    1.657     3 C    1.170    43 H    0.975
     5   6 C    3.958 --     4 C    1.657     6 C    1.171    44 H    0.973
     6   6 C    3.913 --     8 C    1.317     7 N    1.240     5 C    1.171
     7   7 N    3.243 --     6 C    1.240     3 C    1.229     1 Cu   0.504
     8   6 C    3.933 --    17 C    1.324     6 C    1.317     9 C    1.031
     9   6 C    3.986 --    16 C    1.384    10 C    1.381     8 C    1.031
    10   6 C    3.987 --    11 C    1.471     9 C    1.381    45 H    0.972
    11   6 C    3.988 --    10 C    1.471    12 C    1.369    46 H    0.968
                            16 C    0.100
    12   6 C    3.983 --    15 C    1.378    11 C    1.369    13 C    1.050
    13   6 C    3.864 --    14 O    1.807    12 C    1.050    47 H    0.942
    14   8 O    2.003 --    13 C    1.807
    15   6 C    3.993 --    16 C    1.465    12 C    1.378    48 H    0.971
    16   6 C    3.988 --    15 C    1.465     9 C    1.384    49 H    0.972
                            11 C    0.100
    17   6 C    3.907 --     8 C    1.324    20 N    1.223    18 C    1.178
    18   6 C    3.954 --    19 C    1.644    17 C    1.178    50 H    0.973
    19   6 C    3.956 --    18 C    1.644    21 C    1.186    51 H    0.974
    20   7 N    3.248 --    21 C    1.256    17 C    1.223     1 Cu   0.502
    21   6 C    3.896 --    22 C    1.260    20 N    1.256    19 C    1.186
    22   6 C    3.940 --    23 C    1.260    21 C    1.260   124 C    1.187
    23   6 C    3.896 --    22 C    1.260    27 N    1.256    24 C    1.186
    24   6 C    3.956 --    25 C    1.644    23 C    1.186    52 H    0.974
    25   6 C    3.954 --    24 C    1.644    26 C    1.178    53 H    0.973
    26   6 C    3.907 --    28 C    1.324    27 N    1.223    25 C    1.178
    27   7 N    3.248 --    23 C    1.256    26 C    1.223     1 Cu   0.501
    28   6 C    3.933 --    26 C    1.324    37 C    1.317    29 C    1.032
    29   6 C    3.986 --    30 C    1.383    36 C    1.381    28 C    1.032
    30   6 C    3.987 --    31 C    1.466    29 C    1.383    54 H    0.972
                            35 C    0.100
    31   6 C    3.993 --    30 C    1.466    32 C    1.378    55 H    0.971
    32   6 C    3.983 --    31 C    1.378    35 C    1.370    33 C    1.050
    33   6 C    3.864 --    34 O    1.808    32 C    1.050    56 H    0.942
    34   8 O    2.003 --    33 C    1.808
    35   6 C    3.988 --    36 C    1.471    32 C    1.370    57 H    0.968
                            30 C    0.100
    36   6 C    3.987 --    35 C    1.471    29 C    1.381    58 H    0.972
    37   6 C    3.913 --    28 C    1.317    41 N    1.241    38 C    1.171
    38   6 C    3.958 --    39 C    1.657    37 C    1.171    59 H    0.973
    39   6 C    3.955 --    38 C    1.657    40 C    1.170    60 H    0.975
    40   6 C    3.916 --     2 C    1.362    41 N    1.229    39 C    1.170
    41   7 N    3.243 --    37 C    1.241    40 C    1.229     1 Cu   0.504
    42   1 H    1.001 --     2 C    0.971
    43   1 H    0.997 --     4 C    0.975
    44   1 H    1.004 --     5 C    0.973
    45   1 H    1.004 --    10 C    0.972
    46   1 H    1.005 --    11 C    0.968
    47   1 H    1.010 --    13 C    0.942
    48   1 H    1.000 --    15 C    0.971
    49   1 H    1.004 --    16 C    0.972
    50   1 H    1.004 --    18 C    0.973
    51   1 H    1.002 --    19 C    0.974
    52   1 H    1.002 --    24 C    0.974
    53   1 H    1.004 --    25 C    0.973
    54   1 H    1.004 --    30 C    0.972
    55   1 H    1.000 --    31 C    0.971
    56   1 H    1.010 --    33 C    0.942
    57   1 H    1.005 --    35 C    0.968
    58   1 H    1.004 --    36 C    0.972
    59   1 H    1.004 --    38 C    0.973
    60   1 H    0.997 --    39 C    0.975
    61  29 Cu   2.182 --   101 N    0.504    67 N    0.504    80 N    0.502
                            87 N    0.501
    62   6 C    3.930 --   100 C    1.362    63 C    1.362   102 H    0.971
    63   6 C    3.916 --    62 C    1.362    67 N    1.229    64 C    1.170
    64   6 C    3.955 --    65 C    1.657    63 C    1.170   103 H    0.975
    65   6 C    3.958 --    64 C    1.657    66 C    1.171   104 H    0.973
    66   6 C    3.913 --    68 C    1.317    67 N    1.241    65 C    1.171
    67   7 N    3.243 --    66 C    1.241    63 C    1.229    61 Cu   0.504
    68   6 C    3.933 --    77 C    1.324    66 C    1.317    69 C    1.031
    69   6 C    3.986 --    76 C    1.384    70 C    1.380    68 C    1.031
    70   6 C    3.987 --    71 C    1.471    69 C    1.380   105 H    0.972
    71   6 C    3.988 --    70 C    1.471    72 C    1.369   106 H    0.968
                            76 C    0.100
    72   6 C    3.983 --    75 C    1.378    71 C    1.369    73 C    1.050
    73   6 C    3.864 --    74 O    1.808    72 C    1.050   107 H    0.942
    74   8 O    2.003 --    73 C    1.808
    75   6 C    3.993 --    76 C    1.465    72 C    1.378   108 H    0.971
    76   6 C    3.987 --    75 C    1.465    69 C    1.384   109 H    0.972
                            71 C    0.100
    77   6 C    3.907 --    68 C    1.324    80 N    1.223    78 C    1.178
    78   6 C    3.954 --    79 C    1.644    77 C    1.178   110 H    0.973
    79   6 C    3.956 --    78 C    1.644    81 C    1.186   111 H    0.974
    80   7 N    3.248 --    81 C    1.256    77 C    1.223    61 Cu   0.502
    81   6 C    3.896 --    82 C    1.260    80 N    1.256    79 C    1.186
    82   6 C    3.940 --    83 C    1.260    81 C    1.260   126 C    1.187
    83   6 C    3.896 --    82 C    1.260    87 N    1.256    84 C    1.186
    84   6 C    3.956 --    85 C    1.644    83 C    1.186   112 H    0.974
    85   6 C    3.954 --    84 C    1.644    86 C    1.178   113 H    0.973
    86   6 C    3.907 --    88 C    1.324    87 N    1.223    85 C    1.178
    87   7 N    3.248 --    83 C    1.256    86 C    1.223    61 Cu   0.501
    88   6 C    3.933 --    86 C    1.324    97 C    1.317    89 C    1.031
    89   6 C    3.986 --    90 C    1.383    96 C    1.381    88 C    1.031
    90   6 C    3.987 --    91 C    1.466    89 C    1.383   114 H    0.972
                            95 C    0.100
    91   6 C    3.993 --    90 C    1.466    92 C    1.378   115 H    0.971
    92   6 C    3.983 --    91 C    1.378    95 C    1.370    93 C    1.050
    93   6 C    3.864 --    94 O    1.808    92 C    1.050   116 H    0.942
    94   8 O    2.003 --    93 C    1.808
    95   6 C    3.988 --    96 C    1.471    92 C    1.370   117 H    0.968
                            90 C    0.100
    96   6 C    3.987 --    95 C    1.471    89 C    1.381   118 H    0.972
    97   6 C    3.913 --    88 C    1.317   101 N    1.241    98 C    1.171
    98   6 C    3.958 --    99 C    1.657    97 C    1.171   119 H    0.973
    99   6 C    3.955 --    98 C    1.657   100 C    1.170   120 H    0.975
   100   6 C    3.916 --    62 C    1.362   101 N    1.229    99 C    1.170
   101   7 N    3.243 --    97 C    1.241   100 C    1.229    61 Cu   0.504
   102   1 H    1.001 --    62 C    0.971
   103   1 H    0.997 --    64 C    0.975
   104   1 H    1.004 --    65 C    0.973
   105   1 H    1.004 --    70 C    0.972
   106   1 H    1.005 --    71 C    0.968
   107   1 H    1.010 --    73 C    0.942
   108   1 H    1.000 --    75 C    0.971
   109   1 H    1.004 --    76 C    0.972
   110   1 H    1.004 --    78 C    0.973
   111   1 H    1.002 --    79 C    0.974
   112   1 H    1.002 --    84 C    0.974
   113   1 H    1.004 --    85 C    0.973
   114   1 H    1.004 --    90 C    0.972
   115   1 H    1.000 --    91 C    0.971
   116   1 H    1.010 --    93 C    0.942
   117   1 H    1.005 --    95 C    0.968
   118   1 H    1.004 --    96 C    0.972
   119   1 H    1.004 --    98 C    0.973
   120   1 H    0.997 --    99 C    0.975
   121   6 C    3.927 --   122 C    2.373   125 C    1.332   124 C    0.191
   122   6 C    3.927 --   121 C    2.373   123 C    1.332   126 C    0.191
   123   6 C    3.936 --   124 C    2.454   122 C    1.332
   124   6 C    3.892 --   123 C    2.454    22 C    1.187   121 C    0.191
   125   6 C    3.936 --   126 C    2.454   121 C    1.332
   126   6 C    3.892 --   125 C    2.454    82 C    1.187   122 C    0.191
 ---------------------------------------------------------------------------

           -------------------------------------------------
          | TOTAL ENERGY             -230.030889434003 Eh   |
          | GRADIENT NORM               0.000967930643 Eh/α |
          | HOMO-LUMO GAP               0.000037446729 eV   |
           -------------------------------------------------

 * finished run on 2022/07/30 at 06:22:17.913
