   * xtb version 6.5.1 (b24c23e) compiled by 'conda@728c89f4b128' on 2022-07-12
          program call               : xtb Ni_Ph3OH_C4_2.xyz --gfn 1 --opt -T 48

   ID    Z sym.   atoms
    1   28 Ni     1, 63
    2    6 C      2-6, 8-11, 13, 15, 17-20, 22-27, 29-32, 34, 36, 38-42,
                  64-68, 70-73, 75, 77, 79-82, 84-89, 91-94, 96, 98, 100-104,
                  125-128
    3    7 N      7, 21, 28, 43, 69, 83, 90, 105
    4    8 O      12, 14, 16, 33, 35, 37, 74, 76, 78, 95, 97, 99
    5    1 H      44-62, 106-124
########################################################################
[WARNING] Please study the warnings concerning your input carefully
-1- prog_main_parseArguments: Unknown option '-T' provided
########################################################################

          :  Hamiltonian                  GFN1-xTB          :
 * total energy  :  -253.7705195 Eh     change       -0.3822720E-09 Eh
 * total energy  :  -254.2339371 Eh     change       -0.4634176E+00 Eh
 * total energy  :  -254.3360903 Eh     change       -0.1021532E+00 Eh
 * total energy  :  -254.3889549 Eh     change       -0.5286465E-01 Eh
 * total energy  :  -254.4087395 Eh     change       -0.1978456E-01 Eh
 * total energy  :  -254.4185547 Eh     change       -0.9815174E-02 Eh
 * total energy  :  -254.4228094 Eh     change       -0.4254670E-02 Eh
 * total energy  :  -254.4244007 Eh     change       -0.1591322E-02 Eh
 * total energy  :  -254.4258446 Eh     change       -0.1443924E-02 Eh
 * total energy  :  -254.4265587 Eh     change       -0.7141324E-03 Eh
 * total energy  :  -254.4301914 Eh     change       -0.9824516E-05 Eh
 * total energy  :  -254.4302039 Eh     change       -0.1252221E-04 Eh
 * total energy  :  -254.4302118 Eh     change       -0.7935363E-05 Eh
 * total energy  :  -254.4302183 Eh     change       -0.6476153E-05 Eh
 * total energy  :  -254.4302237 Eh     change       -0.5430408E-05 Eh
 * total energy  :  -254.4302304 Eh     change       -0.6633260E-05 Eh
 * total energy  :  -254.4302374 Eh     change       -0.6992870E-05 Eh
 * total energy  :  -254.4302424 Eh     change       -0.5090354E-05 Eh
 * total energy  :  -254.4302459 Eh     change       -0.3417233E-05 Eh
   *** GEOMETRY OPTIMIZATION CONVERGED AFTER 58 ITERATIONS ***

 final structure:
================
128
 xtb: 6.5.1 (b24c23e)
Ni          15.99535222112923        0.07023302384385        0.01277741431085
C           12.60230066466083        0.10072733215123       -0.13866002275415
C           13.25454360180625        1.31031996537932       -0.02680560216814
C           12.57367758685517        2.56616018739189        0.05591389063433
C           13.52958114280142        3.52132867513532        0.12540205913221
C           14.79443266225459        2.84799300934733        0.07350684146646
N           14.61508153004540        1.48878983494206        0.00271058335481
C           16.01805962074475        3.50396903785308        0.08950049714070
C           16.02935890897638        4.98820680756874        0.11875686312282
C           15.49567181738757        5.71164644842698       -0.94756996279738
C           15.51224749006416        7.10142633581617       -0.92397445718194
O           15.00411151029874        7.81504763483797       -1.95811314167661
C           16.05639046314487        7.77155641392286        0.17288206072519
O           16.05598538872845        9.14186842872373        0.16967771068841
C           16.58473567887897        7.04843170747618        1.23919889501413
O           17.09689822406953        7.77587967690086        2.28118543018285
C           16.57731140477388        5.65914287460802        1.21493981822888
C           17.23173013738261        2.83022453856045        0.07299392128439
C           18.50205237000815        3.48929509467673        0.03936680195263
C           19.44715030826127        2.51924176518500        0.05618128783853
N           17.39844729606346        1.46327842895781        0.08425778678258
C           18.75279171824286        1.27194370418158        0.09098529170064
C           19.40877239410616        0.03961848864095        0.14128292307762
C           18.72888507672762       -1.18058421356024        0.15436105163527
C           19.39928609722563       -2.44068694689819        0.20347328303035
C           18.43901232072472       -3.39378690053076        0.14908619835215
C           17.18255532453821       -2.71170691325277        0.07422342222564
N           17.37321865568252       -1.34767519439458        0.08229272923195
C           15.96397545483863       -3.36277397649544       -0.05687120419888
C           15.95267145458308       -4.84738194355406       -0.09696625136755
C           16.34665230122618       -5.58299397826964        1.02018378544703
C           16.33632651437442       -6.97255417766145        0.97736319315996
O           16.71201636478106       -7.69889312903489        2.05824540798484
C           15.93733652080128       -7.62948998555875       -0.18775705289045
O           15.94149326934991       -8.99990720577196       -0.20157687690372
C           15.54682882363038       -6.89371873269633       -1.30351077131938
O           15.17198185747624       -7.60801766604053       -2.41110319543575
C           15.54925987504015       -5.50481509734423       -1.26173304015697
C           14.75646253887212       -2.68530021971370       -0.16122309974342
C           13.48486797572735       -3.33889722382244       -0.26783674326927
C           12.54445140643108       -2.36608633944625       -0.29368988785259
C           13.24090292989941       -1.12026236259566       -0.19375176145674
N           14.59633204480807       -1.32244582786059       -0.11907152956369
H           11.51931132475832        0.10936193451314       -0.18022265612253
H           11.50136096184476        2.68032995117424        0.06283673233421
H           13.40350137867182        4.58842100862325        0.20950544432750
H           15.08289591905879        5.20137176584736       -1.80819081604603
H           15.10929229247203        8.75973733220066       -1.75742067944321
H           16.46768900183957        9.44269787438255        0.99539599629610
H           17.44094283043689        7.19356801069199        2.97116506875967
H           16.98017508139753        5.10209900264029        2.05263525447018
H           18.64270503426847        4.55700724864003       -0.00176266412786
H           20.52014205495192        2.62274834214536        0.04237050638336
H           20.46858427958477       -2.56377257039603        0.26312898267365
H           18.56129619234918       -4.46441718314438        0.14786585266895
H           16.64699376644365       -5.08327883281352        1.93205828074688
H           16.63692403627588       -8.64100624534474        1.83334611380017
H           15.63913286983686       -9.29062953669424       -1.07663169974185
H           14.92528714648694       -7.01667516264233       -3.13432198858144
H           15.25621703388370       -4.93745639389703       -2.13730640659584
H           13.34247871685743       -4.40675266259615       -0.30388811093725
H           11.47263196453286       -2.46287791427444       -0.36322767600604
Ni          29.42658055498933       -0.07032703038616       -0.00002286025810
C           32.82039535034074       -0.08280408934393       -0.14032385781453
C           32.16823000723060       -1.29717501824506       -0.17261684381331
C           32.84954126095949       -2.55401282616143       -0.23364762841996
C           31.89399474125111       -3.51100155971730       -0.27830174038346
C           30.62887776001186       -2.83652827564247       -0.25564550878536
N           30.80768005908633       -1.47815046590457       -0.16884112272002
C           29.40550105148413       -3.49048983534248       -0.31566449887331
C           29.39460535644310       -4.96868083644419       -0.45202937103565
C           29.93202161610811       -5.57010936879899       -1.58985915641069
C           29.91600311711232       -6.95406409684990       -1.71956890311233
O           30.42796214000879       -7.54935868536227       -2.82431445097948
C           29.36851406813197       -7.74114054488963       -0.70517685232675
O           29.36952648288086       -9.10273781255577       -0.85945395421210
C           28.83641160453706       -7.14003931934432        0.43264177344970
O           28.32108944413105       -7.97781557487012        1.38643515189564
C           28.84348687091971       -5.75659578124407        0.56169980407479
C           28.19148129226978       -2.81970147765821       -0.25589486561062
C           26.92147219946363       -3.47145146817919       -0.36376679579031
C           25.97584395660009       -2.51022599509519       -0.23610138971146
N           28.02400406238619       -1.46302287865178       -0.08952093305548
C           26.66950392056910       -1.27448449152891       -0.06051807757811
C           26.01272140509595       -0.05604641581002        0.12773984397921
C           26.69192220336217        1.15567112238773        0.27538021005874
C           26.02072899279809        2.40233841183987        0.46288810462488
C           26.98062722852089        3.35588441868499        0.51658429521854
C           28.23745034662271        2.68663393736805        0.36885532932117
N           28.04753064798329        1.33013019036990        0.22421525260446
C           29.45606236089553        3.34837446245089        0.31705278388895
C           29.46657497032000        4.82791907829474        0.44825526585407
C           29.07843959056817        5.42796710131904        1.64552621302848
C           29.08908408344440        6.81301842410887        1.76511705796377
O           28.72001433777352        7.40819838082366        2.92549693277537
C           29.48153000728531        7.60135299411211        0.68220239747647
O           29.47772322085871        8.96407056721687        0.82827238151261
C           29.86528392712335        7.00087943879784       -0.51398989991062
O           30.23303551604817        7.83975732217178       -1.53308135074954
C           29.86364895120235        5.61649007116207       -0.63421070980990
C           30.66445309771455        2.68738198742835        0.14280830725673
C           31.93592758828867        3.34926585381328        0.11720922804147
C           32.87733490753175        2.38575058015305       -0.01249279987070
C           32.18134352508321        1.13643230992154       -0.05796427580018
N           30.82540690014285        1.32849185353176        0.03175488857465
H           33.90358484395234       -0.08663966034942       -0.17706974205974
H           33.92189444801787       -2.66799068518879       -0.23651093284616
H           32.02065020441680       -4.58059305227662       -0.31782545550236
H           30.34732891325007       -4.96821279991842       -2.38777016810855
H           30.32276193003186       -8.51042548572185       -2.72904793331827
H           28.95478298281284       -9.49275794747339       -0.07353191345313
H           27.97434854068355       -7.47491920461065        2.13504494449701
H           28.43792114430745       -5.29533207931974        1.45449446686769
H           26.78131919590277       -4.52758690580719       -0.52624558081620
H           24.90289215291277       -2.61211488635044       -0.26105158367076
H           24.95128236841279        2.51784803549170        0.53381241112223
H           26.85820294409016        4.41999361987949        0.63462952519538
H           28.78234509572227        4.82497786094646        2.49412721096127
H           28.79491735303440        8.37010661002704        2.81190616551855
H           29.77378973280468        9.35494952822454       -0.00917113682600
H           30.47432287573149        7.33702998104842       -2.32209386355336
H           30.15252041906407        5.15504830468788       -1.57120645316763
H           32.07702624193251        4.41457080334017        0.20173811402583
H           33.94945095593945        2.48994693313243       -0.06459393023818
C           22.03548255975770        0.00087362066593        0.17754011138523
C           20.81453679160530        0.02487822539324        0.16722659629219
C           23.38593082912974       -0.01927480318638        0.17315066769519
C           24.60698791755373       -0.04565701963489        0.15808402357448

          :  Hamiltonian                  GFN1-xTB          :
         :: total energy            -254.430245859873 Eh    ::
         :: gradient norm              0.000664464294 Eh/a0 ::
         :: HOMO-LUMO gap              1.198824207981 eV    ::
         :: SCC energy              -257.764909470125 Eh    ::
         :: repulsion energy           3.447996124671 Eh    ::

    * Orbital Energies and Occupations

         #    Occupation            Energy/Eh            Energy/eV
      -------------------------------------------------------------
         1        2.0000           -0.8129841             -22.1224
       ...           ...                  ...                  ...
       209        2.0000           -0.4113184             -11.1925
       210        2.0000           -0.3988042             -10.8520
       211        2.0000           -0.3987898             -10.8516
       212        2.0000           -0.3983390             -10.8394
       213        2.0000           -0.3983369             -10.8393
       214        2.0000           -0.3976135             -10.8196
       215        2.0000           -0.3976120             -10.8196
       216        2.0000           -0.3965988             -10.7920
       217        2.0000           -0.3965937             -10.7919
       218        2.0000           -0.3965342             -10.7902
       219        2.0000           -0.3965327             -10.7902
       220        2.0000           -0.3953060             -10.7568
       221        2.0000           -0.3839697             -10.4483 (HOMO)
       222                         -0.3399137              -9.2495 (LUMO)
       223                         -0.3302118              -8.9855
       224                         -0.3302014              -8.9852
       225                         -0.3289360              -8.9508
       226                         -0.3289230              -8.9505
       227                         -0.3263506              -8.8805
       228                         -0.2983169              -8.1176
       229                         -0.2904597              -7.9038
       230                         -0.2602721              -7.0824
       231                         -0.2557142              -6.9583
       232                         -0.2555377              -6.9535
       ...                                ...                  ...
       446                          1.5183283              41.3158
      -------------------------------------------------------------
                  HL-Gap            0.0440560 Eh            1.1988 eV

Wiberg/Mayer (AO) data.
largest (>0.10) Wiberg bond orders for each atom

     #   Z sym  total        # sym  WBO       # sym  WBO       # sym  WBO
 ---------------------------------------------------------------------------
     1  28 Ni   3.006 --     7 N    0.664    43 N    0.664    28 N    0.661
                            21 N    0.661
     2   6 C    3.934 --     3 C    1.364    42 C    1.363    44 H    0.970
     3   6 C    3.924 --     2 C    1.364     7 N    1.214     4 C    1.175
     4   6 C    3.960 --     5 C    1.650     3 C    1.175    45 H    0.975
     5   6 C    3.963 --     4 C    1.650     6 C    1.177    46 H    0.973
     6   6 C    3.919 --     8 C    1.325     7 N    1.221     5 C    1.177
     7   7 N    3.402 --     6 C    1.221     3 C    1.214     1 Ni   0.664
     8   6 C    3.939 --    18 C    1.329     6 C    1.325     9 C    1.023
     9   6 C    3.989 --    10 C    1.400    17 C    1.388     8 C    1.023
    10   6 C    3.978 --     9 C    1.400    11 C    1.379    47 H    0.970
    11   6 C    3.918 --    10 C    1.379    13 C    1.324    12 O    1.053
    12   8 O    2.048 --    11 C    1.053    48 H    0.847
    13   6 C    3.905 --    15 C    1.341    11 C    1.324    14 O    1.021
    14   8 O    2.021 --    13 C    1.021    49 H    0.846
    15   6 C    3.905 --    17 C    1.383    13 C    1.341    16 O    1.014
    16   8 O    2.025 --    15 C    1.014    50 H    0.860
    17   6 C    3.974 --     9 C    1.388    15 C    1.383    51 H    0.970
    18   6 C    3.915 --     8 C    1.329    21 N    1.206    19 C    1.184
    19   6 C    3.959 --    20 C    1.635    18 C    1.184    52 H    0.973
    20   6 C    3.961 --    19 C    1.635    22 C    1.192    53 H    0.973
    21   7 N    3.406 --    22 C    1.239    18 C    1.206     1 Ni   0.661
    22   6 C    3.905 --    23 C    1.264    21 N    1.239    20 C    1.192
    23   6 C    3.943 --    24 C    1.265    22 C    1.264   126 C    1.180
    24   6 C    3.905 --    23 C    1.265    28 N    1.239    25 C    1.191
    25   6 C    3.961 --    26 C    1.637    24 C    1.191    54 H    0.973
    26   6 C    3.959 --    25 C    1.637    27 C    1.183    55 H    0.973
    27   6 C    3.914 --    29 C    1.331    28 N    1.205    26 C    1.183
    28   7 N    3.407 --    24 C    1.239    27 C    1.205     1 Ni   0.661
    29   6 C    3.939 --    27 C    1.331    39 C    1.324    30 C    1.021
    30   6 C    3.989 --    31 C    1.401    38 C    1.389    29 C    1.021
    31   6 C    3.978 --    30 C    1.401    32 C    1.379    56 H    0.970
    32   6 C    3.918 --    31 C    1.379    34 C    1.325    33 O    1.053
    33   8 O    2.048 --    32 C    1.053    57 H    0.847
    34   6 C    3.905 --    36 C    1.341    32 C    1.325    35 O    1.020
    35   8 O    2.021 --    34 C    1.020    58 H    0.846
    36   6 C    3.905 --    38 C    1.383    34 C    1.341    37 O    1.014
    37   8 O    2.025 --    36 C    1.014    59 H    0.861
    38   6 C    3.974 --    30 C    1.389    36 C    1.383    60 H    0.970
    39   6 C    3.919 --    29 C    1.324    43 N    1.221    40 C    1.177
    40   6 C    3.963 --    41 C    1.648    39 C    1.177    61 H    0.973
    41   6 C    3.959 --    40 C    1.648    42 C    1.176    62 H    0.975
    42   6 C    3.924 --     2 C    1.363    43 N    1.214    41 C    1.176
    43   7 N    3.402 --    39 C    1.221    42 C    1.214     1 Ni   0.664
    44   1 H    1.000 --     2 C    0.970
    45   1 H    0.997 --     4 C    0.975
    46   1 H    1.005 --     5 C    0.973
    47   1 H    0.999 --    10 C    0.970
    48   1 H    0.878 --    12 O    0.847
    49   1 H    0.876 --    14 O    0.846
    50   1 H    0.881 --    16 O    0.860
    51   1 H    1.000 --    17 C    0.970
    52   1 H    1.005 --    19 C    0.973
    53   1 H    1.002 --    20 C    0.973
    54   1 H    1.002 --    25 C    0.973
    55   1 H    1.005 --    26 C    0.973
    56   1 H    0.999 --    31 C    0.970
    57   1 H    0.878 --    33 O    0.847
    58   1 H    0.876 --    35 O    0.846
    59   1 H    0.881 --    37 O    0.861
    60   1 H    1.000 --    38 C    0.970
    61   1 H    1.006 --    40 C    0.973
    62   1 H    0.998 --    41 C    0.975
    63  28 Ni   3.006 --    69 N    0.664   105 N    0.664    90 N    0.661
                            83 N    0.661
    64   6 C    3.934 --    65 C    1.364   104 C    1.363   106 H    0.970
    65   6 C    3.924 --    64 C    1.364    69 N    1.214    66 C    1.175
    66   6 C    3.960 --    67 C    1.650    65 C    1.175   107 H    0.975
    67   6 C    3.963 --    66 C    1.650    68 C    1.177   108 H    0.973
    68   6 C    3.919 --    70 C    1.325    69 N    1.221    67 C    1.177
    69   7 N    3.402 --    68 C    1.221    65 C    1.214    63 Ni   0.664
    70   6 C    3.939 --    80 C    1.329    68 C    1.325    71 C    1.023
    71   6 C    3.989 --    72 C    1.400    79 C    1.388    70 C    1.023
    72   6 C    3.978 --    71 C    1.400    73 C    1.379   109 H    0.970
    73   6 C    3.918 --    72 C    1.379    75 C    1.325    74 O    1.053
    74   8 O    2.048 --    73 C    1.053   110 H    0.847
    75   6 C    3.905 --    77 C    1.341    73 C    1.325    76 O    1.021
    76   8 O    2.021 --    75 C    1.021   111 H    0.846
    77   6 C    3.905 --    79 C    1.383    75 C    1.341    78 O    1.014
    78   8 O    2.025 --    77 C    1.014   112 H    0.860
    79   6 C    3.974 --    71 C    1.388    77 C    1.383   113 H    0.970
    80   6 C    3.915 --    70 C    1.329    83 N    1.206    81 C    1.184
    81   6 C    3.959 --    82 C    1.635    80 C    1.184   114 H    0.973
    82   6 C    3.961 --    81 C    1.635    84 C    1.192   115 H    0.973
    83   7 N    3.406 --    84 C    1.239    80 C    1.206    63 Ni   0.661
    84   6 C    3.905 --    85 C    1.264    83 N    1.239    82 C    1.192
    85   6 C    3.943 --    86 C    1.265    84 C    1.264   128 C    1.180
    86   6 C    3.905 --    85 C    1.265    90 N    1.240    87 C    1.191
    87   6 C    3.961 --    88 C    1.637    86 C    1.191   116 H    0.973
    88   6 C    3.959 --    87 C    1.637    89 C    1.183   117 H    0.973
    89   6 C    3.914 --    91 C    1.332    90 N    1.205    88 C    1.183
    90   7 N    3.407 --    86 C    1.240    89 C    1.205    63 Ni   0.661
    91   6 C    3.939 --    89 C    1.332   101 C    1.325    92 C    1.020
    92   6 C    3.989 --    93 C    1.401   100 C    1.389    91 C    1.020
    93   6 C    3.978 --    92 C    1.401    94 C    1.379   118 H    0.970
    94   6 C    3.918 --    93 C    1.379    96 C    1.325    95 O    1.053
    95   8 O    2.049 --    94 C    1.053   119 H    0.847
    96   6 C    3.906 --    98 C    1.342    94 C    1.325    97 O    1.020
    97   8 O    2.021 --    96 C    1.020   120 H    0.846
    98   6 C    3.905 --   100 C    1.383    96 C    1.342    99 O    1.014
    99   8 O    2.025 --    98 C    1.014   121 H    0.861
   100   6 C    3.974 --    92 C    1.389    98 C    1.383   122 H    0.970
   101   6 C    3.919 --    91 C    1.325   105 N    1.221   102 C    1.177
   102   6 C    3.963 --   103 C    1.648   101 C    1.177   123 H    0.973
   103   6 C    3.959 --   102 C    1.648   104 C    1.176   124 H    0.975
   104   6 C    3.924 --    64 C    1.363   105 N    1.214   103 C    1.176
   105   7 N    3.402 --   101 C    1.221   104 C    1.214    63 Ni   0.664
   106   1 H    1.000 --    64 C    0.970
   107   1 H    0.997 --    66 C    0.975
   108   1 H    1.005 --    67 C    0.973
   109   1 H    0.999 --    72 C    0.970
   110   1 H    0.878 --    74 O    0.847
   111   1 H    0.876 --    76 O    0.846
   112   1 H    0.881 --    78 O    0.860
   113   1 H    1.001 --    79 C    0.970
   114   1 H    1.005 --    81 C    0.973
   115   1 H    1.002 --    82 C    0.973
   116   1 H    1.002 --    87 C    0.973
   117   1 H    1.005 --    88 C    0.973
   118   1 H    0.999 --    93 C    0.970
   119   1 H    0.878 --    95 O    0.847
   120   1 H    0.876 --    97 O    0.846
   121   1 H    0.881 --    99 O    0.861
   122   1 H    1.000 --   100 C    0.970
   123   1 H    1.005 --   102 C    0.973
   124   1 H    0.998 --   103 C    0.975
   125   6 C    3.938 --   126 C    2.486   127 C    1.302
   126   6 C    3.927 --   125 C    2.486    23 C    1.180   128 C    0.200
   127   6 C    3.938 --   128 C    2.485   125 C    1.302
   128   6 C    3.927 --   127 C    2.485    85 C    1.180   126 C    0.200
 ---------------------------------------------------------------------------

           -------------------------------------------------
          | TOTAL ENERGY             -254.430245859873 Eh   |
          | GRADIENT NORM               0.000664464294 Eh/α |
          | HOMO-LUMO GAP               1.198824207981 eV   |
           -------------------------------------------------

 * finished run on 2022/07/30 at 06:29:06.724
