   * xtb version 6.5.1 (b24c23e) compiled by 'conda@728c89f4b128' on 2022-07-12
          program call               : xtb NMA_C6_2.xyz --gfn 1 --opt -T 48

   ID    Z sym.   atoms
    1    6 C      1-5, 7-11, 13-18, 20-25, 27-31, 33-39, 68-72, 74-78, 80-85,
                  87-92, 94-98, 100-106, 135-140
    2    7 N      6, 12, 19, 26, 32, 40, 73, 79, 86, 93, 99, 107
    3    1 H      41-67, 108-134
########################################################################
[WARNING] Please study the warnings concerning your input carefully
-1- prog_main_parseArguments: Unknown option '-T' provided
########################################################################

          :  Hamiltonian                  GFN1-xTB          :
 * total energy  :  -221.6574240 Eh     change       -0.4482104E-09 Eh
 * total energy  :  -223.2300121 Eh     change       -0.1572588E+01 Eh
 * total energy  :  -223.4136464 Eh     change       -0.1836343E+00 Eh
 * total energy  :  -223.4899711 Eh     change       -0.7632467E-01 Eh
 * total energy  :  -223.5336145 Eh     change       -0.4364343E-01 Eh
 * total energy  :  -223.5585134 Eh     change       -0.2489887E-01 Eh
 * total energy  :  -223.5765081 Eh     change       -0.1799472E-01 Eh
 * total energy  :  -223.5890319 Eh     change       -0.1252380E-01 Eh
 * total energy  :  -223.5980248 Eh     change       -0.8992889E-02 Eh
 * total energy  :  -223.6049748 Eh     change       -0.6950030E-02 Eh
 * total energy  :  -223.6606281 Eh     change       -0.2607515E-04 Eh
 * total energy  :  -223.6606590 Eh     change       -0.3083159E-04 Eh
 * total energy  :  -223.6606959 Eh     change       -0.3687841E-04 Eh
 * total energy  :  -223.6607384 Eh     change       -0.4249274E-04 Eh
 * total energy  :  -223.6607837 Eh     change       -0.4533301E-04 Eh
 * total energy  :  -223.6607857 Eh     change       -0.2016680E-05 Eh
 * total energy  :  -223.6607897 Eh     change       -0.4018131E-05 Eh
 * total energy  :  -223.6608040 Eh     change       -0.1427063E-04 Eh
 * total energy  :  -223.6608068 Eh     change       -0.2797366E-05 Eh
   *** GEOMETRY OPTIMIZATION CONVERGED AFTER 97 ITERATIONS ***

 final structure:
================
140
 xtb: 6.5.1 (b24c23e)
C           12.92537821821217        0.57402878725506       -0.01236087833717
C           13.52241451072155        0.61935336436679       -1.26581243354659
C           12.85777544984289        0.74503387624020       -2.51743248810555
C           13.80180806499863        0.68010909401834       -3.50395846054112
C           15.07577419623722        0.53043766033633       -2.88612777127449
N           14.85609690716425        0.49849119484804       -1.53774966678512
C           16.32293995080287        0.40612241989231       -3.51092190372497
C           16.33528191835047        0.45584246744580       -4.99169609247472
C           16.82095422132349       -0.62338218826659       -5.73248653509204
C           16.81554831579133       -0.60260799352928       -7.11667269142987
C           16.32169137625372        0.51243442503974       -7.79992642776929
N           16.33804007995735        0.60759951457310       -9.18406200263187
C           16.32863663655495       -0.60733168820877       -9.98825328839151
C           15.85225590407890        1.60566146050553       -7.06156125707760
C           15.85349083492926        1.57288865197227       -5.67967979518582
C           17.53756248828120        0.23993602357021       -2.83988762759317
C           18.82958862700243        0.22503410416662       -3.50122976820256
C           19.75632324656917        0.09797863297762       -2.52853622682936
N           17.70163068144137        0.12410061510914       -1.49291108914174
C           19.02937605716263        0.03283423158875       -1.27603699717736
C           19.67452727507526       -0.10002428701618       -0.02922683993972
C           19.04625068450556       -0.18669930056589        1.22855713162457
C           19.69763757859645       -0.33150451946395        2.48145170871287
C           18.73634376556004       -0.38209505553446        3.45339068341409
C           17.46706429597090       -0.27022423428082        2.82228613338753
N           17.70690703111205       -0.15064625733929        1.47843111266757
C           16.21238967413614       -0.23670060798973        3.44283506761141
C           16.18584399361397       -0.45239438937556        4.90730318884489
C           15.64723535982408        0.50583009819828        5.76829281879303
C           15.61513995362674        0.30163721908030        7.13734682692907
C           16.12479089393236       -0.88012711911445        7.68361493536800
N           16.06240048173298       -1.16512005889437        9.03905479021711
C           15.96552902719867       -0.07850068483078       10.00398544358907
C           16.66018992025141       -1.84743487964506        6.82379391846993
C           16.69522995825182       -1.63182114945908        5.45943565559839
C           15.00129951071692       -0.01628619903643        2.77627457596916
C           13.69787655443875       -0.01705184751257        3.42172649103641
C           12.79139012943133        0.23241732428170        2.45484803589691
C           13.53741740949346        0.36267620345703        1.21622926141707
N           14.86412669871168        0.20612778998603        1.44740611090262
H           11.84531021419828        0.68301585846030       -0.00556417579498
H           11.79142914597054        0.85559584236515       -2.63533174194643
H           13.63292462568030        0.71978394214677       -4.56785682978315
H           15.58553428648210        0.37823196662813       -0.84289743761453
H           17.18898807671629       -1.50208061815580       -5.21391605915737
H           17.19618188665867       -1.45892323738571       -7.65980326923118
H           15.69128913408819        1.30441416655117       -9.53416623362296
H           15.50870790809401       -1.27529696005785       -9.69975621901784
H           16.20788601001049       -0.31871049845109      -11.03239553847874
H           17.27690343751527       -1.13529631904227       -9.87988686489202
H           15.48493219723351        2.48339799571963       -7.58300222603723
H           15.49585427053396        2.43182866584204       -5.12217545809767
H           18.98640473636303        0.32462597525919       -4.56312880056123
H           20.82963838503233        0.05436773980960       -2.62320406607234
H           20.76630058029783       -0.38507528499113        2.61348586038857
H           18.89119307931465       -0.47046343376313        4.51638023713721
H           16.98241961573224       -0.03742229389460        0.77703585051566
H           15.26677848143851        1.43585200551109        5.35980672278927
H           15.19119239457000        1.06691730611082        7.77597112973799
H           16.72595616565642       -1.87601591802767        9.32200366437471
H           14.99191581346635        0.40656780962350        9.92391452291006
H           16.75381709615846        0.66765665500373        9.85198031059975
H           16.06114666357704       -0.50550396353043       11.00235795303825
H           17.04615531282022       -2.77348731102836        7.23703412757736
H           17.10085203850482       -2.39619392164408        4.80538684157775
H           13.52114478599841       -0.20175496812487        4.46908926804867
H           11.71828195004140        0.30844331983917        2.53826090044932
C           35.60120205570270        0.54994496585783       -0.01497267750591
C           35.00423622310245        0.66385975517452        1.23413337930144
C           35.66921423165512        0.85184943459304        2.47773144749486
C           34.72448738458829        0.84510668606636        3.46566809669185
C           33.44991680000474        0.66965621738565        2.85588199107780
N           33.66980307842849        0.56503773973504        1.51125378166202
C           32.20219752699759        0.58380486851368        3.48608719033218
C           32.19068084468871        0.71379178232187        4.96202643773989
C           31.70320938545105       -0.32246947113806        5.76067145301488
C           31.71020794703445       -0.22671404671581        7.14168276554323
C           32.20738732768882        0.92252487643791        7.76303561273666
N           32.19301361305756        1.09239970848602        9.14000886734417
C           32.20114769670636       -0.07727914196767       10.00869547449340
C           32.67848218613982        1.97303441960008        6.96606073621285
C           32.67586218653609        1.86531282661544        5.58799537857715
C           30.98708287735866        0.38466540466196        2.82491355505204
C           29.69512814806308        0.40574888523138        3.48623489593804
C           28.76810834269533        0.22824411333841        2.52169321488630
N           30.82254027038907        0.19803143821613        1.48594076863976
C           29.49468285082741        0.09667971446934        1.27413500492002
C           28.84912731104112       -0.09814541127289        0.03550108033030
C           29.47682479187403       -0.24791137796137       -1.21646323826448
C           28.82439255645854       -0.45149548263877       -2.46057866827602
C           29.78497358267443       -0.54957293926464       -3.42954881022036
C           31.05482967241643       -0.41081083821982       -2.80496686790432
N           30.81611123528676       -0.22691220358815       -1.46817209918203
C           32.30929854869147       -0.41122204325502       -3.42669651727166
C           32.33508287307635       -0.69641573879454       -4.87918842081794
C           32.87966349459491        0.21663829408614       -5.78438699278865
C           32.91284373271268       -0.05336473245166       -7.14196156724543
C           32.39830360877950       -1.25760606282425       -7.63159102778692
N           32.46225196959382       -1.60842480483555       -8.97140266706018
C           32.56800108252813       -0.57077016662833       -9.98788164483985
C           31.85623009295848       -2.17949116097662       -6.72720395952699
C           31.82018205654239       -1.89829827585867       -5.37489284370520
C           33.52155974935737       -0.16512270774582       -2.77137647385933
C           34.82487400564560       -0.20554759692149       -3.41577456995458
C           35.73305420996685        0.08448977491098       -2.46190389379737
C           34.98786919475689        0.28058625597559       -1.23147920392218
N           33.66017535368883        0.12114285999469       -1.45495116702205
H           36.68192895782713        0.65159390138410       -0.02691432433412
H           36.73614543552126        0.96234295526677        2.59024471070848
H           34.89315999490911        0.94046074919708        4.52606488484801
H           32.93997569423421        0.41192388556409        0.82331388603979
H           31.33286044049500       -1.22719770802130        5.29084598393135
H           31.32830095496795       -1.05145915794138        7.73079115703281
H           32.84141892664845        1.80586571332818        9.45119460516006
H           33.01944225922779       -0.76144994697965        9.75578402570397
H           32.32371210377141        0.26703576805116       11.03562195334254
H           31.25179463258585       -0.60849172752062        9.93002521964429
H           33.04832051594985        2.87688580406829        7.43881932906184
H           33.03506174478621        2.69181769881365        4.98440326921112
H           29.53862807643945        0.56146553403264        4.54141101997764
H           27.69478183527931        0.19037776255619        2.61863340559407
H           27.75556056625479       -0.50937632425807       -2.58944652544029
H           29.62920368943010       -0.68758891734816       -4.48713363281815
H           31.54116210433775       -0.08197463393328       -0.77319577446503
H           33.26411875782590        1.16335931688173       -5.42049185156446
H           33.34163736189221        0.67814511659078       -7.81591697323957
H           31.79543307876197       -2.32858890928090       -9.22125225985493
H           33.54429755575109       -0.08810650352035       -9.92886536566144
H           31.78380850492341        0.18650354130444       -9.87467266143159
H           32.47233227776565       -1.04546939631587      -10.96446478694483
H           31.46632125765760       -3.12244937727197       -7.09605481007392
H           31.40992692636732       -2.62835996465781       -4.68552431894803
H           35.00031223690534       -0.44238538823995       -4.45280910960696
H           36.80666678069089        0.14910197242695       -2.54859313311390
C           24.87612923817902       -0.18054518171545        0.01417030211009
C           23.64747326206172       -0.18226278283065       -0.00244072220318
C           22.30336552681138       -0.16832177104327       -0.01270869572592
C           21.07931385418015       -0.14456421546997       -0.02563197446652
C           26.22029499212918       -0.16691984596085        0.02009156459012
C           27.44435218087129       -0.14342200463160        0.03130666437978

          :  Hamiltonian                  GFN1-xTB          :
         :: total energy            -223.660806791928 Eh    ::
         :: gradient norm              0.000799173606 Eh/a0 ::
         :: HOMO-LUMO gap              0.968628954729 eV    ::
         :: SCC energy              -227.335173738557 Eh    ::
         :: repulsion energy           3.786033888736 Eh    ::

    * Orbital Energies and Occupations

         #    Occupation            Energy/Eh            Energy/eV
      -------------------------------------------------------------
         1        2.0000           -0.7944526             -21.6182
       ...           ...                  ...                  ...
       193        2.0000           -0.4069979             -11.0750
       194        2.0000           -0.4064001             -11.0587
       195        2.0000           -0.4059867             -11.0475
       196        2.0000           -0.4057058             -11.0398
       197        2.0000           -0.4041068             -10.9963
       198        2.0000           -0.3934532             -10.7064
       199        2.0000           -0.3926633             -10.6849
       200        2.0000           -0.3902727             -10.6199
       201        2.0000           -0.3902364             -10.6189
       202        2.0000           -0.3892807             -10.5929
       203        2.0000           -0.3883189             -10.5667
       204        2.0000           -0.3750858             -10.2066
       205        2.0000           -0.3671635              -9.9910 (HOMO)
       206                         -0.3315671              -9.0224 (LUMO)
       207                         -0.3213094              -8.7433
       208                         -0.3206443              -8.7252
       209                         -0.3200693              -8.7095
       210                         -0.2914689              -7.9313
       211                         -0.2843551              -7.7377
       212                         -0.2752257              -7.4893
       213                         -0.2552133              -6.9447
       214                         -0.2551504              -6.9430
       215                         -0.2551376              -6.9426
       216                         -0.2550819              -6.9411
       ...                                ...                  ...
       452                          1.5867484              43.1776
      -------------------------------------------------------------
                  HL-Gap            0.0355965 Eh            0.9686 eV

Wiberg/Mayer (AO) data.
largest (>0.10) Wiberg bond orders for each atom

     #   Z sym  total        # sym  WBO       # sym  WBO       # sym  WBO
 ---------------------------------------------------------------------------
     1   6 C    3.922 --    39 C    1.365     2 C    1.345    41 H    0.971
     2   6 C    3.903 --     1 C    1.345     3 C    1.232     6 N    1.169
     3   6 C    3.953 --     4 C    1.591     2 C    1.232    42 H    0.977
     4   6 C    3.959 --     3 C    1.591     5 C    1.238    43 H    0.974
     5   6 C    3.894 --     7 C    1.299     4 C    1.238     6 N    1.176
     6   7 N    3.468 --     5 C    1.176     2 C    1.169    44 H    0.873
     7   6 C    3.939 --    16 C    1.333     5 C    1.299     8 C    1.035
     8   6 C    3.988 --     9 C    1.384    15 C    1.375     7 C    1.035
     9   6 C    3.988 --    10 C    1.465     8 C    1.384    45 H    0.973
    10   6 C    3.990 --     9 C    1.465    11 C    1.354    46 H    0.970
    11   6 C    3.952 --    10 C    1.354    14 C    1.346    12 N    1.108
    12   7 N    3.178 --    11 C    1.108    13 C    0.971    47 H    0.931
    13   6 C    3.968 --    49 H    0.990    50 H    0.986    48 H    0.984
                            12 N    0.971
    14   6 C    3.989 --    15 C    1.475    11 C    1.346    51 H    0.971
    15   6 C    3.987 --    14 C    1.475     8 C    1.375    52 H    0.973
    16   6 C    3.913 --     7 C    1.333    19 N    1.286    17 C    1.127
    17   6 C    3.966 --    18 C    1.707    16 C    1.127    53 H    0.974
    18   6 C    3.963 --    17 C    1.707    20 C    1.130    54 H    0.974
    19   7 N    3.021 --    20 C    1.344    16 C    1.286
    20   6 C    3.909 --    19 N    1.344    21 C    1.253    18 C    1.130
    21   6 C    3.934 --    20 C    1.253    22 C    1.249   138 C    1.193
    22   6 C    3.886 --    23 C    1.252    21 C    1.249    26 N    1.190
    23   6 C    3.958 --    24 C    1.579    22 C    1.252    55 H    0.975
    24   6 C    3.955 --    23 C    1.579    25 C    1.244    56 H    0.974
    25   6 C    3.897 --    27 C    1.305    24 C    1.244    26 N    1.165
    26   7 N    3.473 --    22 C    1.190    25 C    1.165    57 H    0.873
    27   6 C    3.925 --    36 C    1.318    25 C    1.305    28 C    1.038
    28   6 C    3.987 --    29 C    1.383    35 C    1.372    27 C    1.038
    29   6 C    3.987 --    30 C    1.465    28 C    1.383    58 H    0.972
    30   6 C    3.989 --    29 C    1.465    31 C    1.353    59 H    0.970
    31   6 C    3.951 --    30 C    1.353    34 C    1.344    32 N    1.111
    32   7 N    3.181 --    31 C    1.111    33 C    0.971    60 H    0.931
    33   6 C    3.968 --    63 H    0.990    61 H    0.986    62 H    0.984
                            32 N    0.971
    34   6 C    3.989 --    35 C    1.478    31 C    1.344    64 H    0.971
    35   6 C    3.986 --    34 C    1.478    28 C    1.372    65 H    0.973
    36   6 C    3.927 --    40 N    1.318    27 C    1.318    37 C    1.120
    37   6 C    3.967 --    38 C    1.719    36 C    1.120    66 H    0.973
    38   6 C    3.966 --    37 C    1.719    39 C    1.119    67 H    0.976
    39   6 C    3.930 --     1 C    1.365    40 N    1.299    38 C    1.119
    40   7 N    3.010 --    36 C    1.318    39 C    1.299
    41   1 H    1.002 --     1 C    0.971
    42   1 H    0.998 --     3 C    0.977
    43   1 H    1.006 --     4 C    0.974
    44   1 H    0.986 --     6 N    0.873
    45   1 H    1.005 --     9 C    0.973
    46   1 H    1.001 --    10 C    0.970
    47   1 H    0.966 --    12 N    0.931
    48   1 H    1.003 --    13 C    0.984
    49   1 H    1.007 --    13 C    0.990
    50   1 H    1.012 --    13 C    0.986
    51   1 H    0.999 --    14 C    0.971
    52   1 H    1.005 --    15 C    0.973
    53   1 H    1.005 --    17 C    0.974
    54   1 H    1.003 --    18 C    0.974
    55   1 H    1.002 --    23 C    0.975
    56   1 H    1.005 --    24 C    0.974
    57   1 H    0.988 --    26 N    0.873
    58   1 H    1.006 --    29 C    0.972
    59   1 H    1.001 --    30 C    0.970
    60   1 H    0.965 --    32 N    0.931
    61   1 H    1.012 --    33 C    0.986
    62   1 H    1.003 --    33 C    0.984
    63   1 H    1.007 --    33 C    0.990
    64   1 H    0.999 --    34 C    0.971
    65   1 H    1.005 --    35 C    0.973
    66   1 H    1.006 --    37 C    0.973
    67   1 H    0.999 --    38 C    0.976
    68   6 C    3.922 --   106 C    1.365    69 C    1.345   108 H    0.971
    69   6 C    3.903 --    68 C    1.345    70 C    1.232    73 N    1.169
    70   6 C    3.953 --    71 C    1.591    69 C    1.232   109 H    0.977
    71   6 C    3.959 --    70 C    1.591    72 C    1.238   110 H    0.974
    72   6 C    3.894 --    74 C    1.299    71 C    1.238    73 N    1.176
    73   7 N    3.468 --    72 C    1.176    69 C    1.169   111 H    0.873
    74   6 C    3.939 --    83 C    1.334    72 C    1.299    75 C    1.035
    75   6 C    3.988 --    76 C    1.384    82 C    1.375    74 C    1.035
    76   6 C    3.988 --    77 C    1.465    75 C    1.384   112 H    0.973
    77   6 C    3.990 --    76 C    1.465    78 C    1.354   113 H    0.970
    78   6 C    3.952 --    77 C    1.354    81 C    1.346    79 N    1.108
    79   7 N    3.178 --    78 C    1.108    80 C    0.971   114 H    0.931
    80   6 C    3.968 --   116 H    0.990   117 H    0.986   115 H    0.984
                            79 N    0.971
    81   6 C    3.989 --    82 C    1.475    78 C    1.346   118 H    0.971
    82   6 C    3.987 --    81 C    1.475    75 C    1.375   119 H    0.973
    83   6 C    3.913 --    74 C    1.334    86 N    1.286    84 C    1.127
    84   6 C    3.966 --    85 C    1.707    83 C    1.127   120 H    0.974
    85   6 C    3.963 --    84 C    1.707    87 C    1.130   121 H    0.974
    86   7 N    3.021 --    87 C    1.344    83 C    1.286
    87   6 C    3.909 --    86 N    1.344    88 C    1.253    85 C    1.130
    88   6 C    3.934 --    87 C    1.253    89 C    1.249   140 C    1.193
    89   6 C    3.886 --    90 C    1.252    88 C    1.249    93 N    1.190
    90   6 C    3.958 --    91 C    1.579    89 C    1.252   122 H    0.975
    91   6 C    3.955 --    90 C    1.579    92 C    1.244   123 H    0.974
    92   6 C    3.897 --    94 C    1.305    91 C    1.244    93 N    1.165
    93   7 N    3.473 --    89 C    1.190    92 C    1.165   124 H    0.873
    94   6 C    3.925 --   103 C    1.318    92 C    1.305    95 C    1.038
    95   6 C    3.987 --    96 C    1.383   102 C    1.372    94 C    1.038
    96   6 C    3.987 --    97 C    1.465    95 C    1.383   125 H    0.972
    97   6 C    3.989 --    96 C    1.465    98 C    1.352   126 H    0.970
    98   6 C    3.951 --    97 C    1.352   101 C    1.344    99 N    1.111
    99   7 N    3.181 --    98 C    1.111   100 C    0.971   127 H    0.931
   100   6 C    3.968 --   130 H    0.990   128 H    0.986   129 H    0.984
                            99 N    0.971
   101   6 C    3.989 --   102 C    1.478    98 C    1.344   131 H    0.971
   102   6 C    3.986 --   101 C    1.478    95 C    1.372   132 H    0.973
   103   6 C    3.927 --   107 N    1.318    94 C    1.318   104 C    1.120
   104   6 C    3.967 --   105 C    1.719   103 C    1.120   133 H    0.973
   105   6 C    3.966 --   104 C    1.719   106 C    1.119   134 H    0.976
   106   6 C    3.930 --    68 C    1.365   107 N    1.299   105 C    1.119
   107   7 N    3.010 --   103 C    1.318   106 C    1.299
   108   1 H    1.002 --    68 C    0.971
   109   1 H    0.998 --    70 C    0.977
   110   1 H    1.006 --    71 C    0.974
   111   1 H    0.986 --    73 N    0.873
   112   1 H    1.005 --    76 C    0.973
   113   1 H    1.001 --    77 C    0.970
   114   1 H    0.966 --    79 N    0.931
   115   1 H    1.003 --    80 C    0.984
   116   1 H    1.007 --    80 C    0.990
   117   1 H    1.012 --    80 C    0.986
   118   1 H    0.999 --    81 C    0.971
   119   1 H    1.005 --    82 C    0.973
   120   1 H    1.005 --    84 C    0.974
   121   1 H    1.003 --    85 C    0.974
   122   1 H    1.002 --    90 C    0.975
   123   1 H    1.005 --    91 C    0.974
   124   1 H    0.988 --    93 N    0.873
   125   1 H    1.006 --    96 C    0.972
   126   1 H    1.001 --    97 C    0.970
   127   1 H    0.965 --    99 N    0.931
   128   1 H    1.012 --   100 C    0.986
   129   1 H    1.003 --   100 C    0.984
   130   1 H    1.007 --   100 C    0.990
   131   1 H    0.999 --   101 C    0.971
   132   1 H    1.005 --   102 C    0.973
   133   1 H    1.006 --   104 C    0.973
   134   1 H    0.999 --   105 C    0.976
   135   6 C    3.925 --   136 C    2.365   139 C    1.337   138 C    0.190
   136   6 C    3.925 --   135 C    2.365   137 C    1.337   140 C    0.190
   137   6 C    3.931 --   138 C    2.445   136 C    1.337
   138   6 C    3.890 --   137 C    2.445    21 C    1.193   135 C    0.190
   139   6 C    3.931 --   140 C    2.445   135 C    1.337
   140   6 C    3.890 --   139 C    2.445    88 C    1.193   136 C    0.190
 ---------------------------------------------------------------------------

           -------------------------------------------------
          | TOTAL ENERGY             -223.660806791928 Eh   |
          | GRADIENT NORM               0.000799173606 Eh/α |
          | HOMO-LUMO GAP               0.968628954729 eV   |
           -------------------------------------------------

 * finished run on 2022/07/31 at 04:46:18.092
