   * xtb version 6.5.1 (b24c23e) compiled by 'conda@728c89f4b128' on 2022-07-12
          program call               : xtb Fe_NMA_C4_2.xyz --gfn 1 --opt -T 48

   ID    Z sym.   atoms
    1   26 Fe     1, 67
    2    6 C      2-6, 8-12, 14-19, 21-26, 28-32, 34-40, 68-72, 74-78, 80-85,
                  87-92, 94-98, 100-106, 133-136
    3    7 N      7, 13, 20, 27, 33, 41, 73, 79, 86, 93, 99, 107
    4    1 H      42-66, 108-132
########################################################################
[WARNING] Please study the warnings concerning your input carefully
-1- prog_main_parseArguments: Unknown option '-T' provided
########################################################################

          :  Hamiltonian                  GFN1-xTB          :
 * total energy  :  -208.1232720 Eh     change       -0.5340723E-09 Eh
 * total energy  :  -219.9072238 Eh     change       -0.1178395E+02 Eh
 * total energy  :  -221.2383289 Eh     change       -0.1331105E+01 Eh
 * total energy  :  -221.9142288 Eh     change       -0.6758999E+00 Eh
 * total energy  :  -222.2967234 Eh     change       -0.3824946E+00 Eh
 * total energy  :  -222.4858567 Eh     change       -0.1891333E+00 Eh
 * total energy  :  -222.6056978 Eh     change       -0.1198411E+00 Eh
 * total energy  :  -222.6914999 Eh     change       -0.8580203E-01 Eh
 * total energy  :  -222.7546563 Eh     change       -0.6315646E-01 Eh
 * total energy  :  -222.8270729 Eh     change       -0.7241654E-01 Eh
 * total energy  :  -223.4119104 Eh     change       -0.2068584E-04 Eh
 * total energy  :  -223.4119254 Eh     change       -0.1507786E-04 Eh
 * total energy  :  -223.4119365 Eh     change       -0.1103589E-04 Eh
 * total energy  :  -223.4119439 Eh     change       -0.7460984E-05 Eh
 * total energy  :  -223.4119495 Eh     change       -0.5598926E-05 Eh
 * total energy  :  -223.4119548 Eh     change       -0.5302459E-05 Eh
 * total energy  :  -223.4119610 Eh     change       -0.6161689E-05 Eh
 * total energy  :  -223.4119692 Eh     change       -0.8227825E-05 Eh
 * total energy  :  -223.4119726 Eh     change       -0.3347805E-05 Eh
   *** GEOMETRY OPTIMIZATION CONVERGED AFTER 68 ITERATIONS ***

 final structure:
================
136
 xtb: 6.5.1 (b24c23e)
Fe          17.62544509543972        0.06565919138902       -0.02318419993225
C           14.24732093273165        0.14347564691226       -0.10886020373652
C           14.88518660483314        0.90006560878663        0.85361386323013
C           14.20246298549148        1.68936849127869        1.83302838630989
C           15.15302130986577        2.38658272049018        2.50080463027555
C           16.41431345202755        2.03528516578072        1.91520016630688
N           16.24063031645192        1.08012074641075        0.95071626105288
C           17.62448034637051        2.64760447700571        2.23384042045850
C           17.62440347115146        3.77589658965401        3.18784577975075
C           16.84296798863729        4.91181074470817        2.95303089754547
C           16.85251338075626        5.97224487152001        3.83814382620846
C           17.63564996124347        5.92425567350739        4.99885608214940
N           17.65031668970133        7.03187191759391        5.82999494631833
C           18.05638281181878        6.89441534080274        7.22145811409588
C           18.42064732217016        4.79189126351670        5.23798865079900
C           18.41283239827686        3.73863097961091        4.34036011982762
C           18.83229249991593        2.24544628211263        1.67497216487912
C           20.08546186343220        2.90028070183131        1.90466933377806
C           21.03654297160950        2.15223918384513        1.29286478536879
N           19.01495071948810        1.13682631384473        0.88449794117718
C           20.36077206329828        1.05080889822198        0.68388312290235
C           21.02367206066891       -0.01493930467138        0.06221453583836
C           20.34597969580400       -1.06845026866886       -0.56492719457972
C           21.00410540857315       -2.20341236688397       -1.13026670375919
C           20.04708930625271       -2.93881234080652       -1.74780304230539
C           18.81004202082104       -2.23719090085490       -1.57453841254775
N           19.00325436197206       -1.12299203964382       -0.79302958126260
C           17.61521189662643       -2.59412352916795       -2.18815832943426
C           17.61037983507699       -3.73510107114369       -3.12693993358445
C           18.46101200403860       -3.75518718765395       -4.23474042240876
C           18.46382251773845       -4.82123937500130       -5.11719857656217
C           17.60934107766512       -5.90812600001339       -4.90790598877456
N           17.61237114725241       -7.02805124532551       -5.72333465264335
C           18.09817194786589       -6.92953086194889       -7.09259476150721
C           16.76144683564380       -5.89796424944391       -3.79271601093441
C           16.75807510812722       -4.82498204932713       -2.92276725316098
C           16.42347962272581       -1.91047909331967       -1.95499799298580
C           15.18667235435646       -2.19131056711576       -2.62432858849918
C           14.23903683197644       -1.42040686538994       -2.03798579063352
C           14.90031754147585       -0.66090883154946       -1.02104211689889
N           16.24300857427490       -0.93699330766089       -1.01131863131036
H           13.16428263947868        0.17992572959030       -0.14764647997438
H           13.13357868207183        1.69655713167084        1.97722970522404
H           15.02261129618854        3.07479020231497        3.32026712350431
H           16.24278119928681        4.97026915729610        2.05162775891525
H           16.25285761381123        6.85353322078877        3.63602017603593
H           16.83669797714216        7.62388430369581        5.71727536642924
H           19.11953308941817        6.65744925747315        7.27895769226637
H           17.48430999932597        6.11194714303869        7.73306185041175
H           17.88466822027283        7.84929365248735        7.71824565526370
H           19.04049584212536        4.72719738072191        6.12376676737585
H           19.01186851312790        2.85842464372789        4.54718351241188
H           20.21253377338287        3.81932231830947        2.45324640818766
H           22.10088378125578        2.31924801437160        1.25029458017924
H           22.06115628645461       -2.40157956249409       -1.05373497935967
H           20.16068069013751       -3.87477207884142       -2.27002618694806
H           19.11435815723527       -2.90944893608015       -4.41978159463652
H           19.13394747740924       -4.80171909407764       -5.96782000305567
H           16.76197883068329       -7.57292777201912       -5.65007381659506
H           17.59806094085967       -6.12285449574621       -7.64066868954814
H           17.90013579818243       -7.87935398183277       -7.58927837861661
H           19.17438033418564       -6.75201623600315       -7.09543127863027
H           16.10594015624723       -6.74383028668139       -3.61407106242430
H           16.10551640055708       -4.83761638898832       -2.05665437972731
H           15.07052116288926       -2.88477813540321       -3.44155655177283
H           13.18552569584002       -1.35913089953674       -2.26099123766701
Fe          31.01631381702772        0.00934449661213       -0.06946425505535
C           34.39435039129143        0.07504217390775       -0.16451867710482
C           33.75606588637527       -1.02924578468981       -0.69254833214920
C           34.43848415526216       -2.15741392746871       -1.24925558459392
C           33.48764874195792       -2.96127229001129       -1.78338464419387
C           32.22649234994542       -2.31300199801697       -1.56790797446035
N           32.40054329146145       -1.16322259025926       -0.84641986489372
C           31.01619034209423       -2.75753668442782       -2.09558849697252
C           31.01594391323311       -3.93494370558840       -2.98831242213683
C           31.79649771026839       -3.95348410257500       -4.14868328969845
C           31.78653100049404       -5.04866123014431       -4.99040691015791
C           31.00389284191472       -6.17112532914137       -4.68966170302888
N           30.98858849805753       -7.22370717866363       -5.58936034952509
C           30.58223406857692       -8.55171352178475       -5.15218058779329
C           30.21997272548351       -6.15766564766294       -3.53165734121243
C           30.22810098472514       -5.05176666823777       -2.69972778563765
C           29.80856089481757       -2.12391595877889       -1.82534663119935
C           28.55533855760103       -2.49051763827275       -2.41441672531328
C           27.60454453179386       -1.72943952540847       -1.81842105612517
N           29.62627253341937       -1.11027942674080       -0.91624434737703
C           28.28057150542653       -0.89492612719041       -0.87648807162051
C           27.61807898830474       -0.05547506354916        0.02802341448808
C           28.29617822760460        0.78603914009125        0.91938686094342
C           27.63828625643202        1.58528413741674        1.90390239574198
C           28.59561473706423        2.34745045390136        2.48755636178866
C           29.83261634522745        2.02499403835478        1.84068089036534
N           29.63904707614341        1.01973596889554        0.92331166938968
C           31.02764745591393        2.70130571187694        2.05537119216432
C           31.03273771655510        3.86626702425544        2.96415860113631
C           30.18139987394385        4.95135504552971        2.74266482503641
C           30.17879753367159        6.04524250433496        3.59033581528089
C           31.03432771320328        6.07876672885639        4.69586554224844
N           31.03175105836104        7.11932233745838        5.61049626195768
C           30.54621184810757        8.43395041227350        5.21466538991565
C           31.88282627160927        4.98860855734236        4.92876894960151
C           31.88591719225279        3.90533970201562        4.07163746745714
C           32.21916922658689        2.32471162846705        1.43854442514081
C           33.45604751158456        3.03915597253438        1.56606468023492
C           34.40334818288083        2.29887432755895        0.94098220320114
C           33.74179261672771        1.14082172658521        0.42181288791068
N           32.39923958791811        1.19151759081118        0.69412751670964
H           35.47737171413485        0.10473947696814       -0.20910284917651
H           35.50737250739063       -2.29973790831916       -1.22526450804519
H           33.61775135378605       -3.91122617971526       -2.27614563510414
H           32.39628708521127       -3.08641682905748       -4.40287661546154
H           32.38541358100252       -5.04357327569604       -5.89507352536560
H           31.80137357592693       -7.24265931035894       -6.19279492167073
H           29.51911067590345       -8.55598624810434       -4.90824059052969
H           31.15430699111683       -8.88088683111168       -4.27717766143203
H           30.75366574673952       -9.24452916256863       -5.97600630998101
H           29.60070556367193       -7.00823241619636       -3.27465082792532
H           29.62976364669737       -5.06161903721471       -1.79513707661289
H           28.42807443291312       -3.22668748148605       -3.19132486244959
H           26.54026006657596       -1.72371547189235       -1.99104304789229
H           26.58114568308737        1.55444049259992        2.11361695996780
H           28.48222447309547        3.06080831462782        3.28749147821757
H           29.52735838904094        4.94702668592439        1.87746051749528
H           29.50801335539079        6.87069482902286        3.38619584329532
H           31.88271788618020        7.16708587937466        6.15733960954570
H           31.04646478005877        8.79204495554206        4.30761773006469
H           30.74430556995660        9.12645024708080        6.03275192197572
H           29.47002117419017        8.39806651786175        5.04075930977811
H           32.53910493012939        4.99925250647831        5.79264406348689
H           32.53901778233847        3.06317866867866        4.27256561450677
H           33.57247578015094        3.98792263337950        2.06459996931645
H           35.45679265213344        2.50319526174645        0.83197250999081
C           23.64775910454340       -0.04220928749072        0.06469534004693
C           22.42403106030143       -0.02995696894998        0.06825739816620
C           24.99400690837487       -0.05175412301115        0.05554471749807
C           26.21773347786483       -0.05833585895087        0.04480454996534

          :  Hamiltonian                  GFN1-xTB          :
         :: total energy            -223.411972564555 Eh    ::
         :: gradient norm              0.000493382739 Eh/a0 ::
         :: HOMO-LUMO gap              0.082016465007 eV    ::
         :: SCC energy              -226.918135122498 Eh    ::
         :: repulsion energy           3.622772931033 Eh    ::

    * Orbital Energies and Occupations

         #    Occupation            Energy/Eh            Energy/eV
      -------------------------------------------------------------
         1        2.0000           -0.7799354             -21.2231
       ...           ...                  ...                  ...
       195        2.0000           -0.3934757             -10.7070
       196        2.0000           -0.3911438             -10.6436
       197        2.0000           -0.3911354             -10.6433
       198        2.0000           -0.3860170             -10.5041
       199        2.0000           -0.3860043             -10.5037
       200        2.0000           -0.3810310             -10.3684
       201        1.9925           -0.3760529             -10.2329
       202        1.9922           -0.3760187             -10.2320
       203        1.9606           -0.3744608             -10.1896
       204        1.9594           -0.3744314             -10.1888
       205        1.9547           -0.3743252             -10.1859
       206        1.9546           -0.3743237             -10.1859
       207        1.6322           -0.3721648             -10.1271 (HOMO)
       208        0.3136           -0.3691507             -10.0451 (LUMO)
       209        0.2402           -0.3688572             -10.0371
       210                         -0.3284302              -8.9370
       211                         -0.3163981              -8.6096
       212                         -0.3163841              -8.6092
       213                         -0.3142973              -8.5525
       214                         -0.2886625              -7.8549
       215                         -0.2871282              -7.8132
       216                         -0.2869770              -7.8090
       217                         -0.2810493              -7.6477
       218                         -0.2560598              -6.9677
       ...                                ...                  ...
       454                          1.5222049              41.4213
      -------------------------------------------------------------
                  HL-Gap            0.0030140 Eh            0.0820 eV

Wiberg/Mayer (AO) data.
largest (>0.10) Wiberg bond orders for each atom

     #   Z sym  total        # sym  WBO       # sym  WBO       # sym  WBO
 ---------------------------------------------------------------------------
     1  26 Fe   3.154 --     7 N    0.669    41 N    0.662    27 N    0.662
                            20 N    0.655
     2   6 C    3.921 --     3 C    1.362    40 C    1.362    42 H    0.970
     3   6 C    3.927 --     2 C    1.362     7 N    1.207     4 C    1.176
     4   6 C    3.958 --     5 C    1.644     3 C    1.176    43 H    0.975
     5   6 C    3.962 --     4 C    1.644     6 C    1.178    44 H    0.973
     6   6 C    3.920 --     8 C    1.306     7 N    1.227     5 C    1.178
     7   7 N    3.377 --     6 C    1.227     3 C    1.207     1 Fe   0.669
     8   6 C    3.923 --    17 C    1.325     6 C    1.306     9 C    1.043
     9   6 C    3.984 --    16 C    1.379    10 C    1.369     8 C    1.043
    10   6 C    3.986 --    11 C    1.480     9 C    1.369    45 H    0.972
    11   6 C    3.987 --    10 C    1.480    12 C    1.341    46 H    0.971
    12   6 C    3.948 --    15 C    1.349    11 C    1.341    13 N    1.114
    13   7 N    3.181 --    12 C    1.114    14 C    0.971    47 H    0.930
    14   6 C    3.967 --    50 H    0.990    48 H    0.986    49 H    0.983
                            13 N    0.971
    15   6 C    3.987 --    16 C    1.468    12 C    1.349    51 H    0.970
    16   6 C    3.984 --    15 C    1.468     9 C    1.379    52 H    0.972
    17   6 C    3.917 --     8 C    1.325    20 N    1.204    18 C    1.183
    18   6 C    3.958 --    19 C    1.632    17 C    1.183    53 H    0.973
    19   6 C    3.960 --    18 C    1.632    21 C    1.192    54 H    0.974
    20   7 N    3.374 --    21 C    1.243    17 C    1.204     1 Fe   0.655
    21   6 C    3.906 --    22 C    1.250    20 N    1.243    19 C    1.192
    22   6 C    3.919 --    21 C    1.250    23 C    1.248   134 C    1.204
    23   6 C    3.906 --    22 C    1.248    27 N    1.245    24 C    1.192
    24   6 C    3.958 --    25 C    1.633    23 C    1.192    55 H    0.974
    25   6 C    3.958 --    24 C    1.633    26 C    1.182    56 H    0.973
    26   6 C    3.917 --    28 C    1.327    27 N    1.201    25 C    1.182
    27   7 N    3.377 --    23 C    1.245    26 C    1.201     1 Fe   0.662
    28   6 C    3.923 --    26 C    1.327    37 C    1.304    29 C    1.043
    29   6 C    3.984 --    30 C    1.379    36 C    1.369    28 C    1.043
    30   6 C    3.984 --    31 C    1.468    29 C    1.379    57 H    0.972
    31   6 C    3.987 --    30 C    1.468    32 C    1.350    58 H    0.970
    32   6 C    3.949 --    31 C    1.350    35 C    1.341    33 N    1.114
    33   7 N    3.180 --    32 C    1.114    34 C    0.971    59 H    0.930
    34   6 C    3.967 --    61 H    0.990    62 H    0.986    60 H    0.983
                            33 N    0.971
    35   6 C    3.987 --    36 C    1.480    32 C    1.341    63 H    0.971
    36   6 C    3.984 --    35 C    1.480    29 C    1.369    64 H    0.972
    37   6 C    3.920 --    28 C    1.304    41 N    1.229    38 C    1.179
    38   6 C    3.962 --    39 C    1.644    37 C    1.179    65 H    0.973
    39   6 C    3.958 --    38 C    1.644    40 C    1.177    66 H    0.975
    40   6 C    3.927 --     2 C    1.362    41 N    1.207    39 C    1.177
    41   7 N    3.373 --    37 C    1.229    40 C    1.207     1 Fe   0.662
    42   1 H    1.001 --     2 C    0.970
    43   1 H    0.998 --     4 C    0.975
    44   1 H    1.005 --     5 C    0.973
    45   1 H    1.005 --    10 C    0.972
    46   1 H    0.999 --    11 C    0.971
    47   1 H    0.965 --    13 N    0.930
    48   1 H    1.011 --    14 C    0.986
    49   1 H    1.003 --    14 C    0.983
    50   1 H    1.007 --    14 C    0.990
    51   1 H    1.001 --    15 C    0.970
    52   1 H    1.006 --    16 C    0.972
    53   1 H    1.005 --    18 C    0.973
    54   1 H    1.002 --    19 C    0.974
    55   1 H    1.002 --    24 C    0.974
    56   1 H    1.005 --    25 C    0.973
    57   1 H    1.006 --    30 C    0.972
    58   1 H    1.001 --    31 C    0.970
    59   1 H    0.965 --    33 N    0.930
    60   1 H    1.003 --    34 C    0.983
    61   1 H    1.007 --    34 C    0.990
    62   1 H    1.011 --    34 C    0.986
    63   1 H    0.999 --    35 C    0.971
    64   1 H    1.005 --    36 C    0.972
    65   1 H    1.005 --    38 C    0.973
    66   1 H    0.998 --    39 C    0.975
    67  26 Fe   3.156 --    73 N    0.670    93 N    0.662   107 N    0.662
                            86 N    0.655
    68   6 C    3.921 --    69 C    1.362   106 C    1.362   108 H    0.970
    69   6 C    3.927 --    68 C    1.362    73 N    1.207    70 C    1.176
    70   6 C    3.958 --    71 C    1.644    69 C    1.176   109 H    0.975
    71   6 C    3.962 --    70 C    1.644    72 C    1.178   110 H    0.973
    72   6 C    3.920 --    74 C    1.306    73 N    1.227    71 C    1.178
    73   7 N    3.377 --    72 C    1.227    69 C    1.207    67 Fe   0.670
    74   6 C    3.923 --    83 C    1.325    72 C    1.306    75 C    1.043
    75   6 C    3.984 --    82 C    1.379    76 C    1.369    74 C    1.043
    76   6 C    3.986 --    77 C    1.480    75 C    1.369   111 H    0.972
    77   6 C    3.987 --    76 C    1.480    78 C    1.341   112 H    0.971
    78   6 C    3.948 --    81 C    1.349    77 C    1.341    79 N    1.114
    79   7 N    3.181 --    78 C    1.114    80 C    0.971   113 H    0.930
    80   6 C    3.967 --   116 H    0.990   114 H    0.986   115 H    0.983
                            79 N    0.971
    81   6 C    3.987 --    82 C    1.468    78 C    1.349   117 H    0.970
    82   6 C    3.984 --    81 C    1.468    75 C    1.379   118 H    0.972
    83   6 C    3.917 --    74 C    1.325    86 N    1.204    84 C    1.183
    84   6 C    3.958 --    85 C    1.632    83 C    1.183   119 H    0.973
    85   6 C    3.960 --    84 C    1.632    87 C    1.192   120 H    0.974
    86   7 N    3.374 --    87 C    1.243    83 C    1.204    67 Fe   0.655
    87   6 C    3.906 --    88 C    1.250    86 N    1.243    85 C    1.192
    88   6 C    3.919 --    87 C    1.250    89 C    1.248   136 C    1.204
    89   6 C    3.906 --    88 C    1.248    93 N    1.245    90 C    1.192
    90   6 C    3.958 --    91 C    1.633    89 C    1.192   121 H    0.974
    91   6 C    3.958 --    90 C    1.633    92 C    1.182   122 H    0.973
    92   6 C    3.917 --    94 C    1.327    93 N    1.201    91 C    1.182
    93   7 N    3.377 --    89 C    1.245    92 C    1.201    67 Fe   0.662
    94   6 C    3.923 --    92 C    1.327   103 C    1.304    95 C    1.043
    95   6 C    3.984 --    96 C    1.379   102 C    1.369    94 C    1.043
    96   6 C    3.984 --    97 C    1.468    95 C    1.379   123 H    0.972
    97   6 C    3.987 --    96 C    1.468    98 C    1.350   124 H    0.970
    98   6 C    3.949 --    97 C    1.350   101 C    1.341    99 N    1.114
    99   7 N    3.180 --    98 C    1.114   100 C    0.971   125 H    0.930
   100   6 C    3.967 --   127 H    0.990   128 H    0.986   126 H    0.983
                            99 N    0.971
   101   6 C    3.987 --   102 C    1.480    98 C    1.341   129 H    0.971
   102   6 C    3.984 --   101 C    1.480    95 C    1.369   130 H    0.972
   103   6 C    3.920 --    94 C    1.304   107 N    1.229   104 C    1.179
   104   6 C    3.962 --   105 C    1.644   103 C    1.179   131 H    0.973
   105   6 C    3.958 --   104 C    1.644   106 C    1.177   132 H    0.975
   106   6 C    3.927 --    68 C    1.362   107 N    1.207   105 C    1.177
   107   7 N    3.373 --   103 C    1.229   106 C    1.207    67 Fe   0.662
   108   1 H    1.001 --    68 C    0.970
   109   1 H    0.998 --    70 C    0.975
   110   1 H    1.005 --    71 C    0.973
   111   1 H    1.005 --    76 C    0.972
   112   1 H    0.999 --    77 C    0.971
   113   1 H    0.965 --    79 N    0.930
   114   1 H    1.011 --    80 C    0.986
   115   1 H    1.003 --    80 C    0.983
   116   1 H    1.007 --    80 C    0.990
   117   1 H    1.001 --    81 C    0.970
   118   1 H    1.006 --    82 C    0.972
   119   1 H    1.005 --    84 C    0.973
   120   1 H    1.002 --    85 C    0.974
   121   1 H    1.002 --    90 C    0.974
   122   1 H    1.005 --    91 C    0.973
   123   1 H    1.006 --    96 C    0.972
   124   1 H    1.001 --    97 C    0.970
   125   1 H    0.965 --    99 N    0.930
   126   1 H    1.003 --   100 C    0.983
   127   1 H    1.007 --   100 C    0.990
   128   1 H    1.011 --   100 C    0.986
   129   1 H    0.999 --   101 C    0.971
   130   1 H    1.005 --   102 C    0.972
   131   1 H    1.005 --   104 C    0.973
   132   1 H    0.998 --   105 C    0.975
   133   6 C    3.922 --   134 C    2.449   135 C    1.325
   134   6 C    3.915 --   133 C    2.449    22 C    1.204   136 C    0.196
   135   6 C    3.922 --   136 C    2.449   133 C    1.325
   136   6 C    3.915 --   135 C    2.449    88 C    1.204   134 C    0.196
 ---------------------------------------------------------------------------

           -------------------------------------------------
          | TOTAL ENERGY             -223.411972564555 Eh   |
          | GRADIENT NORM               0.000493382739 Eh/α |
          | HOMO-LUMO GAP               0.082016465007 eV   |
           -------------------------------------------------

 * finished run on 2022/07/29 at 16:11:18.038
