   * xtb version 6.5.1 (b24c23e) compiled by 'conda@728c89f4b128' on 2022-07-12
          program call               : xtb Co_BSA_C2_3.xyz --gfn 1 --opt -T 48

   ID    Z sym.   atoms
    1   27 Co     1, 65, 133
    2    6 C      2-6, 8-12, 17-21, 23-28, 30-34, 39-44, 66-70, 72-76, 81-85,
                  87-92, 94-98, 103-108, 129-132, 134-138, 140-144, 149-153,
                  155-160, 162-166, 171-176
    3    7 N      7, 22, 29, 45, 71, 86, 93, 109, 139, 154, 161, 177
    4   16 S      13, 35, 77, 99, 145, 167
    5    8 O      14-16, 36-38, 78-80, 100-102, 146-148, 168-170
    6    1 H      46-64, 110-128, 178-195

          :  Hamiltonian                  GFN1-xTB          :
 * total energy  :  -395.9471010 Eh     change        0.1694048E-08 Eh
 * total energy  :  -396.1388108 Eh     change       -0.1917097E+00 Eh
 * total energy  :  -396.2835050 Eh     change       -0.1446943E+00 Eh
 * total energy  :  -396.3522996 Eh     change       -0.6879457E-01 Eh
 * total energy  :  -396.3922720 Eh     change       -0.3997240E-01 Eh
 * total energy  :  -396.4171727 Eh     change       -0.2490071E-01 Eh
 * total energy  :  -396.4382793 Eh     change       -0.2110654E-01 Eh
 * total energy  :  -396.4559059 Eh     change       -0.1762668E-01 Eh
 * total energy  :  -396.4710375 Eh     change       -0.1513158E-01 Eh
 * total energy  :  -396.4837861 Eh     change       -0.1274858E-01 Eh
 * total energy  :  -396.5575910 Eh     change       -0.8425902E-05 Eh
 * total energy  :  -396.5575969 Eh     change       -0.5856202E-05 Eh
 * total energy  :  -396.5576040 Eh     change       -0.7127564E-05 Eh
 * total energy  :  -396.5576110 Eh     change       -0.7035033E-05 Eh
 * total energy  :  -396.5576177 Eh     change       -0.6688248E-05 Eh
 * total energy  :  -396.5576242 Eh     change       -0.6519275E-05 Eh
 * total energy  :  -396.5576315 Eh     change       -0.7264982E-05 Eh
 * total energy  :  -396.5576369 Eh     change       -0.5369008E-05 Eh
 * total energy  :  -396.5576415 Eh     change       -0.4619666E-05 Eh
   *** GEOMETRY OPTIMIZATION CONVERGED AFTER 83 ITERATIONS ***

 final structure:
================
195
 xtb: 6.5.1 (b24c23e)
Co          36.67628441199988        0.07529069636369        0.02974907961486
C           33.31256659255842        0.19852212524659        0.06003148362342
C           33.95951138667817       -0.35733090874965        1.14361237818089
C           33.29495449101051       -0.92876923807289        2.27536623622033
C           34.24925053517604       -1.17473713568138        3.20387310826543
C           35.49461161637762       -0.73469931856856        2.64500716023976
N           35.31462898768979       -0.30753024047214        1.35433386513794
C           36.68165907083688       -0.62033411115794        3.35696326455865
C           36.69139436810257       -0.93804593925969        4.80225965857831
C           35.85785281173089       -0.24650046151223        5.68496685771595
C           35.86747405944738       -0.54192122836691        7.03822187187799
C           36.71396136438270       -1.53868741258253        7.49554814729547
S           36.73655308510879       -1.91417753614053        9.20819175455409
O           36.24225246017866       -0.81215974338687        9.97993691289165
O           35.60325645428291       -3.07718941391207        9.20745409040348
O           37.98825912065088       -2.50392448244832        9.58078843949746
C           37.55387220234957       -2.23990393980022        6.64562862416834
C           37.54020867333161       -1.93270537064403        5.29525955117846
C           37.86068286419280       -0.20796687558141        2.75121599261051
C           39.09404377558251        0.01764455242164        3.44301512483282
C           40.04290023006713        0.21479891806386        2.49565274511144
N           38.04275428110643       -0.07504374174179        1.39517218846575
C           39.38749487009962        0.11354383525587        1.23002593627982
C           40.05881128364942        0.00971240336483        0.01024624897524
C           39.37161970432164       -0.08610005129734       -1.20159559103179
C           40.00781845726875       -0.23695419793374       -2.47192041187037
C           39.05272131241736       -0.03758885893516       -3.41260357138076
C           37.83673378424506        0.24765088512744       -2.71186980199098
N           38.03165031390260        0.14006024622192       -1.35488332619330
C           36.67042334311030        0.70245106175711       -3.31109584252339
C           36.66854774162355        0.98089758511986       -4.76453531207276
C           35.77545426558846        0.31680888986533       -5.60927831232565
C           35.76730219734506        0.57846606410652       -6.96944035517549
C           36.65788617551814        1.51287596259595       -7.47235897383699
S           36.64009290758779        1.86259201779790       -9.19073189554079
O           37.17021989305558        3.16817967927409       -9.45466761212055
O           37.74628446246390        0.77323154619808       -9.66631927174580
O           35.37516371820042        1.50814671120892       -9.76200276225943
C           37.55167403072145        2.19119803820948       -6.65960862631557
C           37.55528047787445        1.91778031995737       -5.30187448000847
C           35.50633667863576        0.91076819222538       -2.58207811499754
C           34.28695381727960        1.43308696721958       -3.12722417500905
C           33.33817931369086        1.29042569056731       -2.17198247362479
C           33.97993561132317        0.69177804067892       -1.04092464401003
N           35.32200919276745        0.52827223747643       -1.27861046424253
H           32.23012128646909        0.24333306069388        0.07130966756197
H           32.23298883263825       -1.10562511415440        2.33515634272508
H           34.13336074138856       -1.60869692380195        4.18377324849034
H           35.21302535317724        0.53921115927888        5.30906363291462
H           35.23404293646256       -0.00460105159469        7.73280145037969
H           35.43111056296969       -3.37759014226398       10.10819922845691
H           38.20720887223489       -3.00889842562732        7.03825725827483
H           38.18141416745966       -2.47664440965815        4.61149667624066
H           39.20837701687595        0.02210339782897        4.51475230488293
H           41.09726047222394        0.39712350968087        2.62719930273129
H           41.05431066388494       -0.45563743329572       -2.61101706603639
H           39.15265904253141       -0.07375746705252       -4.48519228769313
H           35.09404285771981       -0.41827901934483       -5.19722872172504
H           35.07887812919460        0.07035820171960       -7.63293370797903
H           37.99201948665640        0.92714851843837      -10.58675379080568
H           38.22517635886924        2.92485463275240       -7.08454353234451
H           38.23695643603338        2.44741466879118       -4.64663707140518
H           34.18380027204956        1.84998823050837       -4.11589002202389
H           32.29279087120823        1.55114324648853       -2.21395938766647
Co          58.26838642414676        0.06249123625032       -0.01531286605435
C           61.63389039484433        0.16945225039737       -0.00361169374028
C           60.98410612407756        0.05502467565487       -1.21399376625697
C           61.64762199338651       -0.06403308235048       -2.47677274544052
C           60.69351769930978        0.04930022893305       -3.43037530733743
C           59.44838163328053        0.25650680874799       -2.74931709298079
N           59.62906917556472        0.18294697070729       -1.39117997466314
C           58.26114567028862        0.61591774732214       -3.37196373674746
C           58.24876041969463        0.83814680654069       -4.83510517477917
C           59.07795688509813        1.80280457912272       -5.41304417475338
C           59.06394337606213        2.01313261833683       -6.78212920983692
C           58.21675109566917        1.24542831967737       -7.56452958422249
S           58.18517146466017        1.51172111598423       -9.29716012176206
O           58.68053145616479        2.81663122201912       -9.62328764984994
O           59.31245605693405        0.42285832553853       -9.72268161707785
O           56.92932087066781        1.09877716764017       -9.85058077257733
C           57.38145749295571        0.28297110106043       -7.02079246809092
C           57.40039998987243        0.08406417047937       -5.65043886424235
C           57.08134881407256        0.77646762193264       -2.65782306958634
C           55.84575640896164        1.22862190584583       -3.22404377854364
C           54.89699954951667        1.07143171882947       -2.26974911780976
N           56.90194442026119        0.41770958235553       -1.34366172252497
C           55.55468736025417        0.52871184426983       -1.12268466506264
C           54.88650155316043        0.00750237468312       -0.01778290527819
C           55.56874400642997       -0.50307489120568        1.08370403932553
C           54.92822053159596       -1.08542318543424        2.22077358084677
C           55.88306351748113       -1.23714409796657        3.17005735035044
C           57.10366135420228       -0.73548992801971        2.61304281961332
N           56.91213136512184       -0.35665197319590        1.30589074362809
C           58.27430575699653       -0.53921981624675        3.33285237101878
C           58.27557497672940       -0.79660672782405        4.79033929400485
C           59.15756735867033       -1.72950392086973        5.34185280324051
C           59.16491488586165       -1.96964915781809        6.70594791970543
C           58.28393951662898       -1.26493904874084        7.51004786168325
S           58.29834728191486       -1.55367775422233        9.23957040386331
O           57.76752896154731       -0.42918438492129        9.95315866177818
O           57.19155494938307       -2.74095470025144        9.29035099873155
O           59.56177672124232       -2.09056117660274        9.64933506008925
C           57.40121180104913       -0.33023974254496        6.99370179688762
C           57.39915293415729       -0.10134203936142        5.62773821143786
C           59.44200180233449       -0.10155994300799        2.72299050705501
C           60.66724546638801        0.17336945352342        3.41618320851086
C           61.61594342399191        0.37249316481690        2.47148745726670
C           60.96914700749952        0.23140710812160        1.20213831534916
N           59.62438963300376        0.00993954554228        1.36800751471372
H           62.71662631065334        0.20668685832983        0.00051680852352
H           62.70923715739372       -0.20928190642757       -2.59735539156705
H           60.80911585103664        0.00385604020480       -4.50113809793450
H           59.72292768770600        2.40302720893155       -4.78199791246326
H           59.69411322628425        2.76576697236766       -7.23910919256894
H           59.46891013139729        0.45798498748980      -10.67422970417395
H           56.72756737826212       -0.29521463723130       -7.66148171161485
H           56.76292311042079       -0.67137077580330       -5.20601798222278
H           55.73062644905778        1.61470812743356       -4.22375175612606
H           53.84179485601074        1.28537315019428       -2.32550836073910
H           53.87951545985448       -1.33024730789637        2.27284057839741
H           55.78101553722293       -1.64747020090179        4.16152603995489
H           59.83087728257803       -2.27844264240001        4.69393118265315
H           59.84494741223455       -2.68941858767683        7.14393573396822
H           56.94632222851619       -2.93101491601366       10.20406772761589
H           56.73512831191653        0.21198040069312        7.65305578246424
H           56.72630540343118        0.63584632499818        5.20535834194081
H           60.77368295608377        0.20456531809640        4.48838388152283
H           62.66456028712620        0.58702312663449        2.60180702605667
C           41.46595883652667       -0.00363358847056        0.00247401976791
C           42.68236939246311       -0.01271972375665       -0.00485741677332
C           52.25801568074441       -0.01381947453776       -0.01881514044235
C           53.47236698970008       -0.00671661713097       -0.01679765507701
Co          47.46797094113428       -0.03375739777863        0.01749575728324
C           44.08890978460302       -0.01466099692351       -0.00963727173244
C           44.77276202361069        0.81731065735083        0.88112920974282
C           44.13870531956235        1.66862998278882        1.83721345072180
C           45.09283155403730        2.51316779879124        2.30115751441593
C           46.30637883684732        2.17923613423919        1.61884017083877
N           46.11021328300200        1.08953338301013        0.80493606258061
C           47.47033525658195        2.93641626381042        1.64992418600934
C           47.46781026332665        4.22695122685370        2.37288123249732
C           48.37227584585111        4.45685943865199        3.41286714292819
C           48.37112118478864        5.66458861426291        4.09099207981058
C           47.46023344913475        6.63823176797745        3.71456102473281
S           47.46621487313194        8.17605681746065        4.55758665645633
O           46.86652721288404        9.20142275133945        3.75538454353604
O           46.42690939594948        7.79672407073660        5.74561539546657
O           48.75057129879639        8.42600405830326        5.14087030466101
C           46.55512285095894        6.44190023569649        2.68431108557048
C           46.56060225306008        5.22842647047979        2.01677024319315
C           48.63465884304141        2.51460426325814        1.02012413405427
C           49.85343173407016        3.26514209173917        0.96572294237697
C           50.80693119357007        2.42800190486375        0.48914362832738
N           48.82369938205094        1.25979174955559        0.49354701587507
C           50.16653965393061        1.17410912637486        0.24279958937984
C           50.84491029220911       -0.01506541294706       -0.02047688791510
C           50.16590476687108       -1.20350625489091       -0.28716007618450
C           50.80231531260710       -2.45889333694351       -0.53446939078458
C           49.84749419115615       -3.29058520677762       -1.01929809479392
C           48.63176585420648       -2.53575328221141       -1.07548533073493
N           48.82608205962343       -1.28016799227418       -0.55493838303595
C           47.46523443620463       -2.95106977605278       -1.70674205630734
C           47.46183921324423       -4.23714041802445       -2.43765089483371
C           48.36623830776132       -4.45938455398992       -3.47945211302825
C           48.36706100178282       -5.66298455074063       -4.16480118976624
C           47.45825967663033       -6.64063885080050       -3.79363679880320
S           47.46702831943804       -8.17335575507368       -4.64565760948561
O           46.86662411507528       -9.20392102801767       -3.85070366524798
O           46.43047968929968       -7.78760243580661       -5.83442262284197
O           48.75247664891494       -8.41966384308986       -5.22837407923230
C           46.55371845593744       -6.45228926874492       -2.76137708288659
C           46.55730744365449       -5.24280367065805       -2.08655303986582
C           46.30147251843629       -2.19473600664472       -1.66446045133871
C           45.08249146254510       -2.53127755085662       -2.33642778639593
C           44.12887130346773       -1.69552110164274       -1.85685187413805
C           44.76904472138120       -0.84393857451363       -0.90477801114838
N           46.11078607827092       -1.10186724713084       -0.85194467975285
H           43.09401155317614        1.62535806797437        2.09975740726290
H           44.99325855593825        3.29493139431282        3.03647228460752
H           49.06878526264872        3.67769683239355        3.69967143415330
H           49.06749094506650        5.85375015330256        4.89823950648712
H           46.21739747007666        8.57975950466510        6.26948406417502
H           45.86523668478953        7.22937981285567        2.40805908252126
H           45.86979746162118        5.05914707142744        1.19907963556001
H           49.95663996817962        4.29637520209747        1.26163103724664
H           51.85473377262109        2.62221875020655        0.32595120585200
H           51.84823662108590       -2.65850217286379       -0.36558173281868
H           49.94749582548299       -4.32169385097585       -1.31693029201451
H           49.06143002869533       -3.67736785373157       -3.76160110849900
H           49.06339427567028       -5.84608383637531       -4.97347907584728
H           46.23169033654703       -8.56571421234938       -6.36966877054956
H           45.86586021382347       -7.24289124364723       -2.48900287390859
H           45.86722326008643       -5.08031509851059       -1.26686945895105
H           44.97877238884742       -3.31153032506794       -3.07275442630572
H           43.08059679925951       -1.65731982152580       -2.10576976730860

          :  Hamiltonian                  GFN1-xTB          :
         :: total energy            -396.557641496111 Eh    ::
         :: gradient norm              0.000566139201 Eh/a0 ::
         :: HOMO-LUMO gap              0.005104534937 eV    ::
         :: SCC energy              -401.695560378780 Eh    ::
         :: repulsion energy           5.322395308230 Eh    ::

    * Orbital Energies and Occupations

         #    Occupation            Energy/Eh            Energy/eV
      -------------------------------------------------------------
         1        2.0000           -1.0400843             -28.3021
       ...           ...                  ...                  ...
       332        2.0000           -0.4173889             -11.3577
       333        2.0000           -0.4171010             -11.3499
       334        2.0000           -0.4154107             -11.3039
       335        1.9997           -0.4137314             -11.2582
       336        1.9997           -0.4136972             -11.2573
       337        1.9997           -0.4135315             -11.2528
       338        1.9996           -0.4133317             -11.2473
       339        1.9995           -0.4131212             -11.2416
       340        1.9993           -0.4128638             -11.2346
       341        1.9984           -0.4120239             -11.2117
       342        1.8722           -0.4077721             -11.0960
       343        1.1057           -0.4052803             -11.0282
       344        1.0576           -0.4051784             -11.0255 (HOMO)
       345        0.9685           -0.4049908             -11.0204 (LUMO)
       346                         -0.3603686              -9.8061
       347                         -0.3531882              -9.6107
       348                         -0.3512618              -9.5583
       349                         -0.3493953              -9.5075
       350                         -0.3490004              -9.4968
       351                         -0.3453318              -9.3970
       352                         -0.3267659              -8.8918
       353                         -0.3217499              -8.7553
       354                         -0.3206430              -8.7251
       355                         -0.3137360              -8.5372
       ...                                ...                  ...
       713                          1.3234292              36.0123
      -------------------------------------------------------------
                  HL-Gap            0.0001876 Eh            0.0051 eV

Wiberg/Mayer (AO) data.
largest (>0.10) Wiberg bond orders for each atom

     #   Z sym  total        # sym  WBO       # sym  WBO       # sym  WBO
 ---------------------------------------------------------------------------
     1  27 Co   3.052 --    45 N    0.641     7 N    0.641    22 N    0.635
                            29 N    0.635
     2   6 C    3.928 --    44 C    1.366     3 C    1.364    46 H    0.969
     3   6 C    3.922 --     2 C    1.364     7 N    1.199     4 C    1.174
     4   6 C    3.958 --     5 C    1.650     3 C    1.174    47 H    0.975
     5   6 C    3.963 --     4 C    1.650     6 C    1.174    48 H    0.973
     6   6 C    3.921 --     8 C    1.320     7 N    1.210     5 C    1.174
     7   7 N    3.346 --     6 C    1.210     3 C    1.199     1 Co   0.641
     8   6 C    3.929 --    19 C    1.326     6 C    1.320     9 C    1.033
     9   6 C    3.986 --    10 C    1.390    18 C    1.389     8 C    1.033
    10   6 C    3.986 --    11 C    1.450     9 C    1.390    49 H    0.971
                            17 C    0.106
    11   6 C    3.989 --    10 C    1.450    12 C    1.408    50 H    0.967
                            18 C    0.106
    12   6 C    3.931 --    11 C    1.408    17 C    1.407    13 S    0.754
    13  16 S    5.266 --    16 O    1.721    14 O    1.718    15 O    1.014
                            12 C    0.754
    14   8 O    2.078 --    13 S    1.718    16 O    0.139
    15   8 O    2.088 --    13 S    1.014    51 H    0.827
    16   8 O    2.080 --    13 S    1.721    14 O    0.139
    17   6 C    3.989 --    18 C    1.451    12 C    1.407    52 H    0.967
                            10 C    0.106
    18   6 C    3.985 --    17 C    1.451     9 C    1.389    53 H    0.971
                            11 C    0.106
    19   6 C    3.918 --     8 C    1.326    22 N    1.197    20 C    1.181
    20   6 C    3.959 --    21 C    1.637    19 C    1.181    54 H    0.973
    21   6 C    3.962 --    20 C    1.637    23 C    1.189    55 H    0.971
    22   7 N    3.347 --    23 C    1.223    19 C    1.197     1 Co   0.635
    23   6 C    3.909 --    24 C    1.268    22 N    1.223    21 C    1.189
    24   6 C    3.933 --    23 C    1.268    25 C    1.266   129 C    1.173
    25   6 C    3.908 --    24 C    1.266    29 N    1.225    26 C    1.189
    26   6 C    3.960 --    27 C    1.637    25 C    1.189    56 H    0.971
    27   6 C    3.958 --    26 C    1.637    28 C    1.181    57 H    0.973
    28   6 C    3.918 --    30 C    1.327    29 N    1.195    27 C    1.181
    29   7 N    3.346 --    25 C    1.225    28 C    1.195     1 Co   0.635
    30   6 C    3.929 --    28 C    1.327    41 C    1.318    31 C    1.033
    31   6 C    3.986 --    32 C    1.390    40 C    1.389    30 C    1.033
    32   6 C    3.985 --    33 C    1.450    31 C    1.390    58 H    0.971
                            39 C    0.106
    33   6 C    3.989 --    32 C    1.450    34 C    1.408    59 H    0.967
                            40 C    0.106
    34   6 C    3.931 --    33 C    1.408    39 C    1.407    35 S    0.754
    35  16 S    5.267 --    38 O    1.724    36 O    1.716    37 O    1.014
                            34 C    0.754
    36   8 O    2.075 --    35 S    1.716    38 O    0.139
    37   8 O    2.088 --    35 S    1.014    60 H    0.827
    38   8 O    2.083 --    35 S    1.724    36 O    0.139
    39   6 C    3.989 --    40 C    1.451    34 C    1.407    61 H    0.967
                            32 C    0.106
    40   6 C    3.986 --    39 C    1.451    31 C    1.389    62 H    0.971
                            33 C    0.106
    41   6 C    3.921 --    30 C    1.318    45 N    1.212    42 C    1.174
    42   6 C    3.963 --    43 C    1.651    41 C    1.174    63 H    0.973
    43   6 C    3.960 --    42 C    1.651    44 C    1.173    64 H    0.975
    44   6 C    3.922 --     2 C    1.366    45 N    1.197    43 C    1.173
    45   7 N    3.347 --    41 C    1.212    44 C    1.197     1 Co   0.641
    46   1 H    0.999 --     2 C    0.969
    47   1 H    0.997 --     4 C    0.975
    48   1 H    1.003 --     5 C    0.973
    49   1 H    1.003 --    10 C    0.971
    50   1 H    0.999 --    11 C    0.967
    51   1 H    0.853 --    15 O    0.827
    52   1 H    0.999 --    17 C    0.967
    53   1 H    1.003 --    18 C    0.971
    54   1 H    1.002 --    20 C    0.973
    55   1 H    1.003 --    21 C    0.971
    56   1 H    1.003 --    26 C    0.971
    57   1 H    1.003 --    27 C    0.973
    58   1 H    1.003 --    32 C    0.971
    59   1 H    0.999 --    33 C    0.967
    60   1 H    0.854 --    37 O    0.827
    61   1 H    0.999 --    39 C    0.967
    62   1 H    1.003 --    40 C    0.971
    63   1 H    1.002 --    42 C    0.973
    64   1 H    0.997 --    43 C    0.975
    65  27 Co   3.068 --   109 N    0.648    71 N    0.647    86 N    0.642
                            93 N    0.641
    66   6 C    3.939 --   108 C    1.368    67 C    1.366   110 H    0.969
    67   6 C    3.921 --    66 C    1.366    71 N    1.198    68 C    1.173
    68   6 C    3.959 --    69 C    1.652    67 C    1.173   111 H    0.975
    69   6 C    3.962 --    68 C    1.652    70 C    1.174   112 H    0.973
    70   6 C    3.922 --    72 C    1.325    71 N    1.207    69 C    1.174
    71   7 N    3.354 --    70 C    1.207    67 C    1.198    65 Co   0.647
    72   6 C    3.939 --    70 C    1.325    83 C    1.324    73 C    1.033
    73   6 C    3.986 --    74 C    1.390    82 C    1.389    72 C    1.033
    74   6 C    3.986 --    75 C    1.450    73 C    1.390   113 H    0.971
                            81 C    0.106
    75   6 C    3.989 --    74 C    1.450    76 C    1.408   114 H    0.967
                            82 C    0.106
    76   6 C    3.930 --    75 C    1.408    81 C    1.406    77 S    0.754
    77  16 S    5.265 --    80 O    1.720    78 O    1.719    79 O    1.013
                            76 C    0.754
    78   8 O    2.077 --    77 S    1.719    80 O    0.139
    79   8 O    2.087 --    77 S    1.013   115 H    0.827
    80   8 O    2.079 --    77 S    1.720    78 O    0.139
    81   6 C    3.989 --    82 C    1.451    76 C    1.406   116 H    0.967
                            74 C    0.106
    82   6 C    3.985 --    81 C    1.451    73 C    1.389   117 H    0.971
                            75 C    0.106
    83   6 C    3.918 --    72 C    1.324    86 N    1.200    84 C    1.180
    84   6 C    3.962 --    85 C    1.640    83 C    1.180   118 H    0.973
    85   6 C    3.961 --    84 C    1.640    87 C    1.186   119 H    0.973
    86   7 N    3.354 --    87 C    1.213    83 C    1.200    65 Co   0.642
    87   6 C    3.914 --    88 C    1.284    86 N    1.213    85 C    1.186
    88   6 C    3.942 --    87 C    1.284    89 C    1.283   132 C    1.142
    89   6 C    3.914 --    88 C    1.283    93 N    1.214    90 C    1.187
    90   6 C    3.960 --    91 C    1.640    89 C    1.187   120 H    0.973
    91   6 C    3.962 --    90 C    1.640    92 C    1.180   121 H    0.973
    92   6 C    3.918 --    94 C    1.325    93 N    1.199    91 C    1.180
    93   7 N    3.354 --    89 C    1.214    92 C    1.199    65 Co   0.641
    94   6 C    3.939 --    92 C    1.325   105 C    1.324    95 C    1.033
    95   6 C    3.986 --    96 C    1.390   104 C    1.389    94 C    1.033
    96   6 C    3.985 --    97 C    1.450    95 C    1.390   122 H    0.971
                           103 C    0.106
    97   6 C    3.989 --    96 C    1.450    98 C    1.407   123 H    0.967
                           104 C    0.106
    98   6 C    3.930 --    97 C    1.407   103 C    1.407    99 S    0.754
    99  16 S    5.266 --   102 O    1.724   100 O    1.716   101 O    1.014
                            98 C    0.754
   100   8 O    2.075 --    99 S    1.716   102 O    0.139
   101   8 O    2.088 --    99 S    1.014   124 H    0.827
   102   8 O    2.082 --    99 S    1.724   100 O    0.139
   103   6 C    3.989 --   104 C    1.451    98 C    1.407   125 H    0.967
                            96 C    0.106
   104   6 C    3.986 --   103 C    1.451    95 C    1.389   126 H    0.971
                            97 C    0.106
   105   6 C    3.922 --    94 C    1.324   109 N    1.208   106 C    1.173
   106   6 C    3.963 --   107 C    1.652   105 C    1.173   127 H    0.973
   107   6 C    3.960 --   106 C    1.652   108 C    1.172   128 H    0.975
   108   6 C    3.921 --    66 C    1.368   109 N    1.196   107 C    1.172
   109   7 N    3.354 --   105 C    1.208   108 C    1.196    65 Co   0.648
   110   1 H    0.999 --    66 C    0.969
   111   1 H    0.997 --    68 C    0.975
   112   1 H    1.003 --    69 C    0.973
   113   1 H    1.003 --    74 C    0.971
   114   1 H    0.999 --    75 C    0.967
   115   1 H    0.854 --    79 O    0.827
   116   1 H    0.999 --    81 C    0.967
   117   1 H    1.003 --    82 C    0.971
   118   1 H    1.002 --    84 C    0.973
   119   1 H    1.001 --    85 C    0.973
   120   1 H    1.001 --    90 C    0.973
   121   1 H    1.003 --    91 C    0.973
   122   1 H    1.003 --    96 C    0.971
   123   1 H    0.999 --    97 C    0.967
   124   1 H    0.854 --   101 O    0.827
   125   1 H    0.999 --   103 C    0.967
   126   1 H    1.003 --   104 C    0.971
   127   1 H    1.003 --   106 C    0.973
   128   1 H    0.997 --   107 C    0.975
   129   6 C    3.924 --   130 C    2.573    24 C    1.173
   130   6 C    3.931 --   129 C    2.573   134 C    1.175
   131   6 C    3.931 --   132 C    2.599   156 C    1.147
   132   6 C    3.922 --   131 C    2.599    88 C    1.142
   133  27 Co   3.105 --   154 N    0.642   177 N    0.641   161 N    0.635
                           139 N    0.635
   134   6 C    3.928 --   176 C    1.266   135 C    1.263   130 C    1.175
   135   6 C    3.910 --   134 C    1.263   139 N    1.225   136 C    1.191
   136   6 C    3.960 --   137 C    1.635   135 C    1.191   178 H    0.971
   137   6 C    3.960 --   136 C    1.635   138 C    1.183   179 H    0.973
   138   6 C    3.917 --   140 C    1.322   139 N    1.197   137 C    1.183
   139   7 N    3.345 --   135 C    1.225   138 C    1.197   133 Co   0.635
   140   6 C    3.929 --   138 C    1.322   151 C    1.320   141 C    1.034
   141   6 C    3.986 --   142 C    1.389   150 C    1.389   140 C    1.034
   142   6 C    3.984 --   143 C    1.450   141 C    1.389   180 H    0.971
                           149 C    0.106
   143   6 C    3.989 --   142 C    1.450   144 C    1.408   181 H    0.967
                           150 C    0.106
   144   6 C    3.931 --   149 C    1.408   143 C    1.408   145 S    0.754
   145  16 S    5.267 --   148 O    1.723   146 O    1.718   147 O    1.015
                           144 C    0.754
   146   8 O    2.077 --   145 S    1.718   148 O    0.139
   147   8 O    2.088 --   145 S    1.015   182 H    0.827
   148   8 O    2.082 --   145 S    1.723   146 O    0.139
   149   6 C    3.989 --   150 C    1.450   144 C    1.408   183 H    0.967
                           142 C    0.106
   150   6 C    3.984 --   149 C    1.450   141 C    1.389   184 H    0.971
                           143 C    0.106
   151   6 C    3.917 --   140 C    1.320   154 N    1.200   152 C    1.181
   152   6 C    3.963 --   153 C    1.640   151 C    1.181   185 H    0.973
   153   6 C    3.960 --   152 C    1.640   155 C    1.187   186 H    0.973
   154   7 N    3.343 --   155 C    1.217   151 C    1.200   133 Co   0.642
   155   6 C    3.915 --   156 C    1.279   154 N    1.217   153 C    1.187
   156   6 C    3.927 --   155 C    1.279   157 C    1.277   131 C    1.147
   157   6 C    3.915 --   156 C    1.277   161 N    1.217   158 C    1.188
   158   6 C    3.960 --   159 C    1.637   157 C    1.188   187 H    0.974
   159   6 C    3.963 --   158 C    1.637   160 C    1.182   188 H    0.973
   160   6 C    3.917 --   162 C    1.317   161 N    1.202   159 C    1.182
   161   7 N    3.345 --   157 C    1.217   160 C    1.202   133 Co   0.635
   162   6 C    3.928 --   173 C    1.325   160 C    1.317   163 C    1.035
   163   6 C    3.986 --   164 C    1.389   172 C    1.389   162 C    1.035
   164   6 C    3.984 --   165 C    1.450   163 C    1.389   189 H    0.971
                           171 C    0.106
   165   6 C    3.989 --   164 C    1.450   166 C    1.407   190 H    0.967
                           172 C    0.106
   166   6 C    3.931 --   171 C    1.408   165 C    1.407   167 S    0.754
   167  16 S    5.267 --   170 O    1.723   168 O    1.718   169 O    1.014
                           166 C    0.754
   168   8 O    2.077 --   167 S    1.718   170 O    0.139
   169   8 O    2.088 --   167 S    1.014   191 H    0.827
   170   8 O    2.081 --   167 S    1.723   168 O    0.139
   171   6 C    3.989 --   172 C    1.450   166 C    1.408   192 H    0.967
                           164 C    0.106
   172   6 C    3.984 --   171 C    1.450   163 C    1.389   193 H    0.971
                           165 C    0.106
   173   6 C    3.917 --   162 C    1.325   177 N    1.195   174 C    1.182
   174   6 C    3.961 --   175 C    1.637   173 C    1.182   194 H    0.973
   175   6 C    3.960 --   174 C    1.637   176 C    1.189   195 H    0.971
   176   6 C    3.910 --   134 C    1.266   177 N    1.225   175 C    1.189
   177   7 N    3.342 --   176 C    1.225   173 C    1.195   133 Co   0.641
   178   1 H    1.003 --   136 C    0.971
   179   1 H    1.002 --   137 C    0.973
   180   1 H    1.003 --   142 C    0.971
   181   1 H    0.999 --   143 C    0.967
   182   1 H    0.853 --   147 O    0.827
   183   1 H    0.999 --   149 C    0.967
   184   1 H    1.003 --   150 C    0.971
   185   1 H    1.002 --   152 C    0.973
   186   1 H    1.000 --   153 C    0.973
   187   1 H    1.000 --   158 C    0.974
   188   1 H    1.002 --   159 C    0.973
   189   1 H    1.003 --   164 C    0.971
   190   1 H    0.999 --   165 C    0.967
   191   1 H    0.853 --   169 O    0.827
   192   1 H    0.999 --   171 C    0.967
   193   1 H    1.003 --   172 C    0.971
   194   1 H    1.002 --   174 C    0.973
   195   1 H    1.003 --   175 C    0.971
 ---------------------------------------------------------------------------

           -------------------------------------------------
          | TOTAL ENERGY             -396.557641496111 Eh   |
          | GRADIENT NORM               0.000566139201 Eh/α |
          | HOMO-LUMO GAP               0.005104534937 eV   |
           -------------------------------------------------

 * finished run on 2022/07/30 at 05:49:40.795
