   * xtb version 6.5.1 (b24c23e) compiled by 'conda@728c89f4b128' on 2022-07-12
          program call               : xtb Cu_Ph2Me_C6_2.xyz --gfn 1 --opt -T 48

   ID    Z sym.   atoms
    1   29 Cu     1, 69
    2    6 C      2-6, 8-11, 13-31, 34-41, 70-74, 76-79, 81-99, 102-109,
                  137-142
    3    7 N      7, 12, 32, 33, 75, 80, 100, 101
    4    1 H      42-68, 110-136
########################################################################
[WARNING] Please study the warnings concerning your input carefully
-1- prog_main_parseArguments: Unknown option '-T' provided
########################################################################

          :  Hamiltonian                  GFN1-xTB          :
 * total energy  :  -228.3025159 Eh     change       -0.3113257E-08 Eh
 * total energy  :  -228.4175306 Eh     change       -0.1150147E+00 Eh
 * total energy  :  -228.4652969 Eh     change       -0.4776622E-01 Eh
 * total energy  :  -228.4745169 Eh     change       -0.9220041E-02 Eh
 * total energy  :  -228.4782524 Eh     change       -0.3735446E-02 Eh
 * total energy  :  -228.4800635 Eh     change       -0.1811137E-02 Eh
 * total energy  :  -228.4808820 Eh     change       -0.8185314E-03 Eh
 * total energy  :  -228.4812987 Eh     change       -0.4166472E-03 Eh
 * total energy  :  -228.4816507 Eh     change       -0.3520791E-03 Eh
 * total energy  :  -228.4819772 Eh     change       -0.3264887E-03 Eh
 * total energy  :  -228.4847033 Eh     change       -0.2321598E-04 Eh
 * total energy  :  -228.4847136 Eh     change       -0.1033193E-04 Eh
 * total energy  :  -228.4847197 Eh     change       -0.6011040E-05 Eh
 * total energy  :  -228.4846929 Eh     change        0.2678140E-04 Eh
 * total energy  :  -228.4847242 Eh     change       -0.3134766E-04 Eh
 * total energy  :  -228.4847261 Eh     change       -0.1877151E-05 Eh
 * total energy  :  -228.4847310 Eh     change       -0.4862003E-05 Eh
 * total energy  :  -228.4847377 Eh     change       -0.6693132E-05 Eh
 * total energy  :  -228.4847423 Eh     change       -0.4625035E-05 Eh
   *** GEOMETRY OPTIMIZATION CONVERGED AFTER 50 ITERATIONS ***

 final structure:
================
142
 xtb: 6.5.1 (b24c23e)
Cu          14.20466751759719        0.03433387232673       -0.02423846026472
C           10.82259650721963        0.21508585287544       -0.39295753256563
C           11.47125067617034        1.37623432827449        0.00030593009347
C           10.81479030154822        2.61755159289582        0.29549230001771
C           11.77996570114403        3.49839024932671        0.65851844246411
C           13.03744494447630        2.80601038072269        0.57686445013503
N           12.81741533227953        1.51719153104992        0.18345176956156
C           14.28301201417185        3.36439615886511        0.87421789372970
C           15.49946141967608        2.68090796098853        0.82694894083428
C           16.78432229247442        3.27318475048276        1.07100527855491
C           17.71181844650019        2.29649602836270        0.90416959659629
N           15.66640307900806        1.35881998510229        0.50888502556127
C           17.00239097251961        1.10284231348640        0.55332303239042
C           17.61611019684144       -0.13301788126363        0.28408948626253
C           16.94005899050289       -1.31293156559807       -0.07252296584995
C           17.58558896172203       -2.56377335012523       -0.33786477059224
C           16.61040865075258       -3.45212181935050       -0.65661977757643
C           15.36066009775205       -2.74918866521109       -0.58632320080804
C           14.11521575967709       -3.30639997137252       -0.87938808243306
C           14.07806326497609       -4.74803423653880       -1.23721191429858
C           13.68609116378763       -5.14685257359381       -2.51297722748715
C           13.65540070435523       -6.49613384593588       -2.85326000932651
C           13.22040896809626       -6.91616592548398       -4.23141231937102
C           14.01210534914350       -7.44670054210327       -1.90309914747544
C           14.40220302404755       -7.06353807830210       -0.62216235365301
C           14.79769508742574       -8.10574284804489        0.38884383877153
C           14.43726535580770       -5.71292283355996       -0.29640303231729
C           12.90302820986351       -2.61334124962027       -0.86681126812347
C           11.61702772925495       -3.19136986039851       -1.14789588278305
C           10.69809665621646       -2.20249379630277       -1.01760087289613
C           11.41227181408272       -1.01440732197998       -0.64616072993568
N           12.74662734705254       -1.29214301371995       -0.56035410942920
N           15.59519207335171       -1.44721079703028       -0.23034117475427
C           14.31547500780956        4.79724104583343        1.26322327714903
C           13.89421437441544        5.77849016606508        0.36648739874447
C           13.91981219828589        7.12167718095945        0.72515331319169
C           13.48602836020045        8.17969980508941       -0.25333418600484
C           14.37024580651784        7.48080587342777        1.99227362052456
C           14.79417957538612        6.51362113034612        2.89835254406039
C           15.25705946785826        6.91126007329463        4.27406389032693
C           14.76522738951150        5.17316492130683        2.52796565470789
H            9.74411325144621        0.27086560557963       -0.50011863176295
H            9.74971926632550        2.77832987322737        0.23669446272691
H           11.65702837123753        4.52431087408372        0.96643014663388
H           16.95229280277733        4.30786991270155        1.32264843954270
H           18.78313730125424        2.36927550520483        1.00312730508854
H           18.64972643445659       -2.73039178313872       -0.28666287695365
H           16.72309872692763       -4.48921692238843       -0.92845030709654
H           13.42044637713006       -4.39594222279103       -3.24900852587023
H           13.59033422363210       -7.91327204183625       -4.47023600094346
H           12.12962740682543       -6.93363494245430       -4.28760748875388
H           13.58559239975919       -6.21474913755383       -4.98224321757937
H           13.98731625565695       -8.50037893889362       -2.16167369774105
H           14.81100284081576       -7.68802581987825        1.39541691675722
H           14.10410960406186       -8.94717748998303        0.36552494573432
H           15.79613806421107       -8.48559321403163        0.16142176443021
H           14.73053326626530       -5.40118906964663        0.70007381239141
H           11.44625640021035       -4.22509003853340       -1.40247968218080
H            9.62917530383549       -2.26013381835583       -1.15102466913252
H           13.55924547720014        5.48749986173637       -0.62317208521068
H           12.99423311422636        9.00521968073504        0.26207578174616
H           12.80085862116285        7.76750874925396       -0.99421993607948
H           14.35650167102446        8.57920520154227       -0.77873645370389
H           14.39109894699280        8.52791845965397        2.27658519250740
H           14.40570294453973        6.94078152700936        4.95802774173141
H           15.71389098296333        7.90106949509981        4.25885177907186
H           15.98008211842284        6.19412498725027        4.66317822587558
H           15.07954353647305        4.40936227681615        3.23089228268167
Cu          30.19718656572478        0.01031958154805       -0.03726728684219
C           33.57850093782456        0.31999009219033       -0.31656276882599
C           32.93029141024591       -0.38397319805561       -1.32055876148161
C           33.58705379837284       -1.01419325763577       -2.42980730770554
C           32.62221980338840       -1.60987715186412       -3.17378848996809
C           31.36460255148392       -1.33859914647984       -2.53182983101175
N           31.58429684438207       -0.60050152763521       -1.40434109749403
C           30.11910221788266       -1.77979682103590       -2.98545406150914
C           28.90256910867845       -1.54412341507041       -2.34219714850763
C           27.61759215027947       -1.94228470216362       -2.84376295959517
C           26.69014545772187       -1.51079860462687       -1.95177072078003
N           28.73570559135589       -0.87183575070920       -1.16020602559344
C           27.39969279650391       -0.84310456647405       -0.90206593591409
C           26.78606851417644       -0.24225145380263        0.21099296636386
C           27.46227676433084        0.42682461003415        1.24611693254680
C           26.81719355250126        1.02600831904302        2.37598586342540
C           27.79236469922109        1.57992554290703        3.14015415518969
C           29.04157074201956        1.32125113555110        2.48177807018269
C           30.28638015270730        1.76186148752708        2.93302930096111
C           30.32294428408779        2.50784867151346        4.21765141641856
C           30.70211179809873        3.84786399909172        4.24269559636589
C           30.73065740276504        4.55172932830973        5.44311022283841
C           31.15063537736867        5.99684968088268        5.45997137345008
C           30.38574978416431        3.90121251165891        6.62267710214863
C           30.00910502260573        2.56044942077324        6.61409148934653
C           29.62609718984738        1.87660062032743        7.89883670960064
C           29.97515046575919        1.87033619259415        5.40818993474987
C           31.49800435869254        1.56093459980221        2.26875551471304
C           32.78317670942130        1.99740509651360        2.74276378618122
C           33.70209094118277        1.59824044161726        1.82866218545471
C           32.98866963175114        0.90628354017997        0.79333507955270
N           31.65477044345420        0.89744687294101        1.08590034781018
N           28.80687902411917        0.61819970982652        1.32961725495773
C           30.08615182810641       -2.55135008890926       -4.25388187033534
C           30.50909138081905       -1.96302405113555       -5.44528364434986
C           30.48145921992034       -2.67991140545778       -6.63641907358511
C           30.91657215588841       -2.03400942656846       -7.92424929457426
C           30.02730006198713       -3.99561863331092       -6.63022797017741
C           29.60187420276265       -4.59694574902298       -5.44970106837438
C           29.13462238919389       -6.02755391452102       -5.45067157331169
C           29.63298029256153       -3.86961350331830       -4.26446635762755
H           34.65672401071505        0.40944074982644       -0.40118792998935
H           34.65209592262414       -1.00195482381909       -2.60074867861574
H           32.74549346430027       -2.19253274036924       -4.07254024137801
H           27.44940528433974       -2.47075626348090       -3.76817290315122
H           25.61879112041708       -1.62565783738555       -1.99440380209710
H           25.75335807239490        1.02030833850754        2.55202121087507
H           27.68011369268610        2.12712816654743        4.06218049369607
H           30.95949811244729        4.34729625441006        3.31498212403598
H           30.77308436289736        6.50234676518327        6.34884221506278
H           32.24075594293746        6.06713916469002        5.46385552130495
H           30.78225375145431        6.51648776510729        4.57490252222326
H           30.40909610010598        4.44399243905080        7.56212242029293
H           29.62682637643262        0.79322053910969        7.77973342235440
H           30.31838610541275        2.14378376953405        8.69820876955902
H           28.62419022884368        2.18798038550712        8.20251715291630
H           29.69118518496453        0.82380230189625        5.38812278143330
H           32.95326665160819        2.53246937105048        3.66328322279313
H           34.77053210666768        1.74622271963053        1.84492371240772
H           30.84668577506124       -0.93233979480498       -5.44016482130272
H           31.40340181027909       -2.75991632992438       -8.57619305005460
H           31.60641547271602       -1.21173593627122       -7.73383248516803
H           30.04729813574014       -1.63469806835340       -8.45179091556981
H           30.00454028566763       -4.55892466566219       -7.55752528742322
H           29.98475351804264       -6.69584886102511       -5.29530822655287
H           28.67198217163207       -6.28399703006542       -6.40402212040838
H           28.41522447002709       -6.20197882467243       -4.65037076801673
H           29.31742814593050       -4.33240507155959       -3.33573381016926
C           22.81471320526452       -0.29961727083814        0.37210521095358
C           21.58729351946474       -0.27409374822709        0.38972862960849
C           20.24232695729327       -0.23551342925216        0.38169364466435
C           19.02012662732059       -0.18923517826330        0.35356965731360
C           24.15975656800574       -0.30382079906249        0.33561758685866
C           25.38198272337987       -0.29223774016326        0.28369779738783

          :  Hamiltonian                  GFN1-xTB          :
         :: total energy            -228.484742281974 Eh    ::
         :: gradient norm              0.000317972955 Eh/a0 ::
         :: HOMO-LUMO gap              0.000052103817 eV    ::
         :: SCC energy              -232.159597723890 Eh    ::
         :: repulsion energy           3.794687523852 Eh    ::

    * Orbital Energies and Occupations

         #    Occupation            Energy/Eh            Energy/eV
      -------------------------------------------------------------
         1        2.0000           -0.7606685             -20.6988
       ...           ...                  ...                  ...
       202        2.0000           -0.4085454             -11.1171
       203        2.0000           -0.4085397             -11.1169
       204        2.0000           -0.4053994             -11.0315
       205        2.0000           -0.4053942             -11.0313
       206        2.0000           -0.4050909             -11.0231
       207        2.0000           -0.4050853             -11.0229
       208        2.0000           -0.4050357             -11.0216
       209        2.0000           -0.4049766             -11.0200
       210        2.0000           -0.3921299             -10.6704
       211        2.0000           -0.3921259             -10.6703
       212        2.0000           -0.3851835             -10.4814
       213        2.0000           -0.3780896             -10.2883
       214        1.0005           -0.3525317              -9.5929 (HOMO)
       215        0.9995           -0.3525298              -9.5928 (LUMO)
       216                         -0.3331964              -9.0667
       217                         -0.3250189              -8.8442
       218                         -0.3238598              -8.8127
       219                         -0.3238553              -8.8126
       220                         -0.2948271              -8.0227
       221                         -0.2908170              -7.9135
       222                         -0.2742990              -7.4641
       223                         -0.2607769              -7.0961
       224                         -0.2563977              -6.9769
       225                         -0.2563703              -6.9762
       ...                                ...                  ...
       470                          1.5837254              43.0954
      -------------------------------------------------------------
                  HL-Gap            0.0000019 Eh            0.0001 eV

Wiberg/Mayer (AO) data.
largest (>0.10) Wiberg bond orders for each atom

     #   Z sym  total        # sym  WBO       # sym  WBO       # sym  WBO
 ---------------------------------------------------------------------------
     1  29 Cu   2.187 --     7 N    0.506    32 N    0.505    33 N    0.503
                            12 N    0.503
     2   6 C    3.929 --    31 C    1.361     3 C    1.361    42 H    0.971
     3   6 C    3.918 --     2 C    1.361     7 N    1.229     4 C    1.171
     4   6 C    3.955 --     5 C    1.655     3 C    1.171    43 H    0.976
     5   6 C    3.958 --     4 C    1.655     6 C    1.173    44 H    0.973
     6   6 C    3.913 --     8 C    1.319     7 N    1.238     5 C    1.173
     7   7 N    3.244 --     6 C    1.238     3 C    1.229     1 Cu   0.506
     8   6 C    3.935 --     9 C    1.328     6 C    1.319    34 C    1.025
     9   6 C    3.908 --     8 C    1.328    12 N    1.222    10 C    1.179
    10   6 C    3.955 --    11 C    1.643     9 C    1.179    45 H    0.973
    11   6 C    3.957 --    10 C    1.643    13 C    1.186    46 H    0.974
    12   7 N    3.248 --    13 C    1.256     9 C    1.222     1 Cu   0.503
    13   6 C    3.898 --    14 C    1.261    12 N    1.256    11 C    1.186
    14   6 C    3.940 --    13 C    1.261    15 C    1.261   140 C    1.184
    15   6 C    3.898 --    14 C    1.261    33 N    1.257    16 C    1.186
    16   6 C    3.957 --    17 C    1.643    15 C    1.186    47 H    0.974
    17   6 C    3.955 --    16 C    1.643    18 C    1.179    48 H    0.973
    18   6 C    3.908 --    19 C    1.329    33 N    1.221    17 C    1.179
    19   6 C    3.935 --    18 C    1.329    28 C    1.321    20 C    1.022
    20   6 C    3.988 --    21 C    1.403    27 C    1.393    19 C    1.022
                            24 C    0.103
    21   6 C    3.987 --    22 C    1.412    20 C    1.403    49 H    0.972
                            25 C    0.104
    22   6 C    3.988 --    24 C    1.421    21 C    1.412    23 C    1.020
                            27 C    0.103
    23   6 C    3.996 --    22 C    1.020    50 H    0.984    52 H    0.981
                            51 H    0.971
    24   6 C    3.989 --    22 C    1.421    25 C    1.410    53 H    0.972
                            20 C    0.103
    25   6 C    3.988 --    27 C    1.422    24 C    1.410    26 C    1.020
                            21 C    0.104
    26   6 C    3.996 --    25 C    1.020    54 H    0.985    55 H    0.980
                            56 H    0.972
    27   6 C    3.987 --    25 C    1.422    20 C    1.393    57 H    0.972
                            22 C    0.103
    28   6 C    3.913 --    19 C    1.321    32 N    1.238    29 C    1.173
    29   6 C    3.958 --    30 C    1.655    28 C    1.173    58 H    0.973
    30   6 C    3.955 --    29 C    1.655    31 C    1.171    59 H    0.976
    31   6 C    3.918 --     2 C    1.361    32 N    1.230    30 C    1.171
    32   7 N    3.244 --    28 C    1.238    31 C    1.230     1 Cu   0.505
    33   7 N    3.249 --    15 C    1.257    18 C    1.221     1 Cu   0.503
    34   6 C    3.988 --    41 C    1.398    35 C    1.395     8 C    1.025
                            38 C    0.103
    35   6 C    3.987 --    36 C    1.418    34 C    1.395    60 H    0.972
                            39 C    0.103
    36   6 C    3.988 --    35 C    1.418    38 C    1.414    37 C    1.020
                            41 C    0.103
    37   6 C    3.996 --    36 C    1.020    62 H    0.984    61 H    0.982
                            63 H    0.971
    38   6 C    3.988 --    39 C    1.417    36 C    1.414    64 H    0.972
                            34 C    0.103
    39   6 C    3.988 --    38 C    1.417    41 C    1.416    40 C    1.020
                            35 C    0.103
    40   6 C    3.996 --    39 C    1.020    67 H    0.983    66 H    0.983
                            65 H    0.971
    41   6 C    3.987 --    39 C    1.416    34 C    1.398    68 H    0.972
                            36 C    0.103
    42   1 H    1.002 --     2 C    0.971
    43   1 H    0.998 --     4 C    0.976
    44   1 H    1.005 --     5 C    0.973
    45   1 H    1.005 --    10 C    0.973
    46   1 H    1.002 --    11 C    0.974
    47   1 H    1.002 --    16 C    0.974
    48   1 H    1.005 --    17 C    0.973
    49   1 H    1.002 --    21 C    0.972
    50   1 H    1.004 --    23 C    0.984
    51   1 H    1.006 --    23 C    0.971
    52   1 H    1.005 --    23 C    0.981
    53   1 H    1.000 --    24 C    0.972
    54   1 H    1.004 --    26 C    0.985
    55   1 H    1.005 --    26 C    0.980
    56   1 H    1.006 --    26 C    0.972
    57   1 H    1.003 --    27 C    0.972
    58   1 H    1.005 --    29 C    0.973
    59   1 H    0.998 --    30 C    0.976
    60   1 H    1.003 --    35 C    0.972
    61   1 H    1.005 --    37 C    0.982
    62   1 H    1.004 --    37 C    0.984
    63   1 H    1.006 --    37 C    0.971
    64   1 H    1.000 --    38 C    0.972
    65   1 H    1.006 --    40 C    0.971
    66   1 H    1.004 --    40 C    0.983
    67   1 H    1.004 --    40 C    0.983
    68   1 H    1.003 --    41 C    0.972
    69  29 Cu   2.187 --    75 N    0.506   100 N    0.505   101 N    0.503
                            80 N    0.503
    70   6 C    3.929 --    99 C    1.361    71 C    1.361   110 H    0.971
    71   6 C    3.918 --    70 C    1.361    75 N    1.229    72 C    1.171
    72   6 C    3.955 --    73 C    1.655    71 C    1.171   111 H    0.976
    73   6 C    3.958 --    72 C    1.655    74 C    1.173   112 H    0.973
    74   6 C    3.913 --    76 C    1.319    75 N    1.238    73 C    1.173
    75   7 N    3.245 --    74 C    1.238    71 C    1.229    69 Cu   0.506
    76   6 C    3.935 --    77 C    1.327    74 C    1.319   102 C    1.025
    77   6 C    3.908 --    76 C    1.327    80 N    1.222    78 C    1.179
    78   6 C    3.955 --    79 C    1.643    77 C    1.179   113 H    0.973
    79   6 C    3.957 --    78 C    1.643    81 C    1.186   114 H    0.974
    80   7 N    3.248 --    81 C    1.256    77 C    1.222    69 Cu   0.503
    81   6 C    3.898 --    82 C    1.261    80 N    1.256    79 C    1.186
    82   6 C    3.940 --    81 C    1.261    83 C    1.260   142 C    1.184
    83   6 C    3.898 --    82 C    1.260   101 N    1.257    84 C    1.186
    84   6 C    3.957 --    85 C    1.643    83 C    1.186   115 H    0.974
    85   6 C    3.955 --    84 C    1.643    86 C    1.179   116 H    0.974
    86   6 C    3.908 --    87 C    1.329   101 N    1.221    85 C    1.179
    87   6 C    3.935 --    86 C    1.329    96 C    1.321    88 C    1.021
    88   6 C    3.988 --    89 C    1.403    95 C    1.394    87 C    1.021
                            92 C    0.103
    89   6 C    3.987 --    90 C    1.412    88 C    1.403   117 H    0.972
                            93 C    0.104
    90   6 C    3.988 --    92 C    1.421    89 C    1.412    91 C    1.020
                            95 C    0.103
    91   6 C    3.996 --    90 C    1.020   118 H    0.984   120 H    0.981
                           119 H    0.971
    92   6 C    3.989 --    90 C    1.421    93 C    1.410   121 H    0.972
                            88 C    0.103
    93   6 C    3.988 --    95 C    1.422    92 C    1.410    94 C    1.020
                            89 C    0.104
    94   6 C    3.996 --    93 C    1.020   122 H    0.985   123 H    0.980
                           124 H    0.972
    95   6 C    3.987 --    93 C    1.422    88 C    1.394   125 H    0.972
                            90 C    0.103
    96   6 C    3.913 --    87 C    1.321   100 N    1.238    97 C    1.173
    97   6 C    3.958 --    98 C    1.655    96 C    1.173   126 H    0.973
    98   6 C    3.955 --    97 C    1.655    99 C    1.171   127 H    0.976
    99   6 C    3.918 --    70 C    1.361   100 N    1.230    98 C    1.171
   100   7 N    3.244 --    96 C    1.238    99 C    1.230    69 Cu   0.505
   101   7 N    3.249 --    83 C    1.257    86 C    1.221    69 Cu   0.503
   102   6 C    3.988 --   109 C    1.398   103 C    1.396    76 C    1.025
                           106 C    0.103
   103   6 C    3.986 --   104 C    1.418   102 C    1.396   128 H    0.972
                           107 C    0.103
   104   6 C    3.988 --   103 C    1.418   106 C    1.414   105 C    1.020
                           109 C    0.103
   105   6 C    3.996 --   104 C    1.020   130 H    0.984   129 H    0.982
                           131 H    0.971
   106   6 C    3.988 --   107 C    1.416   104 C    1.414   132 H    0.972
                           102 C    0.103
   107   6 C    3.988 --   106 C    1.416   109 C    1.416   108 C    1.020
                           103 C    0.103
   108   6 C    3.996 --   107 C    1.020   135 H    0.983   134 H    0.983
                           133 H    0.971
   109   6 C    3.987 --   107 C    1.416   102 C    1.398   136 H    0.972
                           104 C    0.103
   110   1 H    1.002 --    70 C    0.971
   111   1 H    0.998 --    72 C    0.976
   112   1 H    1.005 --    73 C    0.973
   113   1 H    1.005 --    78 C    0.973
   114   1 H    1.002 --    79 C    0.974
   115   1 H    1.002 --    84 C    0.974
   116   1 H    1.005 --    85 C    0.974
   117   1 H    1.002 --    89 C    0.972
   118   1 H    1.004 --    91 C    0.984
   119   1 H    1.006 --    91 C    0.971
   120   1 H    1.004 --    91 C    0.981
   121   1 H    1.000 --    92 C    0.972
   122   1 H    1.004 --    94 C    0.985
   123   1 H    1.005 --    94 C    0.980
   124   1 H    1.006 --    94 C    0.972
   125   1 H    1.003 --    95 C    0.972
   126   1 H    1.005 --    97 C    0.973
   127   1 H    0.998 --    98 C    0.976
   128   1 H    1.003 --   103 C    0.972
   129   1 H    1.004 --   105 C    0.982
   130   1 H    1.004 --   105 C    0.984
   131   1 H    1.006 --   105 C    0.971
   132   1 H    1.000 --   106 C    0.972
   133   1 H    1.006 --   108 C    0.971
   134   1 H    1.004 --   108 C    0.983
   135   1 H    1.004 --   108 C    0.983
   136   1 H    1.003 --   109 C    0.972
   137   6 C    3.926 --   138 C    2.376   141 C    1.329   140 C    0.191
   138   6 C    3.926 --   137 C    2.376   139 C    1.329   142 C    0.191
   139   6 C    3.936 --   140 C    2.457   138 C    1.329
   140   6 C    3.890 --   139 C    2.457    14 C    1.184   137 C    0.191
   141   6 C    3.936 --   142 C    2.457   137 C    1.329
   142   6 C    3.890 --   141 C    2.457    82 C    1.184   138 C    0.191
 ---------------------------------------------------------------------------

           -------------------------------------------------
          | TOTAL ENERGY             -228.484742281974 Eh   |
          | GRADIENT NORM               0.000317972955 Eh/α |
          | HOMO-LUMO GAP               0.000052103817 eV   |
           -------------------------------------------------

 * finished run on 2022/07/30 at 07:21:12.122
