   * xtb version 6.5.1 (b24c23e) compiled by 'conda@728c89f4b128' on 2022-07-12
          program call               : xtb Fe_DHP_C8_3.xyz --gfn 1 --opt -T 48

   ID    Z sym.   atoms
    1   26 Fe     1, 59, 133
    2    6 C      2-6, 8-11, 13-17, 19-24, 26-29, 31-36, 60-64, 66-69, 71-75,
                  77-82, 84-87, 89-94, 117-132, 134-138, 140-143, 145-149,
                  151-156, 158-161, 163-168
    3    7 N      7, 12, 18, 25, 30, 37, 65, 70, 76, 83, 88, 95, 139, 144,
                  150, 157, 162, 169
    4    1 H      38-58, 96-116, 170-189
########################################################################
[WARNING] Please study the warnings concerning your input carefully
-1- prog_main_parseArguments: Unknown option '-T' provided
########################################################################

          :  Hamiltonian                  GFN1-xTB          :
 * total energy  :  -322.1872059 Eh     change       -0.4088463E-08 Eh
 * total energy  :  -322.6664035 Eh     change       -0.4791976E+00 Eh
 * total energy  :  -322.8429030 Eh     change       -0.1764995E+00 Eh
 * total energy  :  -322.9324846 Eh     change       -0.8958159E-01 Eh
 * total energy  :  -322.9888800 Eh     change       -0.5639540E-01 Eh
 * total energy  :  -323.0296638 Eh     change       -0.4078383E-01 Eh
 * total energy  :  -323.0622780 Eh     change       -0.3261417E-01 Eh
 * total energy  :  -323.0910248 Eh     change       -0.2874681E-01 Eh
 * total energy  :  -323.1173121 Eh     change       -0.2628728E-01 Eh
 * total energy  :  -323.1418439 Eh     change       -0.2453182E-01 Eh
 * total energy  :  -323.4374303 Eh     change       -0.2960506E-04 Eh
 * total energy  :  -323.4373184 Eh     change        0.1118578E-03 Eh
 * total energy  :  -323.4374201 Eh     change       -0.1016941E-03 Eh
 * total energy  :  -323.4371998 Eh     change        0.2203353E-03 Eh
 * total energy  :  -323.4374070 Eh     change       -0.2072435E-03 Eh
 * total energy  :  -323.4373668 Eh     change        0.4020672E-04 Eh
 * total energy  :  -323.4374374 Eh     change       -0.7055198E-04 Eh
 * total energy  :  -323.4374361 Eh     change        0.1258968E-05 Eh
 * total energy  :  -323.4374400 Eh     change       -0.3853878E-05 Eh
   *** GEOMETRY OPTIMIZATION CONVERGED AFTER 135 ITERATIONS ***

 final structure:
================
189
 xtb: 6.5.1 (b24c23e)
Fe          22.76565604044518        0.25712516162928        0.14197666263692
C           19.37945460050968        0.14650505439116        0.10903423474110
C           20.06311632277744       -1.04762333152211        0.20927488658920
C           19.42113540817289       -2.32186442218372        0.32997596680724
C           20.40150184680584       -3.25498596697220        0.29457213428804
C           21.64142016998785       -2.54951564852432        0.13995901169487
N           21.42292502467928       -1.19769078987550        0.13187810198878
C           22.87494698581349       -3.16833811251686       -0.02744165895407
C           22.92745458447070       -4.64679793842448       -0.11148026914732
C           22.29270393677668       -5.31846417223651       -1.08617987598080
C           22.32307881349987       -6.81893673830646       -1.19559359908979
N           23.34172784533522       -7.39860919877485       -0.31929588350032
C           23.84617409958883       -6.70972147477796        0.74597422612740
C           23.70188686763935       -5.37687402067236        0.87802092589409
C           24.06478267543060       -2.45817900940317       -0.11936017838864
C           25.34367892245016       -3.06679263728174       -0.33627623502728
C           26.26468520918486       -2.07538013137784       -0.27331781224681
N           24.20297850194465       -1.09921923775061        0.02861276798897
C           25.54591770384503       -0.86412154919543       -0.02873886713209
C           26.17151506477368        0.36728464758547        0.19084364613218
C           25.46198126783667        1.55648336470327        0.38542896683060
C           26.09395817649385        2.81302734420948        0.64103847027048
C           25.10976977070667        3.74351121308084        0.66859696279044
C           23.87927933490242        3.05214644940071        0.42161643524218
N           24.10886419611872        1.70425038028257        0.28746212648922
C           22.64828508729520        3.68287971984066        0.29739534316600
C           22.60264134320007        5.16204083764972        0.37395704333512
C           21.90558416266434        5.79499333804364        1.33185328685451
C           21.83553184518257        7.29460782383796        1.43422291612580
N           22.82526798885554        7.93714404552085        0.56868124745660
C           23.39721566995612        7.27708495404047       -0.48036905229969
C           23.34704606672658        5.93659623892683       -0.60457909267014
C           21.46140542341790        2.98430951289186        0.10827894764187
C           20.18132524469301        3.60685947429834       -0.07308143498195
C           19.26444973430066        2.61178446925463       -0.12032678605143
C           19.98562221635382        1.38255037149089        0.01843932566278
N           21.33110579187959        1.62113403383316        0.11976032422962
H           18.29576136284961        0.11118077277399        0.09928172804289
H           18.35643682630566       -2.46395111839139        0.42852246576621
H           20.30650052612127       -4.32613379653884        0.37078431709932
H           21.71484872303043       -4.80664607789255       -1.84681407147872
H           22.54811417228269       -7.11940409387812       -2.22879310495948
H           21.33155137826366       -7.23909430414221       -0.94532803880319
H           23.31566720855746       -8.40464631517035       -0.24913248971203
H           24.42969022232747       -7.30662158560214        1.43952578851228
H           24.14453341063844       -4.84430188536595        1.70760568175058
H           25.50560810544526       -4.11754424240254       -0.51422147473732
H           27.33547134781798       -2.14236199283651       -0.38030767946834
H           27.15476731594725        2.94941088856770        0.77757781002077
H           25.19850793047386        4.80380868400777        0.84151797105939
H           21.34713395903599        5.24969069329525        2.08367581973305
H           22.02596531243566        7.61335180812139        2.46902158220686
H           20.82198187459206        7.64735502687522        1.16878159165049
H           22.73193255733526        8.93853062040845        0.49031952971877
H           23.95197031927730        7.90795259159715       -1.16743584667522
H           23.84183727353339        5.43010234243384       -1.42091805336063
H           20.01831184275897        4.66917824577600       -0.15729104684977
H           18.19476105652773        2.68380794158169       -0.23890307435198
Fe          59.81265905020048        0.16052387915880        0.14062069411056
C           63.19478189507973        0.30737897227046        0.17079050010925
C           62.49553718991561        1.44700669091856        0.51192433791861
C           63.11727069963809        2.67353240290696        0.91144723295891
C           62.12572781161791        3.58605466970451        1.04466338513084
C           60.89949780066701        2.91918022877652        0.71208127909595
N           61.13592361860656        1.59898407023028        0.43529375873946
C           59.66461792827879        3.55125087420935        0.62088645991982
C           59.59192600635640        5.01631743411483        0.82803350888131
C           60.26194735291932        5.87394349009196        0.04074423939858
C           60.21156943974196        7.36569836764885        0.23171261020062
N           59.14257352992967        7.75159539203099        1.15363190427236
C           58.59795426066593        6.85974004289627        2.03221876116935
C           58.75766470460552        5.52852125175068        1.90214927997416
C           58.48981567252324        2.86377088412846        0.34409735726758
C           57.21178886584809        3.49205312901174        0.18674362451378
C           56.30207952013019        2.49844088777378        0.04230458665831
N           58.36447488692350        1.49951537119981        0.24340796691716
C           57.02686440924703        1.26769404416516        0.10313662363840
C           56.41123653342851        0.01172225676734        0.12302100905062
C           57.13270655967776       -1.18570200180478        0.14164597134664
C           56.51680923513983       -2.47490283225407        0.18776600242329
C           57.51095508195897       -3.38491515105066        0.04813615141475
C           58.73166840253835       -2.64719357959127       -0.08935132346087
N           58.48695570321306       -1.29962250724067        0.01443132016117
C           59.96671647505110       -3.22868189779904       -0.34666506121980
C           60.02767293357236       -4.69440892682998       -0.55321777005217
C           60.75648318049073       -5.48858237669272        0.24837537648520
C           60.84445877678017       -6.97878867362005        0.05961372921502
N           59.83904364336395       -7.45887666732076       -0.88916978098098
C           59.23171707276884       -6.61885352283912       -1.77732556119257
C           59.26451424269676       -5.27882235020168       -1.64300139280547
C           61.14352430132557       -2.49153286855394       -0.41482197105688
C           62.42883220789552       -3.04920439334719       -0.72503322613089
C           63.33529469165970       -2.05500113562075       -0.57208401595305
C           62.60272047038754       -0.88767278115871       -0.18329496313075
N           61.26005056389354       -1.15654432259948       -0.13252898561313
H           64.27801832356910        0.35404804370708        0.18105619530080
H           64.17729448628465        2.80080555179649        1.06524681323668
H           62.20491037319206        4.61875547116867        1.34384894255288
H           60.88443956070447        5.52895775103713       -0.77651690963553
H           60.03138659038682        7.86530104084598       -0.73078646787504
H           61.18275991346604        7.73406720437666        0.61035528322697
H           59.14960200080778        8.72303985400141        1.42560402724323
H           57.97146081899187        7.30160563408145        2.80036914627643
H           58.28364445777778        4.83759489064057        2.58459846072251
H           57.04263771182209        4.55667068655316        0.18734432895549
H           55.23497943550755        2.57632923747090       -0.09083135629648
H           55.45865629744824       -2.64468130749780        0.30682546333075
H           57.43505746100743       -4.46020417632324        0.03906165418256
H           61.32950219063306       -5.08900053383720        1.07689546229064
H           60.68483403766676       -7.49261558584708        1.01836329953180
H           61.85425001094635       -7.25871349830436       -0.29273929907111
H           59.94146948775905       -8.42487172813561       -1.16119100780109
H           58.66515703615994       -7.11480082685696       -2.55888772919893
H           58.74248030749339       -4.63304799736863       -2.33455081737033
H           62.60254488975026       -4.07030798194959       -1.02402843589525
H           64.40503347704698       -2.08993695112764       -0.70605431112483
C           27.57434502788421        0.40977180793944        0.21657194881925
C           28.79852420644577        0.44077495291496        0.24294902802491
C           30.13994217604790        0.47303856623712        0.27487333808722
C           31.37040504137265        0.49855770498797        0.30682443489972
C           32.70675030504297        0.52865175741218        0.34621483920083
C           33.93704237535764        0.55603662500516        0.38652534772526
C           35.27744051372729        0.58815881499535        0.43839774364595
C           36.50104130836881        0.62119383495718        0.49149808646342
C           46.09068346763953        0.28320087209950        0.40841763205560
C           47.30951857456699        0.17523330377557        0.34811467731544
C           48.64693207581882        0.07898433283701        0.29036691416306
C           49.87532347428081        0.01070391968575        0.24444695295808
C           51.21130841126082       -0.03926877335426        0.20210896567349
C           52.44163749009504       -0.06346587735224        0.16991353356613
C           53.78388465838714       -0.06142532229518        0.14497229954698
C           55.00834599196771       -0.04151038742143        0.13006481255682
Fe          41.30582206912187        0.70064525085795        0.63626115731742
C           37.90140313149205        0.66189727066690        0.55162218123958
C           38.58095475462409        1.58523326529023       -0.25401835358131
C           37.92502007309541        2.56709252668495       -1.05837556558275
C           38.89647911120830        3.22233318599856       -1.74041901280727
C           40.14026225577543        2.61205083813843       -1.37554285526522
N           39.93178222494846        1.64491285102960       -0.42122845838978
C           41.35504235504758        2.87778618897506       -1.99374052957728
C           41.39796960718459        3.85188003927448       -3.10776594565723
C           40.67723631198689        3.67463879747866       -4.22781663576071
C           40.74561182687287        4.61796797078178       -5.39740432963069
N           41.41870833839824        5.86676181197029       -5.03836085269573
C           42.24567249640697        5.94807598031039       -3.95486704663640
C           42.25802866188359        5.01628569155222       -2.98237519850448
C           42.53731648183452        2.23460622808040       -1.64070826671660
C           43.76809098615698        2.36624796403804       -2.36100400583613
C           44.69441713540637        1.63915065982553       -1.68938667194449
N           42.70440465185336        1.40740890388434       -0.55983576293402
C           44.02941307572853        1.07798589205507       -0.55535835320229
C           44.69666846569282        0.41930855227841        0.48262601669622
C           44.03608209305177       -0.05247407369584        1.62440802454443
C           44.71227263667227       -0.56954281318993        2.77172690099867
C           43.75172888363056       -0.96975424335504        3.64097003370034
C           42.49145920428350       -0.72993856764422        3.00315340037421
N           42.68476360840130       -0.11604984546266        1.78853524922876
C           41.26803494730659       -1.17157638595163        3.49115853846052
C           41.23082975797106       -1.93945952580587        4.75633064457737
C           41.90104425359551       -3.09422187708961        4.90555749117177
C           41.88013507563486       -3.88886846309130        6.18309621733446
N           40.82976756216618       -3.42029895950963        7.08802641148649
C           40.28236156623650       -2.17568445863222        6.96544055335493
C           40.41943726089691       -1.43254393049313        5.85043967848196
C           40.06786429900573       -0.95664945287566        2.82055712671806
C           38.81724352874323       -1.53740281338045        3.20776105966818
C           37.88198209213245       -1.06134247664575        2.34987854924287
C           38.56150568248275       -0.17974074181253        1.45288283813411
N           39.90088383392459       -0.15934915550765        1.71733259561803
H           36.85949779481056        2.73070020025016       -1.07997098591317
H           38.78873990563998        4.04213721605782       -2.43184775157734
H           40.05934037746421        2.79629115748982       -4.37344293444186
H           41.27077081481206        4.13846547150824       -6.24404731922412
H           39.73179221203152        4.86218138948645       -5.74509650171990
H           41.61614979904646        6.47801783231742       -5.81638932513547
H           42.83702350416389        6.85648524132803       -3.90140420041708
H           42.87275812750284        5.13313170104427       -2.10134768814060
H           43.89497572439180        2.93474263997375       -3.26822391931152
H           45.73821043897232        1.49888184119820       -1.92032401397032
H           45.78350909612477       -0.60341429838931        2.88961665202251
H           43.87819376203858       -1.39112886182542        4.62491712324957
H           42.49870466137706       -3.51378738082944        4.10486067812898
H           42.86264020373518       -3.82560903304739        6.68590546345426
H           41.69759308230525       -4.95086163670601        5.96606625078626
H           40.85846092484210       -3.82360639091377        8.01228638954901
H           39.67286599821614       -1.86117663487858        7.80650235859811
H           39.94154110549508       -0.46787129263383        5.75667449208663
H           38.68341730180095       -2.22640119073852        4.02593711984967
H           36.82355550840285       -1.26538557511644        2.32540875125566

          :  Hamiltonian                  GFN1-xTB          :
         :: total energy            -323.437439976416 Eh    ::
         :: gradient norm              0.000233183598 Eh/a0 ::
         :: HOMO-LUMO gap              0.066493229099 eV    ::
         :: SCC energy              -328.768750815519 Eh    ::
         :: repulsion energy           5.496694325031 Eh    ::

    * Orbital Energies and Occupations

         #    Occupation            Energy/Eh            Energy/eV
      -------------------------------------------------------------
         1        2.0000           -0.7890111             -21.4701
       ...           ...                  ...                  ...
       288        1.9924           -0.3751941             -10.2096
       289        1.9914           -0.3750803             -10.2065
       290        1.9763           -0.3741092             -10.1800
       291        1.9762           -0.3741015             -10.1798
       292        1.9722           -0.3739548             -10.1758
       293        1.9675           -0.3738029             -10.1717
       294        1.9614           -0.3736366             -10.1672
       295        1.9603           -0.3736091             -10.1664
       296        1.9570           -0.3735327             -10.1643
       297        1.9557           -0.3735038             -10.1636
       298        1.9127           -0.3728382             -10.1454
       299        1.8445           -0.3722548             -10.1296
       300        1.5016           -0.3709529             -10.0941 (HOMO)
       301        0.3741           -0.3685093             -10.0276 (LUMO)
       302        0.3366           -0.3683872             -10.0243
       303        0.3346           -0.3683804             -10.0241
       304                         -0.3308874              -9.0039
       305                         -0.3232444              -8.7959
       306                         -0.3212988              -8.7430
       307                         -0.3179279              -8.6513
       308                         -0.3158563              -8.5949
       309                         -0.3157807              -8.5928
       310                         -0.3023936              -8.2285
       311                         -0.2924124              -7.9569
       ...                                ...                  ...
       647                          1.6119777              43.8641
      -------------------------------------------------------------
                  HL-Gap            0.0024436 Eh            0.0665 eV

Wiberg/Mayer (AO) data.
largest (>0.10) Wiberg bond orders for each atom

     #   Z sym  total        # sym  WBO       # sym  WBO       # sym  WBO
 ---------------------------------------------------------------------------
     1  26 Fe   3.109 --    37 N    0.664     7 N    0.664    18 N    0.660
                            25 N    0.660
     2   6 C    3.928 --     3 C    1.364    36 C    1.364    38 H    0.971
     3   6 C    3.928 --     2 C    1.364     7 N    1.210     4 C    1.173
     4   6 C    3.960 --     5 C    1.649     3 C    1.173    39 H    0.975
     5   6 C    3.963 --     4 C    1.649     6 C    1.175    40 H    0.973
     6   6 C    3.923 --     8 C    1.318     7 N    1.223     5 C    1.175
     7   7 N    3.380 --     6 C    1.223     3 C    1.210     1 Fe   0.664
     8   6 C    3.933 --    15 C    1.329     6 C    1.318     9 C    1.027
     9   6 C    3.982 --    10 C    1.749    14 C    1.108     8 C    1.027
    10   6 C    3.940 --     9 C    1.749    11 C    1.015    41 H    0.971
    11   6 C    3.956 --    10 C    1.015    42 H    0.973    43 H    0.964
                            12 N    0.947
    12   7 N    3.244 --    13 C    1.177    11 C    0.947    44 H    0.925
                            14 C    0.119
    13   6 C    3.944 --    14 C    1.667    12 N    1.177    45 H    0.970
    14   6 C    3.939 --    13 C    1.667     9 C    1.108    46 H    0.973
                            12 N    0.119
    15   6 C    3.917 --     8 C    1.329    18 N    1.204    16 C    1.180
    16   6 C    3.959 --    17 C    1.639    15 C    1.180    47 H    0.972
    17   6 C    3.961 --    16 C    1.639    19 C    1.187    48 H    0.974
    18   7 N    3.383 --    19 C    1.239    15 C    1.204     1 Fe   0.660
    19   6 C    3.905 --    20 C    1.259    18 N    1.239    17 C    1.187
    20   6 C    3.935 --    21 C    1.260    19 C    1.259   117 C    1.190
    21   6 C    3.905 --    20 C    1.260    25 N    1.239    22 C    1.187
    22   6 C    3.961 --    23 C    1.639    21 C    1.187    49 H    0.974
    23   6 C    3.959 --    22 C    1.639    24 C    1.180    50 H    0.972
    24   6 C    3.917 --    26 C    1.329    25 N    1.204    23 C    1.180
    25   7 N    3.383 --    21 C    1.239    24 C    1.204     1 Fe   0.660
    26   6 C    3.933 --    24 C    1.329    33 C    1.319    27 C    1.027
    27   6 C    3.982 --    28 C    1.749    32 C    1.108    26 C    1.027
    28   6 C    3.940 --    27 C    1.749    29 C    1.015    51 H    0.971
    29   6 C    3.956 --    28 C    1.015    52 H    0.972    53 H    0.964
                            30 N    0.947
    30   7 N    3.245 --    31 C    1.178    29 C    0.947    54 H    0.925
                            32 C    0.119
    31   6 C    3.944 --    32 C    1.666    30 N    1.178    55 H    0.970
    32   6 C    3.939 --    31 C    1.666    27 C    1.108    56 H    0.973
                            30 N    0.119
    33   6 C    3.923 --    26 C    1.319    37 N    1.222    34 C    1.174
    34   6 C    3.963 --    35 C    1.649    33 C    1.174    57 H    0.973
    35   6 C    3.960 --    34 C    1.649    36 C    1.173    58 H    0.975
    36   6 C    3.928 --     2 C    1.364    37 N    1.210    35 C    1.173
    37   7 N    3.380 --    33 C    1.222    36 C    1.210     1 Fe   0.664
    38   1 H    1.001 --     2 C    0.971
    39   1 H    0.998 --     4 C    0.975
    40   1 H    1.006 --     5 C    0.973
    41   1 H    1.003 --    10 C    0.971
    42   1 H    1.013 --    11 C    0.973
    43   1 H    1.002 --    11 C    0.964
    44   1 H    0.960 --    12 N    0.925
    45   1 H    1.001 --    13 C    0.970
    46   1 H    1.003 --    14 C    0.973
    47   1 H    1.005 --    16 C    0.972
    48   1 H    1.002 --    17 C    0.974
    49   1 H    1.002 --    22 C    0.974
    50   1 H    1.005 --    23 C    0.972
    51   1 H    1.003 --    28 C    0.971
    52   1 H    1.013 --    29 C    0.972
    53   1 H    1.002 --    29 C    0.964
    54   1 H    0.960 --    30 N    0.925
    55   1 H    1.001 --    31 C    0.970
    56   1 H    1.003 --    32 C    0.973
    57   1 H    1.006 --    34 C    0.973
    58   1 H    0.998 --    35 C    0.975
    59  26 Fe   3.120 --    95 N    0.666    65 N    0.666    76 N    0.662
                            83 N    0.661
    60   6 C    3.929 --    94 C    1.364    61 C    1.364    96 H    0.971
    61   6 C    3.928 --    60 C    1.364    65 N    1.210    62 C    1.173
    62   6 C    3.959 --    63 C    1.649    61 C    1.173    97 H    0.975
    63   6 C    3.963 --    62 C    1.649    64 C    1.175    98 H    0.973
    64   6 C    3.923 --    66 C    1.319    65 N    1.222    63 C    1.175
    65   7 N    3.381 --    64 C    1.222    61 C    1.210    59 Fe   0.666
    66   6 C    3.934 --    73 C    1.328    64 C    1.319    67 C    1.028
    67   6 C    3.982 --    68 C    1.748    72 C    1.108    66 C    1.028
    68   6 C    3.939 --    67 C    1.748    69 C    1.015    99 H    0.971
    69   6 C    3.956 --    68 C    1.015   100 H    0.973   101 H    0.964
                            70 N    0.947
    70   7 N    3.244 --    71 C    1.177    69 C    0.947   102 H    0.925
                            72 C    0.119
    71   6 C    3.944 --    72 C    1.667    70 N    1.177   103 H    0.970
    72   6 C    3.938 --    71 C    1.667    67 C    1.108   104 H    0.973
                            70 N    0.119
    73   6 C    3.917 --    66 C    1.328    76 N    1.204    74 C    1.180
    74   6 C    3.959 --    75 C    1.639    73 C    1.180   105 H    0.972
    75   6 C    3.961 --    74 C    1.639    77 C    1.188   106 H    0.974
    76   7 N    3.384 --    77 C    1.237    73 C    1.204    59 Fe   0.662
    77   6 C    3.905 --    78 C    1.259    76 N    1.237    75 C    1.188
    78   6 C    3.936 --    79 C    1.261    77 C    1.259   132 C    1.189
    79   6 C    3.905 --    78 C    1.261    83 N    1.237    80 C    1.187
    80   6 C    3.961 --    81 C    1.639    79 C    1.187   107 H    0.974
    81   6 C    3.959 --    80 C    1.639    82 C    1.180   108 H    0.972
    82   6 C    3.917 --    84 C    1.328    83 N    1.205    81 C    1.180
    83   7 N    3.384 --    79 C    1.237    82 C    1.205    59 Fe   0.661
    84   6 C    3.934 --    82 C    1.328    91 C    1.319    85 C    1.028
    85   6 C    3.982 --    86 C    1.748    90 C    1.108    84 C    1.028
    86   6 C    3.939 --    85 C    1.748    87 C    1.015   109 H    0.971
    87   6 C    3.956 --    86 C    1.015   110 H    0.972   111 H    0.964
                            88 N    0.947
    88   7 N    3.244 --    89 C    1.178    87 C    0.947   112 H    0.925
                            90 C    0.119
    89   6 C    3.944 --    90 C    1.666    88 N    1.178   113 H    0.970
    90   6 C    3.937 --    89 C    1.666    85 C    1.108   114 H    0.973
                            88 N    0.119
    91   6 C    3.923 --    84 C    1.319    95 N    1.221    92 C    1.174
    92   6 C    3.963 --    93 C    1.649    91 C    1.174   115 H    0.973
    93   6 C    3.959 --    92 C    1.649    94 C    1.173   116 H    0.975
    94   6 C    3.928 --    60 C    1.364    95 N    1.209    93 C    1.173
    95   7 N    3.381 --    91 C    1.221    94 C    1.209    59 Fe   0.666
    96   1 H    1.001 --    60 C    0.971
    97   1 H    0.998 --    62 C    0.975
    98   1 H    1.006 --    63 C    0.973
    99   1 H    1.003 --    68 C    0.971
   100   1 H    1.013 --    69 C    0.973
   101   1 H    1.001 --    69 C    0.964
   102   1 H    0.960 --    70 N    0.925
   103   1 H    1.001 --    71 C    0.970
   104   1 H    1.003 --    72 C    0.973
   105   1 H    1.005 --    74 C    0.972
   106   1 H    1.002 --    75 C    0.974
   107   1 H    1.002 --    80 C    0.974
   108   1 H    1.005 --    81 C    0.972
   109   1 H    1.003 --    86 C    0.971
   110   1 H    1.013 --    87 C    0.972
   111   1 H    1.001 --    87 C    0.964
   112   1 H    0.960 --    88 N    0.925
   113   1 H    1.001 --    89 C    0.970
   114   1 H    1.003 --    90 C    0.973
   115   1 H    1.006 --    92 C    0.973
   116   1 H    0.998 --    93 C    0.975
   117   6 C    3.871 --   118 C    2.435    20 C    1.190   120 C    0.185
   118   6 C    3.933 --   117 C    2.435   119 C    1.347
   119   6 C    3.887 --   120 C    2.330   118 C    1.347   122 C    0.181
   120   6 C    3.922 --   119 C    2.330   121 C    1.373   117 C    0.185
   121   6 C    3.920 --   122 C    2.328   120 C    1.373   124 C    0.185
   122   6 C    3.889 --   121 C    2.328   123 C    1.349   119 C    0.181
   123   6 C    3.928 --   124 C    2.430   122 C    1.349
   124   6 C    3.872 --   123 C    2.430   134 C    1.196   121 C    0.185
   125   6 C    3.872 --   126 C    2.432   152 C    1.195   128 C    0.185
   126   6 C    3.928 --   125 C    2.432   127 C    1.347
   127   6 C    3.889 --   128 C    2.330   126 C    1.347   130 C    0.181
   128   6 C    3.920 --   127 C    2.330   129 C    1.371   125 C    0.185
   129   6 C    3.923 --   130 C    2.332   128 C    1.371   132 C    0.186
   130   6 C    3.888 --   129 C    2.332   131 C    1.345   127 C    0.181
   131   6 C    3.934 --   132 C    2.437   130 C    1.345
   132   6 C    3.871 --   131 C    2.437    78 C    1.189   129 C    0.186
   133  26 Fe   3.092 --   169 N    0.656   150 N    0.655   157 N    0.652
                           139 N    0.652
   134   6 C    3.920 --   168 C    1.261   135 C    1.247   124 C    1.196
   135   6 C    3.907 --   139 N    1.247   134 C    1.247   136 C    1.191
   136   6 C    3.960 --   137 C    1.634   135 C    1.191   170 H    0.974
   137   6 C    3.959 --   136 C    1.634   138 C    1.181   171 H    0.973
   138   6 C    3.918 --   140 C    1.329   139 N    1.200   137 C    1.181
   139   7 N    3.372 --   135 C    1.247   138 C    1.200   133 Fe   0.652
   140   6 C    3.926 --   138 C    1.329   147 C    1.313   141 C    1.030
   141   6 C    3.982 --   142 C    1.744   146 C    1.108   140 C    1.030
   142   6 C    3.941 --   141 C    1.744   143 C    1.016   172 H    0.971
   143   6 C    3.956 --   142 C    1.016   174 H    0.971   173 H    0.964
                           144 N    0.947
   144   7 N    3.247 --   145 C    1.177   143 C    0.947   175 H    0.925
                           146 C    0.120
   145   6 C    3.946 --   146 C    1.669   144 N    1.177   176 H    0.970
   146   6 C    3.942 --   145 C    1.669   141 C    1.108   177 H    0.973
                           144 N    0.120
   147   6 C    3.914 --   140 C    1.313   150 N    1.213   148 C    1.184
   148   6 C    3.961 --   149 C    1.635   147 C    1.184   178 H    0.973
   149   6 C    3.959 --   148 C    1.635   151 C    1.189   179 H    0.974
   150   7 N    3.373 --   151 C    1.235   147 C    1.213   133 Fe   0.655
   151   6 C    3.906 --   152 C    1.261   150 N    1.235   149 C    1.189
   152   6 C    3.920 --   151 C    1.261   153 C    1.249   125 C    1.195
   153   6 C    3.908 --   152 C    1.249   157 N    1.246   154 C    1.192
   154   6 C    3.960 --   155 C    1.634   153 C    1.192   180 H    0.974
   155   6 C    3.959 --   154 C    1.634   156 C    1.182   181 H    0.973
   156   6 C    3.918 --   158 C    1.328   157 N    1.201   155 C    1.182
   157   7 N    3.372 --   153 C    1.246   156 C    1.201   133 Fe   0.652
   158   6 C    3.926 --   156 C    1.328   165 C    1.314   159 C    1.031
   159   6 C    3.982 --   160 C    1.746   164 C    1.107   158 C    1.031
   160   6 C    3.940 --   159 C    1.746   161 C    1.016   182 H    0.971
   161   6 C    3.956 --   160 C    1.016   184 H    0.973   183 H    0.963
                           162 N    0.947
   162   7 N    3.246 --   163 C    1.177   161 C    0.947   185 H    0.925
                           164 C    0.120
   163   6 C    3.945 --   164 C    1.668   162 N    1.177   186 H    0.970
   164   6 C    3.941 --   163 C    1.668   159 C    1.107   187 H    0.974
                           162 N    0.120
   165   6 C    3.913 --   158 C    1.314   169 N    1.212   166 C    1.183
   166   6 C    3.961 --   167 C    1.636   165 C    1.183   188 H    0.973
   167   6 C    3.959 --   166 C    1.636   168 C    1.188   189 H    0.974
   168   6 C    3.906 --   134 C    1.261   169 N    1.234   167 C    1.188
   169   7 N    3.373 --   168 C    1.234   165 C    1.212   133 Fe   0.656
   170   1 H    1.002 --   136 C    0.974
   171   1 H    1.006 --   137 C    0.973
   172   1 H    1.003 --   142 C    0.971
   173   1 H    1.003 --   143 C    0.964
   174   1 H    1.012 --   143 C    0.971
   175   1 H    0.960 --   144 N    0.925
   176   1 H    1.001 --   145 C    0.970
   177   1 H    1.003 --   146 C    0.973
   178   1 H    1.005 --   148 C    0.973
   179   1 H    1.002 --   149 C    0.974
   180   1 H    1.002 --   154 C    0.974
   181   1 H    1.006 --   155 C    0.973
   182   1 H    1.004 --   160 C    0.971
   183   1 H    1.002 --   161 C    0.963
   184   1 H    1.013 --   161 C    0.973
   185   1 H    0.960 --   162 N    0.925
   186   1 H    1.001 --   163 C    0.970
   187   1 H    1.003 --   164 C    0.974
   188   1 H    1.005 --   166 C    0.973
   189   1 H    1.002 --   167 C    0.974
 ---------------------------------------------------------------------------

           -------------------------------------------------
          | TOTAL ENERGY             -323.437439976416 Eh   |
          | GRADIENT NORM               0.000233183598 Eh/α |
          | HOMO-LUMO GAP               0.066493229099 eV   |
           -------------------------------------------------

 * finished run on 2022/07/29 at 20:55:45.549
