   * xtb version 6.5.1 (b24c23e) compiled by 'conda@728c89f4b128' on 2022-07-12
          program call               : xtb Zn_Ph2Me_C2_2.xyz --gfn 1 --opt -T 48

   ID    Z sym.   atoms
    1   30 Zn     1, 69
    2    6 C      2-6, 8-11, 13-31, 34-41, 70-74, 76-79, 81-99, 102-109, 137,
                  138
    3    7 N      7, 12, 32, 33, 75, 80, 100, 101
    4    1 H      42-68, 110-136
########################################################################
[WARNING] Please study the warnings concerning your input carefully
-1- prog_main_parseArguments: Unknown option '-T' provided
########################################################################

          :  Hamiltonian                  GFN1-xTB          :
 * total energy  :  -212.3412381 Eh     change       -0.2018226E-09 Eh
 * total energy  :  -212.5736692 Eh     change       -0.2324311E+00 Eh
 * total energy  :  -212.6462482 Eh     change       -0.7257900E-01 Eh
 * total energy  :  -212.6705981 Eh     change       -0.2434989E-01 Eh
 * total energy  :  -212.6792613 Eh     change       -0.8663247E-02 Eh
 * total energy  :  -212.6847446 Eh     change       -0.5483309E-02 Eh
 * total energy  :  -212.6881997 Eh     change       -0.3455088E-02 Eh
 * total energy  :  -212.6905323 Eh     change       -0.2332586E-02 Eh
 * total energy  :  -212.6920706 Eh     change       -0.1538311E-02 Eh
 * total energy  :  -212.6931811 Eh     change       -0.1110473E-02 Eh
 * total energy  :  -212.6986535 Eh     change       -0.9370404E-05 Eh
 * total energy  :  -212.6986638 Eh     change       -0.1027823E-04 Eh
 * total energy  :  -212.6986735 Eh     change       -0.9652294E-05 Eh
 * total energy  :  -212.6986836 Eh     change       -0.1019502E-04 Eh
 * total energy  :  -212.6986966 Eh     change       -0.1299173E-04 Eh
 * total energy  :  -212.6987143 Eh     change       -0.1767022E-04 Eh
 * total energy  :  -212.6987356 Eh     change       -0.2131082E-04 Eh
 * total energy  :  -212.6987551 Eh     change       -0.1949388E-04 Eh
 * total energy  :  -212.6987596 Eh     change       -0.4535857E-05 Eh
   *** GEOMETRY OPTIMIZATION CONVERGED AFTER 68 ITERATIONS ***

 final structure:
================
138
 xtb: 6.5.1 (b24c23e)
Zn          16.75146780778887        0.03016070356192        0.01317097258340
C           13.34795053552596        0.14689759039412       -0.16036365177821
C           13.98820022955850        1.31806888912526        0.22728430413186
C           13.32598654272545        2.54252872990082        0.58119727081431
C           14.29155077743812        3.43189026625709        0.92333781144156
C           15.55743086512402        2.76386813673709        0.77431020214635
N           15.33728075426331        1.48380337858588        0.35565465679718
C           16.80974006843201        3.32665260842149        1.04611078193930
C           18.04013070121445        2.66954231800799        0.93647783256006
C           19.32468052908062        3.27108925884452        1.16614457713754
C           20.26191467762104        2.32191735173405        0.91459778484692
N           18.22218038790628        1.36945790089291        0.54768122700321
C           19.56211867071282        1.13273199999456        0.52497426992962
C           20.18116540626375       -0.07065447697719        0.13705339971850
C           19.52061822679728       -1.24282451032736       -0.27649592667118
C           20.17702461119523       -2.45644634340241       -0.66571375787506
C           19.20555823261300       -3.35314402210024       -0.97410777296993
C           17.94341092628277       -2.69694940939148       -0.77142934443989
C           16.68806860329901       -3.27467020910676       -0.99228461262736
C           16.66269313451005       -4.70107582022265       -1.40535027266188
C           16.13687684402904       -5.06955247978514       -2.64170468063400
C           16.11370660425122       -6.40572570415571       -3.03139421840643
C           15.53132216116800       -6.78935848713956       -4.36523546318882
C           16.61724268689676       -7.37532233058807       -2.17165227643410
C           17.14487087134904       -7.02342517391290       -0.93132878224172
C           17.69925048274695       -8.08522488340461       -0.01994015890666
C           17.16702392285804       -5.68603054192596       -0.55527439295638
C           15.45629364669333       -2.62361140207530       -0.85773657518801
C           14.16518823663349       -3.22667492242256       -1.05856757072494
C           13.23424705781763       -2.26574931591557       -0.83432100441525
C           13.94306583420064       -1.06756989762006       -0.48112376460056
N           15.28509307681339       -1.31795595636848       -0.49893365704321
N           18.17276711540457       -1.41308687154592       -0.35552648226473
C           16.83650164032010        4.74983605687891        1.47145587883039
C           16.39168332279922        5.74662519196506        0.60379918480339
C           16.42118052831733        7.08288232749032        0.98704847040463
C           15.96948941437219        8.15782018662685        0.03533742899193
C           16.89558738712470        7.41921769045385        2.25157521529821
C           17.34020191641569        6.43599010559222        3.13022131578136
C           17.82803966659674        6.81008462279799        4.50408399576411
C           17.31027269555601        5.10295982624225        2.73399175578803
H           12.26369789908811        0.18076093227020       -0.20551187875327
H           12.25714435692931        2.68929580435092        0.57211336387562
H           14.16306851876315        4.44851234171755        1.25932811692169
H           19.48737846698492        4.29366002529746        1.46670524343039
H           21.33450551461618        2.41583957381160        0.97598733427749
H           21.24561754571823       -2.59868860189672       -0.69687052801789
H           19.33084179989676       -4.36647174528002       -1.32042726389674
H           15.75923876139820       -4.30410624959678       -3.31092829667455
H           15.83820086620945       -7.79544117171092       -4.65095703329299
H           14.44042029593501       -6.76418136879129       -4.31625312784520
H           15.84960922984624       -6.09033144844236       -5.13959299878384
H           16.60059853808580       -8.41890352965620       -2.46903082896426
H           17.83507359829154       -7.70055289046751        0.99074158207443
H           17.03149893274007       -8.94690624650940        0.01785783326422
H           18.66834963638340       -8.42607486603712       -0.39094725155284
H           17.56361056809373       -5.40048255171997        0.41298228941790
H           13.99704863327146       -4.25755605742823       -1.32660235747005
H           12.16029968424098       -2.35153641328187       -0.89195756222513
H           16.03660863556058        5.47304579644956       -0.38386210729278
H           15.49867319025930        8.98036128539864        0.57448617199030
H           15.26157495344303        7.76114678615321       -0.69256779358115
H           16.82909534604517        8.55708840048633       -0.50799601764359
H           16.91966471748915        8.46079038055880        2.55542497666960
H           16.98761937633723        6.83825885204337        5.20154428719826
H           18.29371802337169        7.79592056906483        4.49522973371364
H           18.55039931156962        6.08131703227890        4.87223547956856
H           17.64389403658481        4.32710181315903        3.41451214561636
Zn          27.64880830768855       -0.02110030496051       -0.02524436929691
C           31.05232885556220        0.11286450681836       -0.18574722595248
C           30.41202557880426       -0.58546470864559       -1.20269286870594
C           31.07417532834233       -1.26629311865724       -2.28024249570040
C           30.10855804856307       -1.84240485321248       -3.03920078885148
C           28.84271204237182       -1.51323277506222       -2.43903926689917
N           29.06293060148764       -0.75479955759159       -1.32612164255743
C           27.59036866126367       -1.93087707817864       -2.90389275706949
C           26.36000953794731       -1.64260078117942       -2.30324043132517
C           25.07542543651804       -2.03053242670337       -2.81707260671193
C           24.13824184550144       -1.52470144705552       -1.97538997177537
N           26.17802721303370       -0.90724171306875       -1.16277718752387
C           24.83809939478406       -0.81945445426530       -0.94170315092205
C           24.21911955554148       -0.11184077150403        0.10614699382967
C           24.87972950582165        0.61162945589173        1.11684602141359
C           24.22337790507500        1.32337439376777        2.17413319409867
C           25.19488521327703        1.86919398047578        2.94948741817372
C           26.45700691614590        1.49173576069905        2.37567406431156
C           27.71238045593190        1.86466169726971        2.86902996886365
C           27.73787018313835        2.65841802351594        4.12409072458563
C           28.26383231401111        3.94842051883994        4.13389641978565
C           28.28709093737239        4.69460518513301        5.30881304233698
C           28.86937229258094        6.08255757151553        5.30597748778995
C           27.78355583963395        4.13873518964845        6.47941084152091
C           27.25574301710304        2.84955059229626        6.48662197942966
C           26.70121348129396        2.26981123545817        7.76011656036967
C           27.23346177351650        2.11614196746380        5.30672665790821
C           28.94412401621970        1.55414118777326        2.28111375585822
C           30.23526922641483        1.91478407411718        2.80442272122277
C           31.16615825424873        1.43182168536180        1.94389260087742
C           30.45726808763249        0.75910055463139        0.89140851079845
N           29.11525127576787        0.84601496619179        1.12696552142840
N           26.22759002683392        0.73484848949170        1.25836746084496
C           27.56354562137547       -2.73552822350017       -4.15245325090898
C           28.00836769028793       -2.17960697828359       -5.35135572009074
C           27.97886402516465       -2.91964180996533       -6.52813552564478
C           28.43058753013505       -2.30473772456759       -7.82548244743218
C           27.50443407395575       -4.22780520769608       -6.49921459547048
C           27.05980012567234       -4.79804832803131       -5.31028171813340
C           26.57193494993706       -6.22173507749855       -5.28718168992473
C           27.08974420275625       -4.04644690632279       -4.14021271376755
H           32.13658488334620        0.14671172004490       -0.23083806977548
H           32.14301277360278       -1.29850646633015       -2.42375209432449
H           30.23698246063123       -2.44811811141467       -3.92211433382230
H           24.91267581396650       -2.60384624883713       -3.71556148643840
H           23.06564639029138       -1.60976216715006       -2.04848338328323
H           23.15478948505286        1.39297151835259        2.30208189732483
H           25.06963212746705        2.48399174578689        3.82630163673464
H           28.64153912776583        4.37810739734340        3.21242961685819
H           28.56254890524330        6.63694749270056        6.19283647064123
H           29.96026891880000        6.02869775711725        5.29522737187292
H           28.55081632983687        6.63170872407180        4.41911367636065
H           27.80060967694590        4.71467330283810        7.39905926927715
H           26.56527400477842        1.19201849836231        7.67197101598042
H           27.36888806102662        2.47329709246547        8.59834065291180
H           25.73213370873158        2.72113184144081        7.98410367322978
H           26.83640510025507        1.10683873430332        5.30186770810634
H           30.40348781923518        2.45917688765506        3.71993795360990
H           32.24011421258415        1.51096710283016        2.01023012265792
H           28.36346731603288       -1.15483594842516       -5.36348693159635
H           28.90141226560762       -3.05152665956503       -8.46544587578721
H           29.13850697196093       -1.49519690605845       -7.64706545362579
H           27.57100016851006       -1.89399289897831       -8.36022220943246
H           27.48034518247415       -4.80955634179319       -7.41505476413970
H           27.41233997817675       -6.89948930148777       -5.12008978998415
H           26.10626296931149       -6.48763255524963       -6.23652591278086
H           25.84956259689364       -6.37246659904559       -4.48474789414711
H           26.75612052089250       -4.48412140862233       -3.20559897315130
C           21.59219433851608       -0.09671284721919        0.14339446932982
C           22.80809127249523       -0.11063096374004        0.13296363070244

          :  Hamiltonian                  GFN1-xTB          :
         :: total energy            -212.698759649537 Eh    ::
         :: gradient norm              0.000286509376 Eh/a0 ::
         :: HOMO-LUMO gap              1.138139817051 eV    ::
         :: SCC energy              -216.095459713379 Eh    ::
         :: repulsion energy           3.515670539540 Eh    ::

    * Orbital Energies and Occupations

         #    Occupation            Energy/Eh            Energy/eV
      -------------------------------------------------------------
         1        2.0000           -0.7537143             -20.5096
       ...           ...                  ...                  ...
       185        2.0000           -0.4226937             -11.5021
       186        2.0000           -0.4160004             -11.3199
       187        2.0000           -0.4159920             -11.3197
       188        2.0000           -0.4151706             -11.2974
       189        2.0000           -0.4149334             -11.2909
       190        2.0000           -0.4148989             -11.2900
       191        2.0000           -0.4148248             -11.2880
       192        2.0000           -0.4148180             -11.2878
       193        2.0000           -0.4137228             -11.2580
       194        2.0000           -0.3874781             -10.5438
       195        2.0000           -0.3874729             -10.5437
       196        2.0000           -0.3827734             -10.4158
       197        2.0000           -0.3707632             -10.0890 (HOMO)
       198                         -0.3289373              -8.9508 (LUMO)
       199                         -0.3199016              -8.7050
       200                         -0.3198975              -8.7049
       201                         -0.3149490              -8.5702
       202                         -0.2880645              -7.8386
       203                         -0.2810521              -7.6478
       204                         -0.2539664              -6.9108
       205                         -0.2539551              -6.9105
       206                         -0.2536557              -6.9023
       207                         -0.2536266              -6.9015
       208                         -0.2536056              -6.9010
       ...                                ...                  ...
       444                          1.3501376              36.7391
      -------------------------------------------------------------
                  HL-Gap            0.0418259 Eh            1.1381 eV

Wiberg/Mayer (AO) data.
largest (>0.10) Wiberg bond orders for each atom

     #   Z sym  total        # sym  WBO       # sym  WBO       # sym  WBO
 ---------------------------------------------------------------------------
     1  30 Zn   2.000 --     7 N    0.461    32 N    0.461    33 N    0.457
                            12 N    0.457
     2   6 C    3.929 --     3 C    1.357    31 C    1.357    42 H    0.972
     3   6 C    3.923 --     2 C    1.357     7 N    1.234     4 C    1.171
     4   6 C    3.960 --     5 C    1.658     3 C    1.171    43 H    0.976
     5   6 C    3.963 --     4 C    1.658     6 C    1.172    44 H    0.974
     6   6 C    3.919 --     8 C    1.317     7 N    1.242     5 C    1.172
     7   7 N    3.295 --     6 C    1.242     3 C    1.234     1 Zn   0.461
     8   6 C    3.934 --     9 C    1.322     6 C    1.317    34 C    1.024
     9   6 C    3.914 --     8 C    1.322    12 N    1.227    10 C    1.179
    10   6 C    3.961 --    11 C    1.646     9 C    1.179    45 H    0.973
    11   6 C    3.963 --    10 C    1.646    13 C    1.185    46 H    0.972
    12   7 N    3.298 --    13 C    1.259     9 C    1.227     1 Zn   0.457
    13   6 C    3.910 --    14 C    1.263    12 N    1.259    11 C    1.185
    14   6 C    3.939 --    15 C    1.264    13 C    1.263   137 C    1.168
    15   6 C    3.910 --    14 C    1.264    33 N    1.258    16 C    1.186
    16   6 C    3.963 --    17 C    1.646    15 C    1.186    47 H    0.972
    17   6 C    3.961 --    16 C    1.646    18 C    1.179    48 H    0.973
    18   6 C    3.914 --    19 C    1.321    33 N    1.228    17 C    1.179
    19   6 C    3.934 --    18 C    1.321    28 C    1.317    20 C    1.026
    20   6 C    3.988 --    21 C    1.403    27 C    1.390    19 C    1.026
                            24 C    0.103
    21   6 C    3.986 --    22 C    1.411    20 C    1.403    49 H    0.972
                            25 C    0.104
    22   6 C    3.988 --    24 C    1.422    21 C    1.411    23 C    1.019
                            27 C    0.103
    23   6 C    3.996 --    22 C    1.019    50 H    0.985    52 H    0.980
                            51 H    0.972
    24   6 C    3.988 --    22 C    1.422    25 C    1.408    53 H    0.972
                            20 C    0.103
    25   6 C    3.988 --    27 C    1.424    24 C    1.408    26 C    1.019
                            21 C    0.104
    26   6 C    3.996 --    25 C    1.019    54 H    0.985    55 H    0.980
                            56 H    0.972
    27   6 C    3.986 --    25 C    1.424    20 C    1.390    57 H    0.971
                            22 C    0.103
    28   6 C    3.919 --    19 C    1.317    32 N    1.242    29 C    1.172
    29   6 C    3.963 --    30 C    1.658    28 C    1.172    58 H    0.973
    30   6 C    3.960 --    29 C    1.658    31 C    1.171    59 H    0.976
    31   6 C    3.923 --     2 C    1.357    32 N    1.234    30 C    1.171
    32   7 N    3.294 --    28 C    1.242    31 C    1.234     1 Zn   0.461
    33   7 N    3.298 --    15 C    1.258    18 C    1.228     1 Zn   0.457
    34   6 C    3.988 --    41 C    1.398    35 C    1.396     8 C    1.024
                            38 C    0.103
    35   6 C    3.986 --    36 C    1.418    34 C    1.396    60 H    0.972
                            39 C    0.103
    36   6 C    3.988 --    35 C    1.418    38 C    1.414    37 C    1.019
                            41 C    0.103
    37   6 C    3.996 --    36 C    1.019    62 H    0.984    61 H    0.982
                            63 H    0.971
    38   6 C    3.988 --    39 C    1.416    36 C    1.414    64 H    0.972
                            34 C    0.103
    39   6 C    3.988 --    41 C    1.417    38 C    1.416    40 C    1.019
                            35 C    0.103
    40   6 C    3.996 --    39 C    1.019    67 H    0.983    66 H    0.982
                            65 H    0.971
    41   6 C    3.987 --    39 C    1.417    34 C    1.398    68 H    0.972
                            36 C    0.103
    42   1 H    1.002 --     2 C    0.972
    43   1 H    0.998 --     4 C    0.976
    44   1 H    1.005 --     5 C    0.974
    45   1 H    1.005 --    10 C    0.973
    46   1 H    1.004 --    11 C    0.972
    47   1 H    1.004 --    16 C    0.972
    48   1 H    1.005 --    17 C    0.973
    49   1 H    1.003 --    21 C    0.972
    50   1 H    1.004 --    23 C    0.985
    51   1 H    1.006 --    23 C    0.972
    52   1 H    1.005 --    23 C    0.980
    53   1 H    1.000 --    24 C    0.972
    54   1 H    1.004 --    26 C    0.985
    55   1 H    1.005 --    26 C    0.980
    56   1 H    1.006 --    26 C    0.972
    57   1 H    1.004 --    27 C    0.971
    58   1 H    1.006 --    29 C    0.973
    59   1 H    0.998 --    30 C    0.976
    60   1 H    1.003 --    35 C    0.972
    61   1 H    1.005 --    37 C    0.982
    62   1 H    1.004 --    37 C    0.984
    63   1 H    1.006 --    37 C    0.971
    64   1 H    1.000 --    38 C    0.972
    65   1 H    1.006 --    40 C    0.971
    66   1 H    1.004 --    40 C    0.982
    67   1 H    1.004 --    40 C    0.983
    68   1 H    1.003 --    41 C    0.972
    69  30 Zn   2.000 --    75 N    0.461   100 N    0.461   101 N    0.457
                            80 N    0.457
    70   6 C    3.929 --    71 C    1.357    99 C    1.357   110 H    0.972
    71   6 C    3.923 --    70 C    1.357    75 N    1.234    72 C    1.171
    72   6 C    3.960 --    73 C    1.658    71 C    1.171   111 H    0.976
    73   6 C    3.963 --    72 C    1.658    74 C    1.172   112 H    0.974
    74   6 C    3.919 --    76 C    1.317    75 N    1.242    73 C    1.172
    75   7 N    3.295 --    74 C    1.242    71 C    1.234    69 Zn   0.461
    76   6 C    3.934 --    77 C    1.322    74 C    1.317   102 C    1.024
    77   6 C    3.914 --    76 C    1.322    80 N    1.227    78 C    1.179
    78   6 C    3.961 --    79 C    1.646    77 C    1.179   113 H    0.973
    79   6 C    3.963 --    78 C    1.646    81 C    1.185   114 H    0.972
    80   7 N    3.298 --    81 C    1.259    77 C    1.227    69 Zn   0.457
    81   6 C    3.910 --    82 C    1.263    80 N    1.259    79 C    1.185
    82   6 C    3.939 --    83 C    1.264    81 C    1.263   138 C    1.168
    83   6 C    3.910 --    82 C    1.264   101 N    1.258    84 C    1.186
    84   6 C    3.963 --    85 C    1.646    83 C    1.186   115 H    0.972
    85   6 C    3.961 --    84 C    1.646    86 C    1.179   116 H    0.973
    86   6 C    3.914 --    87 C    1.321   101 N    1.228    85 C    1.179
    87   6 C    3.934 --    86 C    1.321    96 C    1.317    88 C    1.026
    88   6 C    3.988 --    89 C    1.403    95 C    1.390    87 C    1.026
                            92 C    0.103
    89   6 C    3.986 --    90 C    1.411    88 C    1.403   117 H    0.972
                            93 C    0.104
    90   6 C    3.988 --    92 C    1.422    89 C    1.411    91 C    1.019
                            95 C    0.103
    91   6 C    3.996 --    90 C    1.019   118 H    0.985   120 H    0.980
                           119 H    0.972
    92   6 C    3.988 --    90 C    1.422    93 C    1.408   121 H    0.972
                            88 C    0.103
    93   6 C    3.988 --    95 C    1.424    92 C    1.408    94 C    1.019
                            89 C    0.104
    94   6 C    3.996 --    93 C    1.019   122 H    0.985   123 H    0.980
                           124 H    0.972
    95   6 C    3.986 --    93 C    1.424    88 C    1.390   125 H    0.971
                            90 C    0.103
    96   6 C    3.919 --    87 C    1.317   100 N    1.242    97 C    1.172
    97   6 C    3.963 --    98 C    1.658    96 C    1.172   126 H    0.973
    98   6 C    3.960 --    97 C    1.658    99 C    1.171   127 H    0.976
    99   6 C    3.923 --    70 C    1.357   100 N    1.234    98 C    1.171
   100   7 N    3.294 --    96 C    1.242    99 C    1.234    69 Zn   0.461
   101   7 N    3.298 --    83 C    1.258    86 C    1.228    69 Zn   0.457
   102   6 C    3.988 --   109 C    1.398   103 C    1.396    76 C    1.024
                           106 C    0.103
   103   6 C    3.986 --   104 C    1.418   102 C    1.396   128 H    0.972
                           107 C    0.103
   104   6 C    3.988 --   103 C    1.418   106 C    1.414   105 C    1.019
                           109 C    0.103
   105   6 C    3.996 --   104 C    1.019   130 H    0.984   129 H    0.982
                           131 H    0.971
   106   6 C    3.988 --   107 C    1.416   104 C    1.414   132 H    0.972
                           102 C    0.103
   107   6 C    3.988 --   109 C    1.417   106 C    1.416   108 C    1.019
                           103 C    0.103
   108   6 C    3.996 --   107 C    1.019   135 H    0.983   134 H    0.982
                           133 H    0.971
   109   6 C    3.987 --   107 C    1.417   102 C    1.398   136 H    0.972
                           104 C    0.103
   110   1 H    1.002 --    70 C    0.972
   111   1 H    0.998 --    72 C    0.976
   112   1 H    1.005 --    73 C    0.974
   113   1 H    1.005 --    78 C    0.973
   114   1 H    1.004 --    79 C    0.972
   115   1 H    1.004 --    84 C    0.972
   116   1 H    1.005 --    85 C    0.973
   117   1 H    1.003 --    89 C    0.972
   118   1 H    1.004 --    91 C    0.985
   119   1 H    1.006 --    91 C    0.972
   120   1 H    1.005 --    91 C    0.980
   121   1 H    1.000 --    92 C    0.972
   122   1 H    1.004 --    94 C    0.985
   123   1 H    1.005 --    94 C    0.980
   124   1 H    1.006 --    94 C    0.972
   125   1 H    1.004 --    95 C    0.971
   126   1 H    1.006 --    97 C    0.973
   127   1 H    0.998 --    98 C    0.976
   128   1 H    1.003 --   103 C    0.972
   129   1 H    1.005 --   105 C    0.982
   130   1 H    1.004 --   105 C    0.984
   131   1 H    1.006 --   105 C    0.971
   132   1 H    1.000 --   106 C    0.972
   133   1 H    1.006 --   108 C    0.971
   134   1 H    1.004 --   108 C    0.982
   135   1 H    1.004 --   108 C    0.983
   136   1 H    1.003 --   109 C    0.972
   137   6 C    3.932 --   138 C    2.583    14 C    1.168
   138   6 C    3.932 --   137 C    2.583    82 C    1.168
 ---------------------------------------------------------------------------

           -------------------------------------------------
          | TOTAL ENERGY             -212.698759649537 Eh   |
          | GRADIENT NORM               0.000286509376 Eh/α |
          | HOMO-LUMO GAP               1.138139817051 eV   |
           -------------------------------------------------

 * finished run on 2022/07/30 at 09:22:51.608
