   * xtb version 6.5.1 (b24c23e) compiled by 'conda@728c89f4b128' on 2022-07-12
          program call               : xtb Fe_Ph_C6_2.xyz --gfn 1 --opt -T 48

   ID    Z sym.   atoms
    1   26 Fe     1, 57
    2    6 C      2-6, 8-11, 13-29, 32-37, 58-62, 64-67, 69-85, 88-93, 113-118
    3    7 N      7, 12, 30, 31, 63, 68, 86, 87
    4    1 H      38-56, 94-112
########################################################################
[WARNING] Please study the warnings concerning your input carefully
-1- prog_main_parseArguments: Unknown option '-T' provided
########################################################################

          :  Hamiltonian                  GFN1-xTB          :
 * total energy  :  -197.7751363 Eh     change       -0.1176375E-08 Eh
 * total energy  :  -199.4556460 Eh     change       -0.1680510E+01 Eh
 * total energy  :  -199.6343839 Eh     change       -0.1787379E+00 Eh
 * total energy  :  -199.7086181 Eh     change       -0.7423413E-01 Eh
 * total energy  :  -199.7550198 Eh     change       -0.4640175E-01 Eh
 * total energy  :  -199.7755476 Eh     change       -0.2052783E-01 Eh
 * total energy  :  -199.7891237 Eh     change       -0.1357608E-01 Eh
 * total energy  :  -199.7989136 Eh     change       -0.9789838E-02 Eh
 * total energy  :  -199.8058979 Eh     change       -0.6984356E-02 Eh
 * total energy  :  -199.8109724 Eh     change       -0.5074499E-02 Eh
 * total energy  :  -199.8273164 Eh     change       -0.2501196E-04 Eh
 * total energy  :  -199.8273502 Eh     change       -0.3376446E-04 Eh
 * total energy  :  -199.8273785 Eh     change       -0.2828994E-04 Eh
 * total energy  :  -199.8273944 Eh     change       -0.1593277E-04 Eh
 * total energy  :  -199.8274061 Eh     change       -0.1172760E-04 Eh
 * total energy  :  -199.8274166 Eh     change       -0.1050758E-04 Eh
 * total energy  :  -199.8274257 Eh     change       -0.9081756E-05 Eh
 * total energy  :  -199.8274341 Eh     change       -0.8349323E-05 Eh
 * total energy  :  -199.8274372 Eh     change       -0.3154185E-05 Eh
   *** GEOMETRY OPTIMIZATION CONVERGED AFTER 44 ITERATIONS ***

 final structure:
================
118
 xtb: 6.5.1 (b24c23e)
Fe          12.77940882631890       -0.03282852328369       -0.07455209902804
C            9.39077687833362       -0.06064323239769       -0.08455036583420
C           10.04630680716350       -1.25791553260133       -0.28564348191157
C            9.37282424310607       -2.50278213283929       -0.50189867965128
C           10.32848630661426       -3.46137154867076       -0.52630227390043
C           11.58633316872514       -2.79842978300135       -0.33709210460306
N           11.40084394397748       -1.44877926833110       -0.20581276738931
C           12.80182574235084       -3.46101791419722       -0.20480731543688
C           14.00726829471891       -2.79763327487025       -0.02929321203648
C           15.27497049548300       -3.45984924884794        0.05453041338252
C           16.22128949228613       -2.49094294454939        0.08058101022940
N           14.18108098377822       -1.43335907476067       -0.02762268390006
C           15.52998929804889       -1.24174877402004        0.01251461952022
C           16.18711609722029       -0.00709884678336       -0.06324206592002
C           15.50706627018687        1.21629942957320       -0.10964049237294
C           16.17170014506547        2.47716818678159       -0.21240908521035
C           15.21156679730595        3.42963487054157       -0.12849863977286
C           13.96327826691455        2.74534435920324        0.03179518588865
C           12.74645710163635        3.38641957100759        0.22038186312724
C           12.73328474057740        4.86422548974705        0.33130531670954
C           12.03449159107367        5.63840959556197       -0.59607352284086
C           12.02603582496103        7.02101204774562       -0.48975954665678
C           12.70927487492139        7.64610112304128        0.54451550098210
C           13.40553098044408        6.88262828563427        1.47172704053513
C           13.42126264803428        5.50013132370142        1.36576490158012
C           11.53839727117245        2.70128786892373        0.29657876085731
C           10.26924689529356        3.33394667897351        0.51303194902395
C            9.32736430383012        2.36665686579600        0.41174142279299
C           10.02293144725563        1.14283771804322        0.15106516177891
N           11.37689423791806        1.35288346036117        0.12386448203773
N           14.15939243552687        1.38510183492397        0.00898151295726
C           12.81071586103991       -4.94398277856412       -0.25810872353722
C           12.48259073899251       -5.61367316541638       -1.43683554255598
C           12.49252328534956       -6.99999118395370       -1.47919722861620
C           12.82356599832439       -7.73100053168502       -0.34640835512838
C           13.14991297501131       -7.07047691640803        0.83020773834150
C           13.14728814932325       -5.68438654165656        0.87528542164679
H            8.30664327508908       -0.06836378164465       -0.09988344758988
H            8.30475056780266       -2.61079689614102       -0.60508003456010
H           10.20447349063172       -4.52509213203322       -0.64868146142540
H           15.41330818423794       -4.52860442336240        0.06951435823927
H           17.29290408194837       -2.59763314640052        0.13075545718641
H           17.23573858533022        2.60187956421308       -0.33321328167499
H           15.32709672702466        4.49995749428864       -0.17978501610186
H           11.51133272528402        5.15258410361425       -1.41216951480300
H           11.48384529489577        7.61310053338604       -1.21867677374759
H           12.69948029835426        8.72695923129296        0.62762718098571
H           13.93901743091557        7.36605402023747        2.28259367266346
H           13.95544048403807        4.90413812138921        2.09730083149646
H           10.12953522324956        4.38297531371484        0.71766212483903
H            8.25643546924179        2.45399551679094        0.50439799651502
H           12.23409433871026       -5.04341400920290       -2.32493666618947
H           12.24070458265392       -7.51172488209832       -2.40146820908539
H           12.82771817404932       -8.81456524310497       -0.38065512358065
H           13.40730020036333       -7.63707149042277        1.71821142774890
H           13.39303232139415       -5.16839897355872        1.79672559362683
Fe          28.75948237530682        0.03548402705390       -0.07254665563857
C           32.14811866558025        0.06442770666298       -0.07694934955513
C           31.49269771178517        1.26917871641219       -0.22736457105121
C           32.16617474499432        2.52227659759980       -0.38913407748237
C           31.21024969912978        3.48081165345631       -0.37443522407274
C           29.95228657729313        2.81015531122666       -0.21559723043757
N           30.13798340954139        1.45616461902803       -0.14190285283180
C           28.73653840407826        3.46623074552977       -0.05578083163796
C           27.53117517951152        2.79565726563998        0.09075192994179
C           26.26333385393520        3.45337434585730        0.20320804082193
C           25.31717009898208        2.48408540007912        0.18732693181344
N           27.35753600559985        1.43255969309737        0.03328285116876
C           26.00866165744278        1.23913809299561        0.06518196003050
C           25.35180864742242        0.00880810470920       -0.06423582590711
C           26.03208681128531       -1.21128188581126       -0.16371671382459
C           25.36759565765733       -2.46654251123163       -0.32144008415378
C           26.32779322051264       -3.42166832013373       -0.27894138769683
C           27.57600472706779       -2.74491107764811       -0.08876022210497
C           28.79282152025610       -3.39349720666398        0.07208697982308
C           28.80611392931601       -4.87472406781960        0.11836221799185
C           29.50649385414658       -5.60753603796451       -0.84091513421492
C           29.51490925637794       -6.99346378933087       -0.79532684419010
C           28.82994269049856       -7.66333779173913        0.20935389254060
C           28.13215823665723       -6.94125535575340        1.16803328923489
C           28.11658134131997       -5.55543133069350        1.12285174896615
C           30.00069296523491       -2.71209898924983        0.17907369732927
C           31.26974985725947       -3.35333235877629        0.36922354824580
C           32.21143628516028       -2.38223824170640        0.31222834256559
C           31.51586429846066       -1.14831009740635        0.10463980551497
N           30.16200999482893       -1.35737981838872        0.06597369905443
N           27.37976470209156       -1.38495766416839       -0.05246249293824
C           28.72760318080816        4.95010362739328       -0.04500362981103
C           29.05747926326160        5.67005390696126       -1.19323474601073
C           29.04765319111183        7.05690165416846       -1.17576208385010
C           28.71499928065472        7.73838045706382       -0.01295874663058
C           28.38698976168617        7.02771457207337        1.13357405732686
C           28.38949456980027        5.64096989815884        1.11880337125460
H           33.23227915127383        0.07297383063797       -0.08978531309710
H           33.23438599804718        2.63492068545216       -0.48573688858525
H           31.33426693948447        4.54878604242851       -0.45129095926915
H           26.12475138572833        4.52043465768254        0.26458792387319
H           24.24554762462161        2.58834527719889        0.24222098657089
H           24.30358194325364       -2.58600803296828       -0.44766509124852
H           26.21230484559140       -4.48875439147936       -0.37673159032170
H           30.03089566852108       -5.08638755701128       -1.63410024419219
H           30.05838858547929       -7.55299991459830       -1.54859368617260
H           28.83958761602986       -8.74680401304404        0.24493687457109
H           27.59732270336488       -7.45978038371618        1.95600581798974
H           27.58125490860725       -4.99218410194208        1.87908121184047
H           31.40957568996484       -4.41032082808495        0.52756812618149
H           33.28225191050513       -2.47328882011027        0.40258868060980
H           29.30728839522947        5.13862248885358       -2.10474308509304
H           29.30125237158870        7.60794061243899       -2.07462800568053
H           28.71116731528290        8.82241910400539       -0.00032636141334
H           28.12826973956208        7.55548044413609        2.04481205708136
H           28.14236995710496        5.08580711006402        2.01680703623607
C           21.38466613907865       -0.00132801001091       -0.10969999768118
C           20.15430639024854        0.00538518445026       -0.10600197239401
C           18.81315368042300        0.00279339138712       -0.09889981688393
C           17.58745388358433        0.00271939467223       -0.08522366389940
C           22.72581620221120       -0.00262521921929       -0.10150378335679
C           23.95148845544924       -0.00079721542420       -0.08760214481097

          :  Hamiltonian                  GFN1-xTB          :
         :: total energy            -199.827437211541 Eh    ::
         :: gradient norm              0.000572766891 Eh/a0 ::
         :: HOMO-LUMO gap              0.094970044742 eV    ::
         :: SCC energy              -203.188566143130 Eh    ::
         :: repulsion energy           3.466555536681 Eh    ::

    * Orbital Energies and Occupations

         #    Occupation            Energy/Eh            Energy/eV
      -------------------------------------------------------------
         1        2.0000           -0.7695569             -20.9407
       ...           ...                  ...                  ...
       175        2.0000           -0.4274496             -11.6315
       176        2.0000           -0.4230768             -11.5125
       177        2.0000           -0.4176694             -11.3654
       178        2.0000           -0.3971887             -10.8081
       179        2.0000           -0.3971723             -10.8076
       180        2.0000           -0.3961379             -10.7795
       181        1.9918           -0.3891558             -10.5895
       182        1.9915           -0.3891191             -10.5885
       183        1.9466           -0.3873521             -10.5404
       184        1.9451           -0.3873261             -10.5397
       185        1.9411           -0.3872562             -10.5378
       186        1.9410           -0.3872550             -10.5377
       187        1.7413           -0.3857476             -10.4967 (HOMO)
       188        0.2918           -0.3822576             -10.4018 (LUMO)
       189        0.2099           -0.3819000             -10.3920
       190                         -0.3400678              -9.2537
       191                         -0.3278769              -8.9220
       192                         -0.3278635              -8.9216
       193                         -0.3273780              -8.9084
       194                         -0.3014830              -8.2038
       195                         -0.3014064              -8.2017
       196                         -0.3007357              -8.1834
       197                         -0.2933066              -7.9813
       198                         -0.2904308              -7.9030
       ...                                ...                  ...
       406                          1.5719607              42.7752
      -------------------------------------------------------------
                  HL-Gap            0.0034901 Eh            0.0950 eV

Wiberg/Mayer (AO) data.
largest (>0.10) Wiberg bond orders for each atom

     #   Z sym  total        # sym  WBO       # sym  WBO       # sym  WBO
 ---------------------------------------------------------------------------
     1  26 Fe   3.170 --    30 N    0.673     7 N    0.667    12 N    0.666
                            31 N    0.661
     2   6 C    3.925 --     3 C    1.363    29 C    1.363    38 H    0.970
     3   6 C    3.925 --     2 C    1.363     7 N    1.209     4 C    1.173
     4   6 C    3.959 --     5 C    1.649     3 C    1.173    39 H    0.975
     5   6 C    3.962 --     4 C    1.649     6 C    1.176    40 H    0.973
     6   6 C    3.921 --     8 C    1.313     7 N    1.225     5 C    1.176
     7   7 N    3.381 --     6 C    1.225     3 C    1.209     1 Fe   0.667
     8   6 C    3.928 --     9 C    1.337     6 C    1.313    32 C    1.021
     9   6 C    3.917 --     8 C    1.337    12 N    1.198    10 C    1.179
    10   6 C    3.957 --    11 C    1.638     9 C    1.179    41 H    0.973
    11   6 C    3.960 --    10 C    1.638    13 C    1.188    42 H    0.973
    12   7 N    3.382 --    13 C    1.247     9 C    1.198     1 Fe   0.666
    13   6 C    3.904 --    14 C    1.249    12 N    1.247    11 C    1.188
    14   6 C    3.925 --    15 C    1.249    13 C    1.249   116 C    1.205
    15   6 C    3.904 --    14 C    1.249    31 N    1.245    16 C    1.190
    16   6 C    3.960 --    17 C    1.636    15 C    1.190    43 H    0.973
    17   6 C    3.957 --    16 C    1.636    18 C    1.181    44 H    0.973
    18   6 C    3.917 --    19 C    1.331    31 N    1.201    17 C    1.181
    19   6 C    3.928 --    18 C    1.331    26 C    1.314    20 C    1.029
    20   6 C    3.988 --    21 C    1.394    25 C    1.394    19 C    1.029
                            23 C    0.107
    21   6 C    3.987 --    22 C    1.447    20 C    1.394    45 H    0.973
                            24 C    0.109
    22   6 C    3.995 --    21 C    1.447    23 C    1.437    46 H    0.973
                            25 C    0.109
    23   6 C    3.989 --    22 C    1.437    24 C    1.437    47 H    0.974
                            20 C    0.107
    24   6 C    3.995 --    25 C    1.448    23 C    1.437    48 H    0.973
                            21 C    0.109
    25   6 C    3.987 --    24 C    1.448    20 C    1.394    49 H    0.973
                            22 C    0.109
    26   6 C    3.921 --    19 C    1.314    30 N    1.224    27 C    1.176
    27   6 C    3.962 --    28 C    1.648    26 C    1.176    50 H    0.973
    28   6 C    3.959 --    27 C    1.648    29 C    1.174    51 H    0.975
    29   6 C    3.925 --     2 C    1.363    30 N    1.209    28 C    1.174
    30   7 N    3.383 --    26 C    1.224    29 C    1.209     1 Fe   0.673
    31   7 N    3.380 --    15 C    1.245    18 C    1.201     1 Fe   0.661
    32   6 C    3.988 --    33 C    1.397    37 C    1.397     8 C    1.021
                            35 C    0.109
    33   6 C    3.988 --    34 C    1.446    32 C    1.397    52 H    0.973
                            36 C    0.110
    34   6 C    3.995 --    33 C    1.446    35 C    1.438    53 H    0.973
                            37 C    0.110
    35   6 C    3.991 --    34 C    1.438    36 C    1.438    54 H    0.974
                            32 C    0.109
    36   6 C    3.995 --    37 C    1.447    35 C    1.438    55 H    0.973
                            33 C    0.110
    37   6 C    3.988 --    36 C    1.447    32 C    1.397    56 H    0.973
                            34 C    0.110
    38   1 H    1.001 --     2 C    0.970
    39   1 H    0.998 --     4 C    0.975
    40   1 H    1.005 --     5 C    0.973
    41   1 H    1.005 --    10 C    0.973
    42   1 H    1.002 --    11 C    0.973
    43   1 H    1.002 --    16 C    0.973
    44   1 H    1.004 --    17 C    0.973
    45   1 H    1.005 --    21 C    0.973
    46   1 H    1.002 --    22 C    0.973
    47   1 H    1.003 --    23 C    0.974
    48   1 H    1.002 --    24 C    0.973
    49   1 H    1.005 --    25 C    0.973
    50   1 H    1.005 --    27 C    0.973
    51   1 H    0.998 --    28 C    0.975
    52   1 H    1.004 --    33 C    0.973
    53   1 H    1.002 --    34 C    0.973
    54   1 H    1.003 --    35 C    0.974
    55   1 H    1.002 --    36 C    0.973
    56   1 H    1.004 --    37 C    0.973
    57  26 Fe   3.168 --    86 N    0.673    63 N    0.667    68 N    0.666
                            87 N    0.661
    58   6 C    3.925 --    85 C    1.363    59 C    1.363    94 H    0.970
    59   6 C    3.925 --    58 C    1.363    63 N    1.209    60 C    1.173
    60   6 C    3.959 --    61 C    1.649    59 C    1.173    95 H    0.975
    61   6 C    3.962 --    60 C    1.649    62 C    1.176    96 H    0.973
    62   6 C    3.920 --    64 C    1.313    63 N    1.225    61 C    1.176
    63   7 N    3.381 --    62 C    1.225    59 C    1.209    57 Fe   0.667
    64   6 C    3.928 --    65 C    1.337    62 C    1.313    88 C    1.021
    65   6 C    3.917 --    64 C    1.337    68 N    1.198    66 C    1.179
    66   6 C    3.957 --    67 C    1.638    65 C    1.179    97 H    0.973
    67   6 C    3.960 --    66 C    1.638    69 C    1.188    98 H    0.973
    68   7 N    3.382 --    69 C    1.247    65 C    1.198    57 Fe   0.666
    69   6 C    3.904 --    70 C    1.249    68 N    1.247    67 C    1.188
    70   6 C    3.925 --    71 C    1.249    69 C    1.249   118 C    1.205
    71   6 C    3.904 --    70 C    1.249    87 N    1.245    72 C    1.190
    72   6 C    3.960 --    73 C    1.636    71 C    1.190    99 H    0.973
    73   6 C    3.957 --    72 C    1.636    74 C    1.181   100 H    0.973
    74   6 C    3.917 --    75 C    1.331    87 N    1.201    73 C    1.181
    75   6 C    3.928 --    74 C    1.331    82 C    1.313    76 C    1.029
    76   6 C    3.988 --    77 C    1.394    81 C    1.394    75 C    1.029
                            79 C    0.107
    77   6 C    3.987 --    78 C    1.448    76 C    1.394   101 H    0.973
                            80 C    0.109
    78   6 C    3.995 --    77 C    1.448    79 C    1.437   102 H    0.973
                            81 C    0.109
    79   6 C    3.989 --    78 C    1.437    80 C    1.437   103 H    0.974
                            76 C    0.107
    80   6 C    3.995 --    81 C    1.448    79 C    1.437   104 H    0.973
                            77 C    0.109
    81   6 C    3.987 --    80 C    1.448    76 C    1.394   105 H    0.973
                            78 C    0.109
    82   6 C    3.921 --    75 C    1.313    86 N    1.224    83 C    1.176
    83   6 C    3.962 --    84 C    1.648    82 C    1.176   106 H    0.973
    84   6 C    3.959 --    83 C    1.648    85 C    1.174   107 H    0.975
    85   6 C    3.925 --    58 C    1.363    86 N    1.209    84 C    1.174
    86   7 N    3.383 --    82 C    1.224    85 C    1.209    57 Fe   0.673
    87   7 N    3.380 --    71 C    1.245    74 C    1.201    57 Fe   0.661
    88   6 C    3.988 --    89 C    1.397    93 C    1.397    64 C    1.021
                            91 C    0.109
    89   6 C    3.988 --    90 C    1.446    88 C    1.397   108 H    0.973
                            92 C    0.110
    90   6 C    3.995 --    89 C    1.446    91 C    1.438   109 H    0.973
                            93 C    0.110
    91   6 C    3.991 --    90 C    1.438    92 C    1.438   110 H    0.974
                            88 C    0.109
    92   6 C    3.995 --    93 C    1.447    91 C    1.438   111 H    0.973
                            89 C    0.110
    93   6 C    3.988 --    92 C    1.447    88 C    1.397   112 H    0.973
                            90 C    0.110
    94   1 H    1.001 --    58 C    0.970
    95   1 H    0.998 --    60 C    0.975
    96   1 H    1.005 --    61 C    0.973
    97   1 H    1.005 --    66 C    0.973
    98   1 H    1.002 --    67 C    0.973
    99   1 H    1.002 --    72 C    0.973
   100   1 H    1.004 --    73 C    0.973
   101   1 H    1.005 --    77 C    0.973
   102   1 H    1.002 --    78 C    0.973
   103   1 H    1.003 --    79 C    0.974
   104   1 H    1.002 --    80 C    0.973
   105   1 H    1.005 --    81 C    0.973
   106   1 H    1.005 --    83 C    0.973
   107   1 H    0.998 --    84 C    0.975
   108   1 H    1.004 --    89 C    0.973
   109   1 H    1.002 --    90 C    0.973
   110   1 H    1.003 --    91 C    0.974
   111   1 H    1.002 --    92 C    0.973
   112   1 H    1.004 --    93 C    0.973
   113   6 C    3.915 --   114 C    2.340   117 C    1.353   116 C    0.186
   114   6 C    3.915 --   113 C    2.340   115 C    1.353   118 C    0.186
   115   6 C    3.922 --   116 C    2.422   114 C    1.353
   116   6 C    3.880 --   115 C    2.422    14 C    1.205   113 C    0.186
   117   6 C    3.922 --   118 C    2.422   113 C    1.353
   118   6 C    3.880 --   117 C    2.422    70 C    1.205   114 C    0.186
 ---------------------------------------------------------------------------

           -------------------------------------------------
          | TOTAL ENERGY             -199.827437211541 Eh   |
          | GRADIENT NORM               0.000572766891 Eh/α |
          | HOMO-LUMO GAP               0.094970044742 eV   |
           -------------------------------------------------

 * finished run on 2022/07/29 at 20:06:02.278
