   * xtb version 6.5.1 (b24c23e) compiled by 'conda@728c89f4b128' on 2022-07-12
          program call               : xtb Cu_Ph2OMe_C6_2.xyz --gfn 1 --opt -T 48

   ID    Z sym.   atoms
    1   29 Cu     1, 73
    2    6 C      2-6, 8-11, 13-21, 23-27, 29-33, 36, 37, 39-43, 45, 74-78,
                  80-83, 85-93, 95-99, 101-105, 108, 109, 111-115, 117,
                  145-150
    3    7 N      7, 12, 34, 35, 79, 84, 106, 107
    4    8 O      22, 28, 38, 44, 94, 100, 110, 116
    5    1 H      46-72, 118-144
########################################################################
[WARNING] Please study the warnings concerning your input carefully
-1- prog_main_parseArguments: Unknown option '-T' provided
########################################################################

          :  Hamiltonian                  GFN1-xTB          :
 * total energy  :  -265.0901978 Eh     change       -0.3634568E-09 Eh
 * total energy  :  -265.8259048 Eh     change       -0.7357070E+00 Eh
 * total energy  :  -265.9402232 Eh     change       -0.1143184E+00 Eh
 * total energy  :  -265.9959945 Eh     change       -0.5577129E-01 Eh
 * total energy  :  -266.0180827 Eh     change       -0.2208823E-01 Eh
 * total energy  :  -266.0295323 Eh     change       -0.1144954E-01 Eh
 * total energy  :  -266.0363356 Eh     change       -0.6803374E-02 Eh
 * total energy  :  -266.0411040 Eh     change       -0.4768344E-02 Eh
 * total energy  :  -266.0447807 Eh     change       -0.3676687E-02 Eh
 * total energy  :  -266.0474855 Eh     change       -0.2704853E-02 Eh
 * total energy  :  -266.0558182 Eh     change       -0.1746501E-04 Eh
 * total energy  :  -266.0558391 Eh     change       -0.2096827E-04 Eh
 * total energy  :  -266.0558605 Eh     change       -0.2138265E-04 Eh
 * total energy  :  -266.0558778 Eh     change       -0.1727846E-04 Eh
 * total energy  :  -266.0558917 Eh     change       -0.1391589E-04 Eh
 * total energy  :  -266.0559039 Eh     change       -0.1221547E-04 Eh
 * total energy  :  -266.0559138 Eh     change       -0.9925418E-05 Eh
 * total energy  :  -266.0559202 Eh     change       -0.6368964E-05 Eh
 * total energy  :  -266.0559246 Eh     change       -0.4417331E-05 Eh
   *** GEOMETRY OPTIMIZATION CONVERGED AFTER 67 ITERATIONS ***

 final structure:
================
150
 xtb: 6.5.1 (b24c23e)
Cu          13.16767738027340        0.05828006806470        0.02414640491621
C            9.76977730668967        0.27031488589491       -0.15759448433623
C           10.40084172782373        1.10909635254216        0.74930920005388
C            9.72531920637784        2.03097031916538        1.61823850449275
C           10.68013426534544        2.65014777739836        2.35578718996577
C           11.94830266424145        2.11742489744857        1.93897371790228
N           11.74723476431145        1.18400891790622        0.96346493028417
C           13.18570947883435        2.48548897793294        2.46840928352469
C           14.41582930880871        1.95678949176986        2.07967852453617
C           15.68813257967967        2.37395851695602        2.59672481532999
C           16.63753836496462        1.65150190970444        1.95002067266706
N           14.61074776196243        0.98859357728887        1.13020055644556
C           15.95262573834617        0.78791131300418        1.03441217641831
C           16.59182604429990       -0.12214088731202        0.17357925180922
C           15.93599124102843       -0.97886850080400       -0.72885378965383
C           16.60186275908635       -1.93025181500848       -1.56831384480668
C           15.64024056251370       -2.56721793009867       -2.28317649517645
C           14.38014772462460       -2.00369709973566       -1.89026539434309
C           13.14073466091615       -2.39417319669477       -2.39488772460512
C           13.13036860159325       -3.45473352686803       -3.44332509957910
C           13.59765641428119       -3.17766126128522       -4.73468356255611
O           14.03398466201961       -1.90794597476517       -4.94812172890169
C           14.54350318207110       -1.52925041110866       -6.21058982855203
C           13.58821175425622       -4.16853586473108       -5.71594008236966
C           13.11562742425368       -5.43337852507534       -5.40017935793361
C           12.64974198960780       -5.73122973752327       -4.12851395089987
C           12.65493694142264       -4.73894391007108       -3.14857127679410
O           12.22554356168287       -4.93507823819432       -1.87339558616972
C           11.74459154464973       -6.20041214859388       -1.46806063338385
C           11.90998189487221       -1.86683963215652       -2.00253214830394
C           10.63711714519697       -2.24307984575948       -2.55375160990555
C            9.69474764364518       -1.49409836178505       -1.92913267642661
C           10.38375051131390       -0.65113861534842       -0.99323046973265
N           11.72486408542080       -0.89861701822122       -1.05839463133493
N           14.59370058987850       -1.04127039580604       -0.93880074219195
C           13.19457794128897        3.52890320875752        3.53387062210669
C           13.49690935396155        3.18466213355271        4.85782445641968
O           13.75774696758925        1.86971952694676        5.08420138041272
C           14.09543493733066        1.42011728436545        6.38051693456632
C           13.50739693477346        4.15910274209578        5.85537710097219
C           13.22015693410420        5.47452660399437        5.52368134193654
C           12.91929593574760        5.83905191468610        4.22006405794856
C           12.90388938390104        4.86359034982034        3.22348600523815
O           12.62688603441604        5.12286933903340        1.91777820631909
C           12.33005419585766        6.43894591584280        1.49750958956349
H            8.68828003271237        0.33980076964987       -0.21707557519271
H            8.65605208714408        2.17116686007094        1.65247512029598
H           10.54741582022428        3.40174612839547        3.11751989118478
H           15.82989774156528        3.12786512905188        3.35431392196613
H           17.70819295457741        1.69240898021116        2.07304610665629
H           17.66849106416269       -2.08724689340232       -1.59467854718215
H           15.76571370895004       -3.35205734858187       -3.01163268143638
H           13.78281979829432       -1.62163131370988       -6.99540188194096
H           14.83718519173163       -0.48198346670333       -6.11800235939291
H           15.42159076953927       -2.12641549878853       -6.48498434412547
H           13.94330539293734       -3.96380000711969       -6.71707244003938
H           13.10998996745781       -6.20458175768681       -6.16265479208927
H           12.28816287989155       -6.72718789104511       -3.91032757059578
H           11.47284409111771       -6.09956286453520       -0.41562621500697
H           10.85780351630726       -6.49631566760341       -2.04178004414724
H           12.51550792289113       -6.97416644396747       -1.56814612430283
H           10.49353370805761       -2.98504994924473       -3.32296879156552
H            8.62656124880565       -1.49811724485136       -2.08110671171516
H           14.27044771261523        0.34611989978475        6.29362178475754
H           13.27950322199434        1.59517668611285        7.09236376544785
H           15.00773979628610        1.90487236560302        6.74878521614737
H           13.73598259087531        3.90292272338028        6.88126632818181
H           13.23065796465002        6.23288091484788        6.29889703734306
H           12.70062126528256        6.87330327797957        3.99005235817550
H           13.17064776819147        7.11894882684635        1.68208871889267
H           12.14568994696860        6.38064776224349        0.42317582317972
H           11.43351667951887        6.82773183621909        1.99571483646315
Cu          29.18884075869210       -0.01629920877479       -0.06068449092261
C           32.58653910990216        0.19429089304283       -0.24493731879002
C           31.95583553944784       -0.58705720356429       -1.20198232397526
C           32.63188627400692       -1.32007205089883       -2.23485973285062
C           31.67722960209384       -1.96279247282098       -2.95217474973890
C           30.40861293979435       -1.62193301270990       -2.36889938161465
N           30.60932911244543       -0.78693917789262       -1.30785072909123
C           29.17091175546835       -2.09047688279941       -2.81118621297932
C           27.94047370429302       -1.77795759049231       -2.23472192073287
C           26.66781449875050       -2.22600819413530       -2.72432894377234
C           25.71853107376518       -1.68938936170581       -1.91660118944873
N           27.74582469496472       -0.97818239338610       -1.13954887437244
C           26.40383861794443       -0.91018003750621       -0.92846981309732
C           25.76485534630216       -0.19004480762919        0.09665415489496
C           26.42082521726216        0.57926370464685        1.07455192106202
C           25.75502447775882        1.27263653947038        2.13714372978183
C           26.71648548189242        1.89034566703758        2.86890288119847
C           27.97641608111089        1.58429119749176        2.25349276197191
C           29.21557071610377        2.03088926390500        2.71008895874900
C           29.22546580468901        2.91820425232194        3.90859995281051
C           28.74836464299442        4.23251159666669        3.82014355848057
O           28.30422005009116        4.62147511345657        2.59557372131838
C           27.78121902932577        5.92007024143034        2.40329678052429
C           28.75652658881762        5.06282118455559        4.94054077428216
C           29.23758261555439        4.57370634001870        6.14561565283565
C           29.71337355621727        3.27600437231161        6.25748424306443
C           29.70955100582370        2.44726279038783        5.13585285908862
O           30.14820071402683        1.16025162797877        5.14675968392944
C           30.64068087131266        0.58305203482885        6.33879813331692
C           30.44619965738370        1.71929741975713        2.13098149133866
C           31.71881726383438        2.21408067717190        2.57959048169360
C           32.66111575624556        1.70200860936923        1.74954600664849
C           31.97230932921316        0.89280179206439        0.78418110633085
N           30.63136068272769        0.92103032361302        1.03936474318709
N           27.76296681581783        0.77965513436627        1.16529998478977
C           29.16214001857924       -2.99650741497843       -3.99560817386486
C           28.85041405642642       -4.35409391947824       -3.84445776773642
O           28.58123989945221       -4.76336983084537       -2.57622065427183
C           28.23237522098575       -6.10785643293556       -2.31704186634157
C           28.83992609850257       -5.20314709685112       -4.95064658355820
C           29.13666803868536       -4.68992710564010       -6.20424985402899
C           29.44726393603119       -3.34978224521082       -6.37837789163830
C           29.46269888408586       -2.50180909881392       -5.27125876357405
O           29.74881606400149       -1.17442744792598       -5.34154337985692
C           30.05742996347802       -0.57440551613217       -6.58313529721050
H           33.66801316868875        0.26324103867029       -0.30536487390097
H           33.70136443236490       -1.33618761250565       -2.37667179284548
H           31.81037690666274       -2.61300401512351       -3.80201350449791
H           26.52569456449451       -2.86539368732480       -3.58071350462872
H           24.64771218025676       -1.80300654128678       -1.97622401193273
H           24.68855281467675        1.27472149562457        2.29737012684700
H           26.59085300961721        2.49881153552938        3.74999739905202
H           28.53538766474886        6.69105368536729        2.60307885516444
H           27.48201275014014        5.97492361823661        1.35493333845500
H           26.90435354364126        6.09792391170515        3.03765449129023
H           28.39385095324667        6.08031652890386        4.88181504804346
H           29.24201437106909        5.21865865152885        7.01749478236526
H           30.08129108528717        2.92083327596416        7.21077972062744
H           30.92073005414071       -0.44163405460171        6.08732419700840
H           31.52444286655215        1.11690725821474        6.70900217860589
H           29.87391273740658        0.56448798830187        7.12285692254119
H           31.86237596982771        2.87162708681087        3.42210108783754
H           33.72915093002435        1.85317265796401        1.77385068161529
H           28.05058944282796       -6.17282016968083       -1.24263427726986
H           29.04499058236851       -6.79352607323689       -2.58649209270385
H           27.32111442997051       -6.39712035180290       -2.85445462996808
H           28.60432871293382       -6.25355056574542       -4.84378068528289
H           29.12615511653144       -5.34950114190385       -7.06507589858265
H           29.67329295523690       -2.97673360230279       -7.36836435197106
H           29.22066220889232       -0.65537249005377       -7.28764646985925
H           30.24764409609517        0.47963112776239       -6.37244582091091
H           30.95380189083313       -1.01875520117982       -7.03279324300506
C           21.79230739717616       -0.25159514643890        0.20396512326249
C           20.56418969517940       -0.24143461778093        0.21871459897259
C           19.21948996066273       -0.21245967311911        0.21961973666275
C           17.99626877204071       -0.17567352587600        0.21030626462542
C           23.13706152910262       -0.24880101259723        0.17721030725438
C           24.36038569291864       -0.23389759113614        0.14404399348769

          :  Hamiltonian                  GFN1-xTB          :
         :: total energy            -266.055924637494 Eh    ::
         :: gradient norm              0.000406861405 Eh/a0 ::
         :: HOMO-LUMO gap              0.000626664584 eV    ::
         :: SCC energy              -269.744080413236 Eh    ::
         :: repulsion energy           3.818123932383 Eh    ::

    * Orbital Energies and Occupations

         #    Occupation            Energy/Eh            Energy/eV
      -------------------------------------------------------------
         1        2.0000           -0.8045550             -21.8931
       ...           ...                  ...                  ...
       226        2.0000           -0.3959579             -10.7746
       227        2.0000           -0.3959535             -10.7744
       228        2.0000           -0.3927850             -10.6882
       229        2.0000           -0.3927815             -10.6881
       230        2.0000           -0.3925431             -10.6816
       231        2.0000           -0.3925395             -10.6815
       232        2.0000           -0.3925267             -10.6812
       233        2.0000           -0.3924110             -10.6780
       234        2.0000           -0.3794535             -10.3255
       235        2.0000           -0.3794409             -10.3251
       236        2.0000           -0.3752156             -10.2101
       237        2.0000           -0.3650519              -9.9336
       238        1.0061           -0.3397958              -9.2463 (HOMO)
       239        0.9939           -0.3397728              -9.2457 (LUMO)
       240                         -0.3224303              -8.7738
       241                         -0.3110852              -8.4651
       242                         -0.3110650              -8.4645
       243                         -0.3107967              -8.4572
       244                         -0.2829201              -7.6986
       245                         -0.2754632              -7.4957
       246                         -0.2690424              -7.3210
       247                         -0.2531420              -6.8883
       248                         -0.2525826              -6.8731
       249                         -0.2525772              -6.8730
       ...                                ...                  ...
       502                          1.5936930              43.3666
      -------------------------------------------------------------
                  HL-Gap            0.0000230 Eh            0.0006 eV

Wiberg/Mayer (AO) data.
largest (>0.10) Wiberg bond orders for each atom

     #   Z sym  total        # sym  WBO       # sym  WBO       # sym  WBO
 ---------------------------------------------------------------------------
     1  29 Cu   2.187 --     7 N    0.505    34 N    0.505    35 N    0.503
                            12 N    0.503
     2   6 C    3.929 --     3 C    1.361    33 C    1.361    46 H    0.972
     3   6 C    3.919 --     2 C    1.361     7 N    1.231     4 C    1.170
     4   6 C    3.955 --     5 C    1.657     3 C    1.170    47 H    0.976
     5   6 C    3.958 --     4 C    1.657     6 C    1.172    48 H    0.975
     6   6 C    3.912 --     8 C    1.324     7 N    1.237     5 C    1.172
     7   7 N    3.245 --     6 C    1.237     3 C    1.231     1 Cu   0.505
     8   6 C    3.935 --     9 C    1.335     6 C    1.324    36 C    1.013
     9   6 C    3.908 --     8 C    1.335    12 N    1.219    10 C    1.178
    10   6 C    3.955 --    11 C    1.645     9 C    1.178    49 H    0.975
    11   6 C    3.957 --    10 C    1.645    13 C    1.185    50 H    0.974
    12   7 N    3.249 --    13 C    1.260     9 C    1.219     1 Cu   0.503
    13   6 C    3.899 --    12 N    1.260    14 C    1.259    11 C    1.185
    14   6 C    3.939 --    13 C    1.259    15 C    1.258   148 C    1.188
    15   6 C    3.899 --    35 N    1.260    14 C    1.258    16 C    1.185
    16   6 C    3.957 --    17 C    1.645    15 C    1.185    51 H    0.974
    17   6 C    3.955 --    16 C    1.645    18 C    1.178    52 H    0.975
    18   6 C    3.908 --    19 C    1.335    35 N    1.218    17 C    1.178
    19   6 C    3.935 --    18 C    1.335    30 C    1.324    20 C    1.012
    20   6 C    3.978 --    27 C    1.345    21 C    1.344    19 C    1.012
                            25 C    0.101
    21   6 C    3.903 --    24 C    1.362    20 C    1.344    22 O    1.031
    22   8 O    2.144 --    21 C    1.031    23 C    0.936
    23   6 C    3.908 --    54 H    0.983    55 H    0.980    53 H    0.980
                            22 O    0.936
    24   6 C    3.983 --    25 C    1.442    21 C    1.362    56 H    0.969
    25   6 C    3.993 --    26 C    1.442    24 C    1.442    57 H    0.974
                            20 C    0.101
    26   6 C    3.983 --    25 C    1.442    27 C    1.362    58 H    0.969
    27   6 C    3.903 --    26 C    1.362    20 C    1.345    28 O    1.030
    28   8 O    2.144 --    27 C    1.030    29 C    0.936
    29   6 C    3.908 --    59 H    0.983    60 H    0.980    61 H    0.980
                            28 O    0.936
    30   6 C    3.912 --    19 C    1.324    34 N    1.237    31 C    1.172
    31   6 C    3.958 --    32 C    1.657    30 C    1.172    62 H    0.975
    32   6 C    3.955 --    31 C    1.657    33 C    1.170    63 H    0.976
    33   6 C    3.919 --     2 C    1.361    34 N    1.232    32 C    1.170
    34   7 N    3.245 --    30 C    1.237    33 C    1.232     1 Cu   0.505
    35   7 N    3.249 --    15 C    1.260    18 C    1.218     1 Cu   0.503
    36   6 C    3.978 --    43 C    1.344    37 C    1.344     8 C    1.013
                            41 C    0.101
    37   6 C    3.903 --    40 C    1.362    36 C    1.344    38 O    1.031
    38   8 O    2.144 --    37 C    1.031    39 C    0.936
    39   6 C    3.908 --    64 H    0.983    66 H    0.980    65 H    0.980
                            38 O    0.936
    40   6 C    3.983 --    41 C    1.442    37 C    1.362    67 H    0.969
    41   6 C    3.993 --    42 C    1.442    40 C    1.442    68 H    0.974
                            36 C    0.101
    42   6 C    3.983 --    41 C    1.442    43 C    1.362    69 H    0.969
    43   6 C    3.903 --    42 C    1.362    36 C    1.344    44 O    1.030
    44   8 O    2.144 --    43 C    1.030    45 C    0.936
    45   6 C    3.908 --    71 H    0.983    72 H    0.980    70 H    0.980
                            44 O    0.936
    46   1 H    1.002 --     2 C    0.972
    47   1 H    0.999 --     4 C    0.976
    48   1 H    1.002 --     5 C    0.975
    49   1 H    1.002 --    10 C    0.975
    50   1 H    1.002 --    11 C    0.974
    51   1 H    1.003 --    16 C    0.974
    52   1 H    1.002 --    17 C    0.975
    53   1 H    1.009 --    23 C    0.980
    54   1 H    1.016 --    23 C    0.983
    55   1 H    1.009 --    23 C    0.980
    56   1 H    1.000 --    24 C    0.969
    57   1 H    1.003 --    25 C    0.974
    58   1 H    1.000 --    26 C    0.969
    59   1 H    1.016 --    29 C    0.983
    60   1 H    1.009 --    29 C    0.980
    61   1 H    1.009 --    29 C    0.980
    62   1 H    1.002 --    31 C    0.975
    63   1 H    0.998 --    32 C    0.976
    64   1 H    1.016 --    39 C    0.983
    65   1 H    1.009 --    39 C    0.980
    66   1 H    1.009 --    39 C    0.980
    67   1 H    1.000 --    40 C    0.969
    68   1 H    1.003 --    41 C    0.974
    69   1 H    1.000 --    42 C    0.969
    70   1 H    1.009 --    45 C    0.980
    71   1 H    1.016 --    45 C    0.983
    72   1 H    1.009 --    45 C    0.980
    73  29 Cu   2.187 --    79 N    0.505   106 N    0.505   107 N    0.503
                            84 N    0.503
    74   6 C    3.929 --    75 C    1.361   105 C    1.361   118 H    0.972
    75   6 C    3.919 --    74 C    1.361    79 N    1.231    76 C    1.170
    76   6 C    3.955 --    77 C    1.657    75 C    1.170   119 H    0.976
    77   6 C    3.958 --    76 C    1.657    78 C    1.172   120 H    0.975
    78   6 C    3.912 --    80 C    1.324    79 N    1.237    77 C    1.172
    79   7 N    3.245 --    78 C    1.237    75 C    1.231    73 Cu   0.505
    80   6 C    3.935 --    81 C    1.334    78 C    1.324   108 C    1.013
    81   6 C    3.908 --    80 C    1.334    84 N    1.219    82 C    1.178
    82   6 C    3.955 --    83 C    1.645    81 C    1.178   121 H    0.975
    83   6 C    3.957 --    82 C    1.645    85 C    1.185   122 H    0.974
    84   7 N    3.249 --    85 C    1.260    81 C    1.219    73 Cu   0.503
    85   6 C    3.899 --    84 N    1.260    86 C    1.259    83 C    1.185
    86   6 C    3.939 --    85 C    1.259    87 C    1.258   150 C    1.188
    87   6 C    3.899 --   107 N    1.260    86 C    1.258    88 C    1.185
    88   6 C    3.957 --    89 C    1.645    87 C    1.185   123 H    0.974
    89   6 C    3.955 --    88 C    1.645    90 C    1.178   124 H    0.975
    90   6 C    3.908 --    91 C    1.335   107 N    1.218    89 C    1.178
    91   6 C    3.935 --    90 C    1.335   102 C    1.324    92 C    1.013
    92   6 C    3.978 --    99 C    1.344    93 C    1.344    91 C    1.013
                            97 C    0.101
    93   6 C    3.903 --    96 C    1.362    92 C    1.344    94 O    1.031
    94   8 O    2.144 --    93 C    1.031    95 C    0.936
    95   6 C    3.908 --   126 H    0.983   127 H    0.980   125 H    0.980
                            94 O    0.936
    96   6 C    3.983 --    97 C    1.442    93 C    1.362   128 H    0.969
    97   6 C    3.993 --    98 C    1.442    96 C    1.442   129 H    0.974
                            92 C    0.101
    98   6 C    3.983 --    97 C    1.442    99 C    1.362   130 H    0.969
    99   6 C    3.903 --    98 C    1.362    92 C    1.344   100 O    1.030
   100   8 O    2.144 --    99 C    1.030   101 C    0.936
   101   6 C    3.908 --   131 H    0.983   132 H    0.980   133 H    0.980
                           100 O    0.936
   102   6 C    3.912 --    91 C    1.324   106 N    1.237   103 C    1.172
   103   6 C    3.958 --   104 C    1.657   102 C    1.172   134 H    0.975
   104   6 C    3.955 --   103 C    1.657   105 C    1.170   135 H    0.976
   105   6 C    3.919 --    74 C    1.361   106 N    1.232   104 C    1.170
   106   7 N    3.245 --   102 C    1.237   105 C    1.232    73 Cu   0.505
   107   7 N    3.249 --    87 C    1.260    90 C    1.218    73 Cu   0.503
   108   6 C    3.978 --   115 C    1.344   109 C    1.344    80 C    1.013
                           113 C    0.101
   109   6 C    3.903 --   112 C    1.362   108 C    1.344   110 O    1.031
   110   8 O    2.144 --   109 C    1.031   111 C    0.936
   111   6 C    3.908 --   136 H    0.983   138 H    0.980   137 H    0.980
                           110 O    0.936
   112   6 C    3.983 --   113 C    1.442   109 C    1.362   139 H    0.969
   113   6 C    3.993 --   114 C    1.442   112 C    1.442   140 H    0.974
                           108 C    0.101
   114   6 C    3.983 --   113 C    1.442   115 C    1.362   141 H    0.969
   115   6 C    3.903 --   114 C    1.362   108 C    1.344   116 O    1.030
   116   8 O    2.144 --   115 C    1.030   117 C    0.936
   117   6 C    3.908 --   143 H    0.983   144 H    0.980   142 H    0.980
                           116 O    0.936
   118   1 H    1.002 --    74 C    0.972
   119   1 H    0.999 --    76 C    0.976
   120   1 H    1.002 --    77 C    0.975
   121   1 H    1.002 --    82 C    0.975
   122   1 H    1.002 --    83 C    0.974
   123   1 H    1.003 --    88 C    0.974
   124   1 H    1.002 --    89 C    0.975
   125   1 H    1.009 --    95 C    0.980
   126   1 H    1.016 --    95 C    0.983
   127   1 H    1.009 --    95 C    0.980
   128   1 H    1.000 --    96 C    0.969
   129   1 H    1.003 --    97 C    0.974
   130   1 H    1.000 --    98 C    0.969
   131   1 H    1.016 --   101 C    0.983
   132   1 H    1.009 --   101 C    0.980
   133   1 H    1.009 --   101 C    0.980
   134   1 H    1.002 --   103 C    0.975
   135   1 H    0.998 --   104 C    0.976
   136   1 H    1.016 --   111 C    0.983
   137   1 H    1.009 --   111 C    0.980
   138   1 H    1.009 --   111 C    0.980
   139   1 H    1.000 --   112 C    0.969
   140   1 H    1.003 --   113 C    0.974
   141   1 H    1.000 --   114 C    0.969
   142   1 H    1.009 --   117 C    0.980
   143   1 H    1.016 --   117 C    0.983
   144   1 H    1.009 --   117 C    0.980
   145   6 C    3.927 --   146 C    2.372   149 C    1.333   148 C    0.191
   146   6 C    3.927 --   145 C    2.372   147 C    1.333   150 C    0.191
   147   6 C    3.936 --   148 C    2.452   146 C    1.333
   148   6 C    3.891 --   147 C    2.452    14 C    1.188   145 C    0.191
   149   6 C    3.936 --   150 C    2.452   145 C    1.333
   150   6 C    3.891 --   149 C    2.452    86 C    1.188   146 C    0.191
 ---------------------------------------------------------------------------

           -------------------------------------------------
          | TOTAL ENERGY             -266.055924637494 Eh   |
          | GRADIENT NORM               0.000406861405 Eh/α |
          | HOMO-LUMO GAP               0.000626664584 eV   |
           -------------------------------------------------

 * finished run on 2022/07/30 at 12:29:30.102
