   * xtb version 6.5.1 (b24c23e) compiled by 'conda@728c89f4b128' on 2022-07-12
          program call               : xtb Py_C2_3.xyz --gfn 1 --opt -T 48

   ID    Z sym.   atoms
    1    6 C      1-5, 7-10, 12-16, 18-23, 25-28, 30-35, 56-60, 62-65, 67-71,
                  73-78, 80-83, 85-90, 111-119, 121-124, 126-130, 132-137,
                  139-142, 144-149
    2    7 N      6, 11, 17, 24, 29, 36, 61, 66, 72, 79, 84, 91, 120, 125,
                  131, 138, 143, 150
    3    1 H      37-55, 92-110, 151-168

          :  Hamiltonian                  GFN1-xTB          :
 * total energy  :  -285.4077643 Eh     change       -0.2864567E-08 Eh
 * total energy  :  -285.5440813 Eh     change       -0.1363170E+00 Eh
 * total energy  :  -285.6285499 Eh     change       -0.8446855E-01 Eh
 * total energy  :  -285.6652984 Eh     change       -0.3674856E-01 Eh
 * total energy  :  -285.7089254 Eh     change       -0.4362695E-01 Eh
 * total energy  :  -285.7549759 Eh     change       -0.4605049E-01 Eh
 * total energy  :  -285.7935123 Eh     change       -0.3853639E-01 Eh
 * total energy  :  -285.8238681 Eh     change       -0.3035580E-01 Eh
 * total energy  :  -285.8547664 Eh     change       -0.3089837E-01 Eh
 * total energy  :  -285.8813273 Eh     change       -0.2656087E-01 Eh
 * total energy  :  -286.0672346 Eh     change       -0.1212056E-04 Eh
 * total energy  :  -286.0672476 Eh     change       -0.1304074E-04 Eh
 * total energy  :  -286.0672619 Eh     change       -0.1430072E-04 Eh
 * total energy  :  -286.0672794 Eh     change       -0.1745068E-04 Eh
 * total energy  :  -286.0672892 Eh     change       -0.9830811E-05 Eh
 * total energy  :  -286.0672963 Eh     change       -0.7045109E-05 Eh
 * total energy  :  -286.0673022 Eh     change       -0.5993938E-05 Eh
 * total energy  :  -286.0673077 Eh     change       -0.5469324E-05 Eh
 * total energy  :  -286.0673106 Eh     change       -0.2921042E-05 Eh
   *** GEOMETRY OPTIMIZATION CONVERGED AFTER 68 ITERATIONS ***

 final structure:
================
168
 xtb: 6.5.1 (b24c23e)
C           25.68420496311740        0.07527684477246        0.00902946632084
C           26.29231037830535        1.30483105400733        0.22608871449208
C           25.64089384190377        2.55650216782779        0.41273848205817
C           26.60220863470397        3.50449451564442        0.62254381113805
C           27.87209267124701        2.86080351532638        0.57877517294994
N           27.63475610881040        1.54002590856754        0.32415085636565
C           29.13378349918629        3.44231678114338        0.74599817336359
C           29.16219041999318        4.88990262635365        1.06131033344167
C           29.80188038283025        5.80230283605947        0.22272355429564
C           29.79974592548655        7.14662089337688        0.55932023497034
N           29.21544586817781        7.61806056117743        1.65625562583162
C           28.60574133455443        6.75513998370908        2.46252152749621
C           28.54978409423249        5.39381999022094        2.20850064268888
C           30.35127876347384        2.76468743018802        0.64257590418174
C           31.64328848303943        3.37884746761858        0.89051664202486
C           32.56813323289191        2.41913394282082        0.68261212889075
N           30.51226956769718        1.45300314644864        0.31646134205726
C           31.84078976718089        1.21912166234474        0.31692885754715
C           32.48182958747006        0.00133998669934        0.01487745613664
C           31.84784147864795       -1.22279448283694       -0.26795927886198
C           32.48921836846857       -2.44343447025357       -0.60660302151818
C           31.52285179256717       -3.39402755619535       -0.78639180793195
C           30.25927683375429       -2.78191970757684       -0.55975767831091
N           30.50674554693426       -1.46860642071356       -0.26034051603580
C           28.99817607993798       -3.38150042698690       -0.64973727425285
C           28.97267861162026       -4.83294276837554       -0.94486159802398
C           29.57438741191034       -5.75662029573797       -0.09035565002461
C           29.52455884309346       -7.10459762547647       -0.40831410277869
N           28.93152901544626       -7.56909810266877       -1.50337045238486
C           28.35777528094939       -6.69551863069716       -2.32465123122805
C           28.34951859505930       -5.32982879461634       -2.08928969050785
C           27.77953596178406       -2.71457616931716       -0.48911169477282
C           26.47794171338832       -3.36262534402219       -0.53981849101901
C           25.56057977455358       -2.39123649938091       -0.36063361052069
C           26.30072319430569       -1.15340037116471       -0.18796540250431
N           27.63384353572035       -1.38818113289055       -0.25880607225644
H           24.59898927438136        0.08433314467066       -0.00168122296004
H           24.57258060154342        2.70002034908590        0.38322968171445
H           26.45159707596929        4.55943762358115        0.78474501241347
H           28.35909696630880        0.83695109226784        0.22329115968092
H           30.28082793658571        5.46514565808525       -0.68875939159426
H           30.28821878910018        7.87617197707991       -0.07998704822178
H           28.14071229410105        7.16972883856776        3.35220844990322
H           28.05296910889567        4.72641739910666        2.90272774410629
H           31.79948733700444        4.40005775668865        1.19797955604378
H           33.63952213293386        2.48840275992171        0.77904700362274
H           33.55484779869481       -2.56834336463221       -0.70914589407204
H           31.66887538856755       -4.42487315945908       -1.06490208155911
H           29.78598587982809       -0.77978437142553       -0.07167566923616
H           30.05893806935189       -5.42526741416907        0.82046302340575
H           29.98144001214792       -7.84257721763615        0.24460052272472
H           27.88397885366282       -7.10516707314645       -3.21194365909828
H           27.88057711191596       -4.65406118705435       -2.79449190211021
H           26.31452623471607       -4.41890077678054       -0.68074203669130
H           24.48536507337502       -2.47401679092554       -0.33364407484346
C           54.25118874579158       -0.02601255161324        0.00728730440588
C           53.65347632599710       -1.23064040928131       -0.33903525034940
C           54.31438154014630       -2.43667345276856       -0.70569306875716
C           53.35891171056403       -3.37848684320015       -0.96395583650694
C           52.08321052046411       -2.77993659705792       -0.75571737508117
N           52.31177132176286       -1.48478498262787       -0.38749065536524
C           50.82532078865883       -3.36788487184629       -0.92572685389626
C           50.81167020074479       -4.79782621823704       -1.31785502429001
C           50.25465235061797       -5.21595849285675       -2.52574283788064
C           50.26814250231199       -6.56458733690119       -2.84501482640151
N           50.78818065183336       -7.49278137019062       -2.04831426136749
C           51.31976312352920       -7.10292822039541       -0.89424460564689
C           51.35817458298165       -5.77781301313173       -0.48988336032627
C           49.60072538859506       -2.71828655666632       -0.75358181484961
C           48.31293396015919       -3.36879906109329       -0.91444059133318
C           47.37788875976083       -2.43028132030664       -0.66243718076415
N           49.42527897971017       -1.41681344054167       -0.39429292588902
C           48.09279970568693       -1.21315280013695       -0.33191256224805
C           47.43834381248868       -0.00886147604981       -0.00422734425093
C           48.06372383287636        1.20711726278269        0.32990683386865
C           47.41282769057101        2.42584316328062        0.65647577126080
C           48.37323511985056        3.36244458081506        0.92008153814063
C           49.64353230386597        2.73916808292240        0.77652038383807
N           49.40481449439985        1.44006296595344        0.41350002869223
C           50.90044420401788        3.33108601165193        0.94144745649864
C           50.91587282424532        4.75947029994077        1.33628993499254
C           50.35358305117848        5.18826248524947        2.53824669434165
C           50.39282804801794        6.53577675402838        2.86020870410810
N           50.94063543963443        7.45375780276948        2.07048174427392
C           51.47813473172856        7.05374977401591        0.92247869551493
C           51.49240338504708        5.72891083123976        0.51614622197459
C           52.12605862981921        2.68186333574313        0.76346847635598
C           53.42127062808147        3.30379543807552        0.99306032005124
C           54.34910801165613        2.36185924630476        0.73058474030744
C           53.62197219627866        1.16324052582760        0.35084382266413
N           52.28614530659739        1.39082681746075        0.38813354981752
H           55.33644556795703       -0.02339708911702        0.00902003620416
H           55.38465212355392       -2.55322452843022       -0.76635495314654
H           53.51689587335571       -4.39678583446165       -1.28023954201648
H           51.58304951936572       -0.80907650556774       -0.18379336815793
H           49.83030492555289       -4.49322669605159       -3.21235573919317
H           49.84353876110112       -6.91394285870169       -3.78160834330880
H           51.73401010241314       -7.88430647627001       -0.26373669225723
H           51.79108893644955       -5.50813716328324        0.46618299738717
H           48.16479196291807       -4.40393530559284       -1.17554473296285
H           46.30548983238069       -2.52967226593670       -0.69284117118873
H           46.34429021517400        2.56210688949890        0.68496988846354
H           48.21777412235524        4.39559188775360        1.18435963331249
H           50.13001323616100        0.75433547058288        0.23047000880319
H           49.90771310170366        4.47405291658775        3.22030146689801
H           49.96567601010818        6.89257561616262        3.79286714736764
H           51.91589238966053        7.82699157275821        0.29793458831937
H           51.93072640935117        5.45087835643167       -0.43489347531465
H           53.57366815876204        4.31873900412272        1.32308508712108
H           55.42367121615460        2.43741081625451        0.78765596499130
C           33.89120499364422       -0.00725489373869       -0.00404219033427
C           35.10802290954123       -0.00964781858197       -0.02621886124012
C           44.81045393235826       -0.00342579449907       -0.00554965462045
C           46.02785961086893       -0.00589742200486       -0.00673595348153
C           36.51669454487864       -0.01268460495427       -0.04098432039318
C           37.14400462865651       -1.24654419609397        0.21357165585929
C           36.50072728591282       -2.47470064781632        0.51499625452068
C           37.46794733438638       -3.42689491852575        0.68587054356239
C           38.73189805235975       -2.80627125832471        0.49174976619916
N           38.48582145327891       -1.48820551377577        0.21614165436085
C           39.99191084778778       -3.40662419854432        0.59884161605479
C           40.00001419133699       -4.86455991442624        0.87254285592679
C           40.55402239543957       -5.38248474525647        2.04244313938503
C           40.53487502665684       -6.75275180632835        2.24981389159391
N           40.01239375380962       -7.61020787950579        1.37892553986977
C           39.48339341570696       -7.12486194188579        0.26049248111122
C           39.45037886238431       -5.77080346640705       -0.03356607623669
C           41.21982097463471       -2.75545658057417        0.47466883189738
C           42.50227691399096       -3.42828386930490        0.57632909241893
C           43.44507097005936       -2.47794237013097        0.41356237076791
N           41.40558696157226       -1.42810307245423        0.23462587718845
C           42.73988592126715       -1.23070937994676        0.19553397863244
C           43.40070933489952       -0.00407112047201       -0.01325508885925
C           42.77208453209424        1.23571923995677       -0.23670461695102
C           43.41482185751833        2.48300303580596       -0.44611207085755
C           42.44733449724403        3.43016882710228       -0.64074647401005
C           41.18280146271753        2.78505255433686       -0.56912144752659
N           41.42950706458103        1.46257088556843       -0.31412131338204
C           39.92291660213486        3.37832695789676       -0.71432943840337
C           39.91073849494824        4.83154317494071       -1.01091711275031
C           39.32365042601975        5.74306260940654       -0.13404381536792
C           39.33882569707899        7.09206509765626       -0.45131716197600
N           39.88721149944818        7.56826700487285       -1.56454481870276
C           40.44587244096944        6.70596081798532       -2.40750988076074
C           40.48515347635421        5.34002056075457       -2.17532856912671
C           38.69494146099441        2.72373152841997       -0.60758742226824
C           37.41395385924640        3.37025684848294       -0.83097801917768
C           36.47087753346711        2.42493214617053       -0.64046154497612
C           37.17612537059884        1.20262588012373       -0.30907972247869
N           38.50934995541140        1.40876020751661       -0.30883170994842
H           35.43412896385191       -2.60407393064460        0.59996296039580
H           37.32149482040215       -4.46458908282728        0.93749132242789
H           39.20314366084811       -0.79059259097759        0.04877489022534
H           40.98032445549342       -4.72019505555306        2.78636680245473
H           40.95694941465560       -7.17957791253199        3.15492027063744
H           39.06711324924763       -7.85011416098231       -0.43257051650325
H           39.01842463888105       -5.42138142617917       -0.96386838093940
H           42.64167224346333       -4.48413648070874        0.74166047875718
H           44.51663784252895       -2.58743157951124        0.43717346054519
H           44.48216487258715        2.63088797397003       -0.44824231865371
H           42.59520836185374        4.48378235187100       -0.81243429890439
H           40.71232586726902        0.75414133559035       -0.19971596855124
H           38.87464335273747        5.40117341300898        0.79081268166836
H           38.89183027927380        7.82129201432002        0.21798458314468
H           40.88205430529268        7.12473414756205       -3.30972923170970
H           40.94061024195675        4.67353958817016       -2.89813827816376
H           37.27713934055847        4.40203132787863       -1.11114406054717
H           35.40043770689890        2.51770517485998       -0.72710983565658

          :  Hamiltonian                  GFN1-xTB          :
         :: total energy            -286.067310638727 Eh    ::
         :: gradient norm              0.000280642134 Eh/a0 ::
         :: HOMO-LUMO gap              0.847011368216 eV    ::
         :: SCC energy              -290.643015535887 Eh    ::
         :: repulsion energy           4.725376412279 Eh    ::

    * Orbital Energies and Occupations

         #    Occupation            Energy/Eh            Energy/eV
      -------------------------------------------------------------
         1        2.0000           -0.8111395             -22.0722
       ...           ...                  ...                  ...
       249        2.0000           -0.4215749             -11.4716
       250        2.0000           -0.4215376             -11.4706
       251        2.0000           -0.4212832             -11.4637
       252        2.0000           -0.4212670             -11.4633
       253        2.0000           -0.4208606             -11.4522
       254        2.0000           -0.4205596             -11.4440
       255        2.0000           -0.4203263             -11.4377
       256        2.0000           -0.4059103             -11.0454
       257        2.0000           -0.4050435             -11.0218
       258        2.0000           -0.4049176             -11.0184
       259        2.0000           -0.3986431             -10.8476
       260        2.0000           -0.3911194             -10.6429
       261        2.0000           -0.3820509             -10.3961 (HOMO)
       262        0.0000           -0.3509238              -9.5491 (LUMO)
       263                         -0.3401678              -9.2564
       264                         -0.3383949              -9.2082
       265                         -0.3381019              -9.2002
       266                         -0.3376105              -9.1869
       267                         -0.3296768              -8.9710
       268                         -0.3086732              -8.3994
       269                         -0.3019198              -8.2157
       270                         -0.2981861              -8.1141
       271                         -0.2834971              -7.7143
       272                         -0.2829558              -7.6996
       ...                                ...                  ...
       560                          1.3320559              36.2471
      -------------------------------------------------------------
                  HL-Gap            0.0311271 Eh            0.8470 eV

Wiberg/Mayer (AO) data.
largest (>0.10) Wiberg bond orders for each atom

     #   Z sym  total        # sym  WBO       # sym  WBO       # sym  WBO
 ---------------------------------------------------------------------------
     1   6 C    3.925 --    35 C    1.366     2 C    1.347    37 H    0.971
     2   6 C    3.902 --     1 C    1.347     3 C    1.229     6 N    1.169
     3   6 C    3.954 --     4 C    1.596     2 C    1.229    38 H    0.976
     4   6 C    3.959 --     3 C    1.596     5 C    1.233    39 H    0.974
     5   6 C    3.897 --     7 C    1.303     4 C    1.233     6 N    1.178
     6   7 N    3.470 --     5 C    1.178     2 C    1.169    40 H    0.873
     7   6 C    3.939 --    14 C    1.333     5 C    1.303     8 C    1.031
     8   6 C    3.986 --    13 C    1.392     9 C    1.391     7 C    1.031
                            11 N    0.106
     9   6 C    3.987 --    10 C    1.443     8 C    1.391    41 H    0.973
                            12 C    0.108
    10   6 C    3.972 --     9 C    1.443    11 N    1.415    42 H    0.972
                            13 C    0.108
    11   7 N    3.029 --    12 C    1.416    10 C    1.415     8 C    0.106
    12   6 C    3.972 --    13 C    1.442    11 N    1.416    43 H    0.972
                             9 C    0.108
    13   6 C    3.986 --    12 C    1.442     8 C    1.392    44 H    0.973
                            10 C    0.108
    14   6 C    3.916 --     7 C    1.333    17 N    1.288    15 C    1.125
    15   6 C    3.966 --    16 C    1.710    14 C    1.125    45 H    0.973
    16   6 C    3.964 --    15 C    1.710    18 C    1.128    46 H    0.971
    17   7 N    3.021 --    18 C    1.342    14 C    1.288
    18   6 C    3.913 --    17 N    1.342    19 C    1.260    16 C    1.128
    19   6 C    3.937 --    18 C    1.260    20 C    1.256   111 C    1.178
    20   6 C    3.889 --    19 C    1.256    21 C    1.249    24 N    1.188
    21   6 C    3.959 --    22 C    1.582    20 C    1.249    47 H    0.972
    22   6 C    3.954 --    21 C    1.582    23 C    1.241    48 H    0.974
    23   6 C    3.899 --    25 C    1.306    22 C    1.241    24 N    1.167
    24   7 N    3.474 --    20 C    1.188    23 C    1.167    49 H    0.873
    25   6 C    3.924 --    32 C    1.322    23 C    1.306    26 C    1.032
    26   6 C    3.986 --    31 C    1.391    27 C    1.391    25 C    1.032
                            29 N    0.106
    27   6 C    3.985 --    28 C    1.443    26 C    1.391    50 H    0.973
                            30 C    0.108
    28   6 C    3.972 --    27 C    1.443    29 N    1.415    51 H    0.972
                            31 C    0.108
    29   7 N    3.029 --    28 C    1.415    30 C    1.415    26 C    0.106
    30   6 C    3.972 --    31 C    1.442    29 N    1.415    52 H    0.972
                            27 C    0.108
    31   6 C    3.986 --    30 C    1.442    26 C    1.391    53 H    0.973
                            28 C    0.108
    32   6 C    3.930 --    25 C    1.322    36 N    1.316    33 C    1.117
    33   6 C    3.967 --    34 C    1.724    32 C    1.117    54 H    0.973
    34   6 C    3.966 --    33 C    1.724    35 C    1.116    55 H    0.976
    35   6 C    3.928 --     1 C    1.366    36 N    1.301    34 C    1.116
    36   7 N    3.011 --    32 C    1.316    35 C    1.301
    37   1 H    1.002 --     1 C    0.971
    38   1 H    0.997 --     3 C    0.976
    39   1 H    1.004 --     4 C    0.974
    40   1 H    0.986 --     6 N    0.873
    41   1 H    1.004 --     9 C    0.973
    42   1 H    1.013 --    10 C    0.972
    43   1 H    1.013 --    12 C    0.972
    44   1 H    1.004 --    13 C    0.973
    45   1 H    1.004 --    15 C    0.973
    46   1 H    1.005 --    16 C    0.971
    47   1 H    1.005 --    21 C    0.972
    48   1 H    1.004 --    22 C    0.974
    49   1 H    0.987 --    24 N    0.873
    50   1 H    1.004 --    27 C    0.973
    51   1 H    1.013 --    28 C    0.972
    52   1 H    1.013 --    30 C    0.972
    53   1 H    1.004 --    31 C    0.973
    54   1 H    1.004 --    33 C    0.973
    55   1 H    0.998 --    34 C    0.976
    56   6 C    3.926 --    90 C    1.366    57 C    1.347    92 H    0.971
    57   6 C    3.902 --    56 C    1.347    58 C    1.229    61 N    1.169
    58   6 C    3.954 --    59 C    1.597    57 C    1.229    93 H    0.976
    59   6 C    3.959 --    58 C    1.597    60 C    1.233    94 H    0.974
    60   6 C    3.897 --    62 C    1.304    59 C    1.233    61 N    1.177
    61   7 N    3.470 --    60 C    1.177    57 C    1.169    95 H    0.874
    62   6 C    3.939 --    69 C    1.335    60 C    1.304    63 C    1.028
    63   6 C    3.986 --    68 C    1.393    64 C    1.393    62 C    1.028
                            66 N    0.107
    64   6 C    3.987 --    65 C    1.442    63 C    1.393    96 H    0.973
                            67 C    0.109
    65   6 C    3.972 --    64 C    1.442    66 N    1.415    97 H    0.972
                            68 C    0.108
    66   7 N    3.030 --    67 C    1.416    65 C    1.415    63 C    0.107
    67   6 C    3.972 --    68 C    1.442    66 N    1.416    98 H    0.972
                            64 C    0.109
    68   6 C    3.986 --    67 C    1.442    63 C    1.393    99 H    0.973
                            65 C    0.108
    69   6 C    3.916 --    62 C    1.335    72 N    1.287    70 C    1.124
    70   6 C    3.966 --    71 C    1.710    69 C    1.124   100 H    0.973
    71   6 C    3.964 --    70 C    1.710    73 C    1.128   101 H    0.968
    72   7 N    3.021 --    73 C    1.342    69 C    1.287
    73   6 C    3.913 --    72 N    1.342    74 C    1.260    71 C    1.128
    74   6 C    3.937 --    73 C    1.260    75 C    1.256   114 C    1.178
    75   6 C    3.889 --    74 C    1.256    76 C    1.249    79 N    1.188
    76   6 C    3.959 --    77 C    1.582    75 C    1.249   102 H    0.970
    77   6 C    3.954 --    76 C    1.582    78 C    1.241   103 H    0.974
    78   6 C    3.899 --    80 C    1.308    77 C    1.241    79 N    1.166
    79   7 N    3.474 --    75 C    1.188    78 C    1.166   104 H    0.873
    80   6 C    3.925 --    87 C    1.322    78 C    1.308    81 C    1.030
    81   6 C    3.986 --    82 C    1.392    86 C    1.392    80 C    1.030
                            84 N    0.106
    82   6 C    3.986 --    83 C    1.442    81 C    1.392   105 H    0.973
                            85 C    0.108
    83   6 C    3.972 --    82 C    1.442    84 N    1.416   106 H    0.972
                            86 C    0.108
    84   7 N    3.029 --    83 C    1.416    85 C    1.415    81 C    0.106
    85   6 C    3.972 --    86 C    1.442    84 N    1.415   107 H    0.972
                            82 C    0.108
    86   6 C    3.986 --    85 C    1.442    81 C    1.392   108 H    0.973
                            83 C    0.108
    87   6 C    3.930 --    80 C    1.322    91 N    1.316    88 C    1.117
    88   6 C    3.967 --    89 C    1.724    87 C    1.117   109 H    0.974
    89   6 C    3.966 --    88 C    1.724    90 C    1.116   110 H    0.976
    90   6 C    3.928 --    56 C    1.366    91 N    1.300    89 C    1.116
    91   7 N    3.011 --    87 C    1.316    90 C    1.300
    92   1 H    1.002 --    56 C    0.971
    93   1 H    0.997 --    58 C    0.976
    94   1 H    1.004 --    59 C    0.974
    95   1 H    0.986 --    61 N    0.874
    96   1 H    1.004 --    64 C    0.973
    97   1 H    1.013 --    65 C    0.972
    98   1 H    1.013 --    67 C    0.972
    99   1 H    1.004 --    68 C    0.973
   100   1 H    1.005 --    70 C    0.973
   101   1 H    1.007 --    71 C    0.968
   102   1 H    1.006 --    76 C    0.970
   103   1 H    1.004 --    77 C    0.974
   104   1 H    0.987 --    79 N    0.873
   105   1 H    1.004 --    82 C    0.973
   106   1 H    1.013 --    83 C    0.972
   107   1 H    1.013 --    85 C    0.972
   108   1 H    1.004 --    86 C    0.973
   109   1 H    1.005 --    88 C    0.974
   110   1 H    0.998 --    89 C    0.976
   111   6 C    3.929 --   112 C    2.573    19 C    1.178
   112   6 C    3.932 --   111 C    2.573   115 C    1.180
   113   6 C    3.932 --   114 C    2.574   133 C    1.179
   114   6 C    3.929 --   113 C    2.574    74 C    1.178
   115   6 C    3.925 --   149 C    1.260   116 C    1.252   112 C    1.180
   116   6 C    3.890 --   117 C    1.253   115 C    1.252   120 N    1.188
   117   6 C    3.956 --   118 C    1.577   116 C    1.253   151 H    0.972
   118   6 C    3.955 --   117 C    1.577   119 C    1.246   152 H    0.974
   119   6 C    3.895 --   121 C    1.299   118 C    1.246   120 N    1.168
   120   7 N    3.471 --   116 C    1.188   119 C    1.168   153 H    0.874
   121   6 C    3.927 --   128 C    1.338   119 C    1.299   122 C    1.027
   122   6 C    3.986 --   127 C    1.393   123 C    1.393   121 C    1.027
                           125 N    0.107
   123   6 C    3.987 --   124 C    1.442   122 C    1.393   154 H    0.973
                           126 C    0.109
   124   6 C    3.972 --   123 C    1.442   125 N    1.416   155 H    0.972
                           127 C    0.109
   125   7 N    3.030 --   126 C    1.416   124 C    1.416   122 C    0.107
   126   6 C    3.972 --   127 C    1.442   125 N    1.416   156 H    0.972
                           123 C    0.109
   127   6 C    3.986 --   126 C    1.442   122 C    1.393   157 H    0.973
                           124 C    0.109
   128   6 C    3.918 --   121 C    1.338   131 N    1.284   129 C    1.124
   129   6 C    3.966 --   130 C    1.710   128 C    1.124   158 H    0.973
   130   6 C    3.964 --   129 C    1.710   132 C    1.128   159 H    0.969
   131   7 N    3.008 --   132 C    1.342   128 C    1.284
   132   6 C    3.914 --   131 N    1.342   133 C    1.260   130 C    1.128
   133   6 C    3.925 --   132 C    1.260   134 C    1.252   113 C    1.179
   134   6 C    3.890 --   135 C    1.253   133 C    1.252   138 N    1.188
   135   6 C    3.956 --   136 C    1.577   134 C    1.253   160 H    0.970
   136   6 C    3.955 --   135 C    1.577   137 C    1.246   161 H    0.974
   137   6 C    3.895 --   139 C    1.299   136 C    1.246   138 N    1.167
   138   7 N    3.470 --   134 C    1.188   137 C    1.167   162 H    0.874
   139   6 C    3.927 --   146 C    1.338   137 C    1.299   140 C    1.028
   140   6 C    3.986 --   145 C    1.393   141 C    1.392   139 C    1.028
                           143 N    0.107
   141   6 C    3.987 --   142 C    1.442   140 C    1.392   163 H    0.973
                           144 C    0.109
   142   6 C    3.972 --   141 C    1.442   143 N    1.415   164 H    0.972
                           145 C    0.108
   143   7 N    3.030 --   144 C    1.416   142 C    1.415   140 C    0.107
   144   6 C    3.972 --   145 C    1.441   143 N    1.416   165 H    0.972
                           141 C    0.109
   145   6 C    3.986 --   144 C    1.441   140 C    1.393   166 H    0.973
                           142 C    0.108
   146   6 C    3.918 --   139 C    1.338   150 N    1.285   147 C    1.124
   147   6 C    3.966 --   148 C    1.710   146 C    1.124   167 H    0.973
   148   6 C    3.964 --   147 C    1.710   149 C    1.128   168 H    0.971
   149   6 C    3.914 --   150 N    1.342   115 C    1.260   148 C    1.128
   150   7 N    3.008 --   149 C    1.342   146 C    1.285
   151   1 H    1.005 --   117 C    0.972
   152   1 H    1.004 --   118 C    0.974
   153   1 H    0.987 --   120 N    0.874
   154   1 H    1.004 --   123 C    0.973
   155   1 H    1.013 --   124 C    0.972
   156   1 H    1.013 --   126 C    0.972
   157   1 H    1.004 --   127 C    0.973
   158   1 H    1.005 --   129 C    0.973
   159   1 H    1.006 --   130 C    0.969
   160   1 H    1.005 --   135 C    0.970
   161   1 H    1.004 --   136 C    0.974
   162   1 H    0.987 --   138 N    0.874
   163   1 H    1.004 --   141 C    0.973
   164   1 H    1.013 --   142 C    0.972
   165   1 H    1.013 --   144 C    0.972
   166   1 H    1.004 --   145 C    0.973
   167   1 H    1.005 --   147 C    0.973
   168   1 H    1.005 --   148 C    0.971
 ---------------------------------------------------------------------------

           -------------------------------------------------
          | TOTAL ENERGY             -286.067310638727 Eh   |
          | GRADIENT NORM               0.000280642134 Eh/α |
          | HOMO-LUMO GAP               0.847011368216 eV   |
           -------------------------------------------------

 * finished run on 2022/07/27 at 03:25:04.836
