   * xtb version 6.5.1 (b24c23e) compiled by 'conda@728c89f4b128' on 2022-07-12
          program call               : xtb Ni_H_C4_2.xyz --gfn 1 --opt -T 48

   ID    Z sym.   atoms
    1   28 Ni     1, 37
    2    6 C      2-6, 8-11, 13-18, 20-24, 38-42, 44-47, 49-54, 56-60, 73-76
    3    7 N      7, 12, 19, 25, 43, 48, 55, 61
    4    1 H      26-36, 62-72
########################################################################
[WARNING] Please study the warnings concerning your input carefully
-1- prog_main_parseArguments: Unknown option '-T' provided
########################################################################

          :  Hamiltonian                  GFN1-xTB          :
 * total energy  :  -138.3893055 Eh     change       -0.1101512E-08 Eh
 * total energy  :  -138.5201040 Eh     change       -0.1307985E+00 Eh
 * total energy  :  -138.5572009 Eh     change       -0.3709692E-01 Eh
 * total energy  :  -138.5805160 Eh     change       -0.2331513E-01 Eh
 * total energy  :  -138.5878046 Eh     change       -0.7288618E-02 Eh
 * total energy  :  -138.5903568 Eh     change       -0.2552121E-02 Eh
 * total energy  :  -138.5940799 Eh     change       -0.3723112E-02 Eh
 * total energy  :  -138.5956949 Eh     change       -0.1615081E-02 Eh
 * total energy  :  -138.5970881 Eh     change       -0.1393186E-02 Eh
 * total energy  :  -138.5978524 Eh     change       -0.7642892E-03 Eh
 * total energy  :  -138.5982773 Eh     change       -0.4249172E-03 Eh
 * total energy  :  -138.5984553 Eh     change       -0.1780036E-03 Eh
 * total energy  :  -138.5986000 Eh     change       -0.1447044E-03 Eh
 * total energy  :  -138.5986422 Eh     change       -0.4219956E-04 Eh
 * total energy  :  -138.5986782 Eh     change       -0.3598140E-04 Eh
 * total energy  :  -138.5986890 Eh     change       -0.1078150E-04 Eh
 * total energy  :  -138.5986854 Eh     change        0.3579747E-05 Eh
 * total energy  :  -138.5986980 Eh     change       -0.1255790E-04 Eh
 * total energy  :  -138.5987019 Eh     change       -0.3912762E-05 Eh
   *** GEOMETRY OPTIMIZATION CONVERGED AFTER 19 ITERATIONS ***

 final structure:
================
76
 xtb: 6.5.1 (b24c23e)
Ni           7.79679195240006       -0.02129085451837       -0.01011749552738
C            4.38634653414939       -0.05604317489742       -0.03812969551305
C            5.05234482291389       -0.90383408011402       -0.89900131468460
C            4.38966414248072       -1.79485987295609       -1.80533862460691
C            5.35925704272404       -2.45432017555324       -2.48090197907754
C            6.61167457105348       -1.96650799667339       -1.98371664868304
N            6.41437863986819       -1.01538297276660       -1.01538272824579
C            7.83764193488562       -2.41474386792196       -2.42946160350344
C            9.04725142594281       -1.96049759077169       -1.94749658742298
C           10.31270724430070       -2.44351773830485       -2.40918325738972
C           11.26091343692952       -1.77578520272297       -1.70991995088509
N            9.21666873010157       -1.00331276769869       -0.97444819262925
C           10.57083093431414       -0.88598408568359       -0.82721407084561
C           11.22563496936310       -0.01276889570614        0.04443582063993
C           10.53949127737824        0.86358408378023        0.88799999596182
C           11.19669025742952        1.76844817152539        1.78023518604180
C           10.22330587638876        2.44513958143844        2.43517491213802
C            8.97549610240037        1.94894889830543        1.94044262587658
N            9.18058814875646        0.97785404332594        0.98828548410134
C            7.74894106998631        2.39803633642256        2.38309665799009
C            6.53955152353192        1.92286760926642        1.92016533601059
C            5.26934860568309        2.38980836045267        2.39178945314828
C            4.32467542787223        1.69768464624997        1.71355455436292
C            5.02021897769940        0.81079647846874        0.82803641507583
N            6.37753975375642        0.95452196826023        0.96241722386928
H            3.30269114438216       -0.06887991158491       -0.04587627823100
H            3.31882336527578       -1.88604476351254       -1.89594727140159
H            5.25965686528438       -3.20644365589240       -3.24750152853724
H            7.85208742696006       -3.17444130209529       -3.20239596276488
H           10.43792995994257       -3.19690806873967       -3.17053976286398
H           12.33371027182637       -1.86178509056060       -1.77397591836377
H           12.26658348853356        1.85921138863848        1.87850985767556
H           10.32033357276779        3.21133298563296        3.18784518529726
H            7.73534373595694        3.16964472970913        3.14418398227280
H            5.14157038586330        3.15017995482129        3.14599696195145
H            3.25084708730817        1.76554609176219        1.78814941308529
Ni          21.26287422287057        0.02365779736589        0.00781392265603
C           24.67333655997897        0.06701724492819        0.00924943938909
C           24.00774214407426        1.27365568612071       -0.05717026206034
C           24.67084359240710        2.54241866666949       -0.12829458074266
C           23.70156418698741        3.48515426571925       -0.18421274379624
C           22.44891200087904        2.79018193670888       -0.14436662887005
N           22.64576454854718        1.43495107323876       -0.06788624538693
C           21.22315672654561        3.42210430832357       -0.17235156876469
C           20.01333547708738        2.76216189165729       -0.12137848641098
C           18.74808299430709        3.43053325087798       -0.13773363407195
C           17.79959723354572        2.46633479709206       -0.06960738608128
N           19.84351007974927        1.39939767262889       -0.04559876633386
C           18.48932417860744        1.21395530308447       -0.01528852868528
C           17.83395898772279       -0.01822557572270        0.04219104090292
C           18.51966742235576       -1.23438818932994        0.07653640022701
C           17.86209320353080       -2.50392310935686        0.12786759956275
C           18.83519700015652       -3.44549005231859        0.15696667865180
C           20.08321124784771       -2.74592202935734        0.12478469808465
N           19.87853459737871       -1.38680840410080        0.07358398863069
C           21.30956114572358       -3.37637346665294        0.15009840109464
C           22.51917592680971       -2.71380240605051        0.12711211541261
C           23.78915786242206       -3.37701742536537        0.16161160182007
C           24.73415691248553       -2.40897872652894        0.12537640822202
C           24.03903591958110       -1.15682050289969        0.06696215509019
N           22.68165162742611       -1.35308868285037        0.06991723094056
H           25.75699726984675        0.08135517459962        0.01194436876730
H           25.74172791773260        2.67047165576721       -0.13420440868123
H           23.80150978831161        4.55732880452948       -0.24535001028910
H           21.20903783980647        4.50418295014416       -0.23303841945666
H           18.62317392151561        4.50018958342566       -0.19402497109053
H           16.72682612289440        2.57335359645284       -0.05901160420178
H           16.79217007535032       -2.63692339492513        0.13963903550784
H           18.73783741714626       -4.51870830057514        0.19824759455054
H           21.32278295906003       -4.45930326214155        0.19387161001771
H           23.91657420203526       -4.44703247465913        0.20803046047477
H           25.80795257441169       -2.50973864578218        0.13479170676069
C           13.85376583145851       -0.02602891306675        0.06903114416670
C           12.63322910525448       -0.01273856088624        0.06492537172967
C           15.20586590223109       -0.02831928003848        0.06805155802734
C           16.42642556750786       -0.03143451611082        0.05777251991496

          :  Hamiltonian                  GFN1-xTB          :
         :: total energy            -138.598701904726 Eh    ::
         :: gradient norm              0.000447753923 Eh/a0 ::
         :: HOMO-LUMO gap              1.359010985746 eV    ::
         :: SCC energy              -140.765114483036 Eh    ::
         :: repulsion energy           2.231223031129 Eh    ::

    * Orbital Energies and Occupations

         #    Occupation            Energy/Eh            Energy/eV
      -------------------------------------------------------------
         1        2.0000           -0.7808202             -21.2472
       ...           ...                  ...                  ...
       117        2.0000           -0.4268245             -11.6145
       118        2.0000           -0.3985629             -10.8454
       119        2.0000           -0.3985575             -10.8453
       120        2.0000           -0.3983682             -10.8402
       121        2.0000           -0.3983681             -10.8401
       122        2.0000           -0.3974095             -10.8141
       123        2.0000           -0.3974095             -10.8141
       124        2.0000           -0.3969698             -10.8021
       125        2.0000           -0.3964941             -10.7892
       126        2.0000           -0.3964938             -10.7891
       127        2.0000           -0.3963767             -10.7860
       128        2.0000           -0.3963727             -10.7859
       129        2.0000           -0.3881809             -10.5629 (HOMO)
       130                         -0.3382382              -9.2039 (LUMO)
       131                         -0.3296511              -8.9703
       132                         -0.3296501              -8.9702
       133                         -0.3292709              -8.9599
       134                         -0.3292628              -8.9597
       135                         -0.3287494              -8.9457
       136                         -0.2970753              -8.0838
       137                         -0.2919743              -7.9450
       138                         -0.2563989              -6.9770
       139                         -0.2446438              -6.6571
       140                         -0.2320963              -6.3157
       ...                                ...                  ...
       270                          1.5182361              41.3133
      -------------------------------------------------------------
                  HL-Gap            0.0499427 Eh            1.3590 eV

Wiberg/Mayer (AO) data.
largest (>0.10) Wiberg bond orders for each atom

     #   Z sym  total        # sym  WBO       # sym  WBO       # sym  WBO
 ---------------------------------------------------------------------------
     1  28 Ni   3.013 --     7 N    0.665    25 N    0.665    19 N    0.662
                            12 N    0.662
     2   6 C    3.941 --     3 C    1.365    24 C    1.365    26 H    0.970
     3   6 C    3.923 --     2 C    1.365     7 N    1.218     4 C    1.170
     4   6 C    3.960 --     5 C    1.656     3 C    1.170    27 H    0.975
     5   6 C    3.962 --     4 C    1.656     6 C    1.171    28 H    0.975
     6   6 C    3.921 --     8 C    1.364     7 N    1.217     5 C    1.171
     7   7 N    3.407 --     3 C    1.218     6 C    1.217     1 Ni   0.665
     8   6 C    3.945 --     9 C    1.369     6 C    1.364    29 H    0.970
     9   6 C    3.916 --     8 C    1.369    12 N    1.204    10 C    1.177
    10   6 C    3.959 --    11 C    1.644     9 C    1.177    30 H    0.975
    11   6 C    3.962 --    10 C    1.644    13 C    1.185    31 H    0.973
    12   7 N    3.410 --    13 C    1.242     9 C    1.204     1 Ni   0.662
    13   6 C    3.906 --    14 C    1.269    12 N    1.242    11 C    1.185
    14   6 C    3.949 --    15 C    1.270    13 C    1.269    74 C    1.172
    15   6 C    3.907 --    14 C    1.270    19 N    1.241    16 C    1.185
    16   6 C    3.962 --    17 C    1.643    15 C    1.185    32 H    0.973
    17   6 C    3.959 --    16 C    1.643    18 C    1.177    33 H    0.975
    18   6 C    3.916 --    20 C    1.368    19 N    1.204    17 C    1.177
    19   7 N    3.410 --    15 C    1.241    18 C    1.204     1 Ni   0.662
    20   6 C    3.945 --    18 C    1.368    21 C    1.364    34 H    0.970
    21   6 C    3.921 --    20 C    1.364    25 N    1.217    22 C    1.171
    22   6 C    3.962 --    23 C    1.656    21 C    1.171    35 H    0.975
    23   6 C    3.960 --    22 C    1.656    24 C    1.170    36 H    0.975
    24   6 C    3.923 --     2 C    1.365    25 N    1.218    23 C    1.170
    25   7 N    3.407 --    24 C    1.218    21 C    1.217     1 Ni   0.665
    26   1 H    1.000 --     2 C    0.970
    27   1 H    0.998 --     4 C    0.975
    28   1 H    0.998 --     5 C    0.975
    29   1 H    1.000 --     8 C    0.970
    30   1 H    0.998 --    10 C    0.975
    31   1 H    1.002 --    11 C    0.973
    32   1 H    1.002 --    16 C    0.973
    33   1 H    0.998 --    17 C    0.975
    34   1 H    1.000 --    20 C    0.970
    35   1 H    0.998 --    22 C    0.975
    36   1 H    0.998 --    23 C    0.975
    37  28 Ni   3.013 --    43 N    0.665    61 N    0.665    55 N    0.662
                            48 N    0.662
    38   6 C    3.941 --    39 C    1.365    60 C    1.365    62 H    0.970
    39   6 C    3.923 --    38 C    1.365    43 N    1.218    40 C    1.170
    40   6 C    3.960 --    41 C    1.656    39 C    1.170    63 H    0.975
    41   6 C    3.962 --    40 C    1.656    42 C    1.171    64 H    0.975
    42   6 C    3.921 --    44 C    1.364    43 N    1.217    41 C    1.171
    43   7 N    3.407 --    39 C    1.218    42 C    1.217    37 Ni   0.665
    44   6 C    3.945 --    45 C    1.369    42 C    1.364    65 H    0.970
    45   6 C    3.916 --    44 C    1.369    48 N    1.204    46 C    1.177
    46   6 C    3.959 --    47 C    1.644    45 C    1.177    66 H    0.975
    47   6 C    3.962 --    46 C    1.644    49 C    1.185    67 H    0.973
    48   7 N    3.411 --    49 C    1.242    45 C    1.204    37 Ni   0.662
    49   6 C    3.906 --    50 C    1.269    48 N    1.242    47 C    1.185
    50   6 C    3.949 --    51 C    1.270    49 C    1.269    76 C    1.172
    51   6 C    3.907 --    50 C    1.270    55 N    1.241    52 C    1.185
    52   6 C    3.962 --    53 C    1.643    51 C    1.185    68 H    0.973
    53   6 C    3.959 --    52 C    1.643    54 C    1.177    69 H    0.975
    54   6 C    3.916 --    56 C    1.368    55 N    1.204    53 C    1.177
    55   7 N    3.410 --    51 C    1.241    54 C    1.204    37 Ni   0.662
    56   6 C    3.945 --    54 C    1.368    57 C    1.364    70 H    0.970
    57   6 C    3.921 --    56 C    1.364    61 N    1.217    58 C    1.171
    58   6 C    3.962 --    59 C    1.656    57 C    1.171    71 H    0.975
    59   6 C    3.960 --    58 C    1.656    60 C    1.170    72 H    0.975
    60   6 C    3.923 --    38 C    1.365    61 N    1.218    59 C    1.170
    61   7 N    3.407 --    60 C    1.218    57 C    1.217    37 Ni   0.665
    62   1 H    1.000 --    38 C    0.970
    63   1 H    0.998 --    40 C    0.975
    64   1 H    0.998 --    41 C    0.975
    65   1 H    1.000 --    44 C    0.970
    66   1 H    0.998 --    46 C    0.975
    67   1 H    1.002 --    47 C    0.973
    68   1 H    1.002 --    52 C    0.973
    69   1 H    0.998 --    53 C    0.975
    70   1 H    1.000 --    56 C    0.970
    71   1 H    0.998 --    58 C    0.975
    72   1 H    0.998 --    59 C    0.975
    73   6 C    3.939 --    74 C    2.494    75 C    1.294
    74   6 C    3.925 --    73 C    2.494    14 C    1.172    76 C    0.199
    75   6 C    3.939 --    76 C    2.494    73 C    1.294
    76   6 C    3.925 --    75 C    2.494    50 C    1.172    74 C    0.199
 ---------------------------------------------------------------------------

           -------------------------------------------------
          | TOTAL ENERGY             -138.598701904726 Eh   |
          | GRADIENT NORM               0.000447753923 Eh/α |
          | HOMO-LUMO GAP               1.359010985746 eV   |
           -------------------------------------------------

 * finished run on 2022/07/30 at 02:08:11.543
