   * xtb version 6.5.1 (b24c23e) compiled by 'conda@728c89f4b128' on 2022-07-12
          program call               : xtb Ni_PhCHO_C4_3.xyz --gfn 1 --opt -T 48

   ID    Z sym.   atoms
    1   28 Ni     1, 61, 129
    2    6 C      2-6, 8-13, 15-19, 21-26, 28-33, 35-40, 62-66, 68-73, 75-79,
                  81-86, 88-93, 95-100, 121-128, 130-134, 136-141, 143-147,
                  149-154, 156-161, 163-168
    3    7 N      7, 20, 27, 41, 67, 80, 87, 101, 135, 148, 155, 169
    4    8 O      14, 34, 74, 94, 142, 162
    5    1 H      42-60, 102-120, 170-187
########################################################################
[WARNING] Please study the warnings concerning your input carefully
-1- prog_main_parseArguments: Unknown option '-T' provided
########################################################################

          :  Hamiltonian                  GFN1-xTB          :
 * total energy  :  -339.8427261 Eh     change        0.5842082E-08 Eh
 * total energy  :  -340.8590644 Eh     change       -0.1016338E+01 Eh
 * total energy  :  -341.0731399 Eh     change       -0.2140755E+00 Eh
 * total energy  :  -341.1881359 Eh     change       -0.1149960E+00 Eh
 * total energy  :  -341.2496483 Eh     change       -0.6151239E-01 Eh
 * total energy  :  -341.2803589 Eh     change       -0.3071059E-01 Eh
 * total energy  :  -341.2984342 Eh     change       -0.1807537E-01 Eh
 * total energy  :  -341.3065523 Eh     change       -0.8118112E-02 Eh
 * total energy  :  -341.3147670 Eh     change       -0.8214679E-02 Eh
 * total energy  :  -341.3198381 Eh     change       -0.5071046E-02 Eh
 * total energy  :  -341.3360998 Eh     change       -0.1493372E-04 Eh
 * total energy  :  -341.3361142 Eh     change       -0.1445682E-04 Eh
 * total energy  :  -341.3361288 Eh     change       -0.1452847E-04 Eh
 * total energy  :  -341.3361392 Eh     change       -0.1048608E-04 Eh
 * total energy  :  -341.3361490 Eh     change       -0.9752183E-05 Eh
 * total energy  :  -341.3361555 Eh     change       -0.6477055E-05 Eh
 * total energy  :  -341.3361546 Eh     change        0.8988318E-06 Eh
 * total energy  :  -341.3361681 Eh     change       -0.1350674E-04 Eh
 * total energy  :  -341.3361720 Eh     change       -0.3911306E-05 Eh
   *** GEOMETRY OPTIMIZATION CONVERGED AFTER 46 ITERATIONS ***

 final structure:
================
187
 xtb: 6.5.1 (b24c23e)
Ni          32.04756375707241        0.01374684996750       -0.03016102518332
C           28.65578879265430        0.07185173137536       -0.15929790753940
C           29.32083996179356        1.27808727141051       -0.09381001120718
C           28.65334539703477        2.54351355705501       -0.05870333568194
C           29.61261417180393        3.48333758614686        0.10676413150691
C           30.86742818927434        2.79131190509343        0.15910332965461
N           30.67885554979964        1.43879950876235        0.02388531256338
C           32.08473620165675        3.41552159829464        0.39824689432320
C           32.10249118832920        4.88427047823038        0.59883950221680
C           32.47382645342807        5.42214576155908        1.83428514439415
C           32.48799172376978        6.79087492559477        2.02217710221438
C           32.13651427779686        7.65206218592430        0.97749182233079
C           32.16221195803696        9.10910790598729        1.20282683218816
O           32.47262046260332        9.61854686557846        2.24895590228736
C           31.76856427939453        7.11493174243323       -0.25830633124793
C           31.74959450306754        5.74385687955754       -0.44441204533753
C           33.28817152675371        2.72558035789324        0.45165276825348
C           34.55667254059464        3.36058517158607        0.64549522634439
C           35.49928599440334        2.39576937087940        0.52514507088062
N           33.45322972193618        1.37748584243676        0.22638312134236
C           34.80563346716702        1.17641289401479        0.25671402597712
C           35.46082174193214       -0.03276367960498        0.00953064259422
C           34.77803794282022       -1.22892726348137       -0.22378738223795
C           35.44215577756336       -2.46823403821365       -0.47483386617186
C           34.47700692090871       -3.41345593749557       -0.57106869087113
C           33.22517649627137       -2.74730355050846       -0.37385574719400
N           33.42095246977947       -1.39742573937708       -0.18993920378234
C           31.99914235991539       -3.39925939313901       -0.36704218675611
C           31.98124654972255       -4.87384400059021       -0.50784920993751
C           31.35760633454657       -5.46990791652450       -1.60730984135748
C           31.34431054055613       -6.84667454050625       -1.74384850867772
C           31.95011760894202       -7.65513656915858       -0.77916489204858
C           31.94739015018015       -9.12483925772480       -0.89971398977974
O           32.45238349376745       -9.86285773290292       -0.09321932743931
C           32.57188823350552       -7.05868929528313        0.32275887806711
C           32.59013896085676       -5.68360427696564        0.45546586648497
C           30.79004068926288       -2.72610455585648       -0.24738802119908
C           29.51299642386236       -3.37752204611631       -0.21545765992433
C           28.57663637323432       -2.40155089514203       -0.17130543006610
C           29.28224633608606       -1.15663424604141       -0.15869604028780
N           30.63888864993870       -1.36399086625134       -0.17818718804870
H           27.57291485490948        0.09011092016511       -0.19817279591773
H           27.58576391721934        2.67343298820696       -0.13683757745138
H           29.49323728792927        4.55048465777039        0.19956731259992
H           32.73702075032880        4.75596512454088        2.64806104488684
H           32.76963855757145        7.21720877431029        2.97901086935954
H           31.86749978188606        9.71265408195403        0.31798511778560
H           31.49843434625312        7.77633228667207       -1.07511315609709
H           31.47474358797270        5.32941309560547       -1.40780178587145
H           34.69863363059730        4.41246368481569        0.83172082361434
H           36.57069710112820        2.48701141654295        0.60112679831561
H           36.51037062899473       -2.58399478974315       -0.56168155269515
H           34.59175091411251       -4.46700319921352       -0.76643520100279
H           30.89733170967917       -4.84405119075676       -2.36358248675460
H           30.86324791510717       -7.30114134156126       -2.60386809987527
H           31.43501235975127       -9.50669555178865       -1.80840308172152
H           33.03693383353663       -7.69476627716467        1.06826052139558
H           33.06387595124423       -5.22408508696840        1.31555434386946
H           29.36564449941952       -4.44521532545161       -0.22169512423881
H           27.50279165001577       -2.49540622244284       -0.14354485093818
Ni          58.91296269206627       -0.03115498802344       -0.08320744988202
C           62.30658181565537       -0.07159351314870       -0.19198815858561
C           61.64276429442823       -1.27645212595761       -0.28663597825695
C           62.31297135733403       -2.53579393392732       -0.40065747914246
C           61.35384967640346       -3.48959355838551       -0.36808254668060
C           60.09635986439897       -2.81019520795027       -0.25272731318470
N           60.28359992584004       -1.45142320969246       -0.20935683299721
C           58.87461179839965       -3.46016815045706       -0.13809758538692
C           58.85464169546278       -4.94251312055406       -0.13494486620103
C           58.43973060779528       -5.63761073918205        1.00453541881469
C           58.42150736082562       -7.01909624362708        1.00981393234947
C           58.81222795164898       -7.73601663204649       -0.12596189612140
C           58.77906567632384       -9.20986948746027       -0.09681522744890
O           58.42945631142665       -9.85218675719908        0.86010315313162
C           59.22414052041505       -7.04166507228777       -1.26584308850972
C           59.24709970458425       -5.65806345829349       -1.26883017638526
C           57.66695159115059       -2.78316920021608       -0.03614600420096
C           56.39525244196782       -3.43923543040055        0.01274703587105
C           55.45319192358979       -2.46658378143575        0.00544881114299
N           57.50417161516743       -1.41661491208793       -0.06448544634097
C           56.15054298380211       -1.22109583225859       -0.04694844175741
C           55.49855996776989        0.01320106943868       -0.09866351513773
C           56.18297542190897        1.23045228158652       -0.11293200163843
C           55.52012871341287        2.49480918763337       -0.16068295438925
C           56.48550554662639        3.44208651488609       -0.09341171248392
C           57.73629096656950        2.75149119367198       -0.00097628264204
N           57.53976579193570        1.38988249225046       -0.03986067542114
C           58.96255434035692        3.39373782366744        0.10762333125534
C           58.98108459560931        4.87266156192683        0.19448873779089
C           59.59765753690980        5.62899829185660       -0.80590399819981
C           59.61159136226613        7.01048372576517       -0.73149310932419
C           59.01340211195649        7.66270710538607        0.34922425099036
C           59.01681220363967        9.13371488640651        0.45317638418750
O           58.51919766824453        9.74079993185179        1.36631063072609
C           58.39866082031036        6.90559444750036        1.35192220634186
C           58.37974026887928        5.52624538881747        1.27401550532556
C           60.17157063490013        2.71028704090449        0.11908416010077
C           61.44877849825954        3.35026820856393        0.24357474252624
C           62.38511111490498        2.37887960884940        0.14007540987752
C           61.67929604737562        1.14529376209919       -0.02716230748751
N           60.32265754261399        1.35298461415214       -0.01528126558247
H           63.38966122529229       -0.08418808211160       -0.22748814548242
H           63.38197534862364       -2.65407797861204       -0.47781413631045
H           61.47463405816587       -4.55988967855748       -0.40712993538891
H           58.14514314370192       -5.08371086959921        1.88868555711401
H           58.10584717684169       -7.56700667716255        1.89115733220864
H           59.10957934607981       -9.69220181326198       -1.04126899285470
H           59.52494573701414       -7.59039430846595       -2.15242182662241
H           59.55557530954820       -5.12110526182535       -2.15875032555310
H           56.25186909612820       -4.50710018721855        0.03234832866275
H           54.38019769930954       -2.56731381784639        0.02814496668545
H           54.45259924905769        2.62403809546528       -0.23599805663301
H           56.37191929604620        4.51350794527511       -0.11397736719220
H           60.05199543890389        5.12536513054201       -1.65173682286994
H           60.08718656024604        7.59047442514497       -1.51571738197281
H           59.52359587057396        9.64897046180691       -0.39053408522853
H           57.93935700190880        7.42090436620175        2.18866205012225
H           57.91111360700229        4.94125574944105        2.05728029195290
H           61.59615142562878        4.40711555893568        0.39546790965914
H           63.45902367607606        2.46776634066889        0.17927511193813
C           38.08779475153260       -0.05258482689948       -0.00462707558478
C           36.86644026625370       -0.04565719452127        0.00308769655065
C           39.43797496920410       -0.05310155494029       -0.00960551031382
C           40.65943030271474       -0.04774085504285       -0.01306354743982
C           51.52016774605026        0.03707005931652       -0.11756749656813
C           50.29902597595780        0.03110618795249       -0.10212427868189
C           52.87103021516683        0.03851785993643       -0.12152368232888
C           54.09214501888206        0.02931740515742       -0.11603523383239
Ni          45.47940512633594       -0.01934208301805       -0.01974233774808
C           42.06435020017136       -0.04028100671335       -0.01271202103509
C           42.72968997804507        1.17365293109843        0.18035604799255
C           42.05251050024851        2.41936049543744        0.35008496616268
C           43.00153377757275        3.34013592794819        0.64624036850461
C           44.25520263563522        2.65018860683943        0.66115837799060
N           44.08046700335065        1.32559465955710        0.33226964809453
C           45.46102053900138        3.24236985466019        1.01377326754124
C           45.44847837107388        4.64914759911412        1.47704345310286
C           46.13666255164647        5.63670773301236        0.76625020466251
C           46.11890365410834        6.94806811216525        1.20102408800279
C           45.41974230339990        7.29995101571513        2.36020886440205
C           45.41997414591091        8.70610775283249        2.80539898313303
O           45.98871087334319        9.59194084630050        2.22091520168530
C           44.73448414768988        6.31311265078270        3.07271553468259
C           44.74557262353431        5.00155704201524        2.63231850515401
C           46.67612547751915        2.57358891257734        0.94759123778395
C           47.92686923125588        3.14828560524087        1.33973353362159
C           48.88713591636829        2.24625308925277        1.02357645216351
N           46.86466764403066        1.30727113720885        0.44256580629060
C           48.21935712850444        1.11970059054147        0.45391638778665
C           48.89350755408734        0.01770114048350       -0.07890842056398
C           48.22490846817765       -1.10320888880099       -0.57830707236723
C           48.89757468524535       -2.22541875017227       -1.15063616395150
C           47.94839120091876       -3.15735406803246       -1.40856124662589
C           46.69941037326592       -2.60226294730247       -0.98442124196803
N           46.87630206659023       -1.32182958245885       -0.51230908172105
C           45.49651699373412       -3.29591131528397       -1.00447744503294
C           45.50117129543693       -4.71261804436135       -1.43650819812153
C           46.22185796301544       -5.66980077427774       -0.71756407870987
C           46.22206466817389       -6.99373901944038       -1.11996365236794
C           45.50784063432103       -7.38424287912517       -2.25512649928271
C           45.49506112714867       -8.78760316031462       -2.70848245313649
O           44.90168130028645       -9.16901628207800       -3.68444777886018
C           44.79026540503074       -6.42506519905782       -2.97734871467625
C           44.78349817466452       -5.10492816291809       -2.57040658601453
C           44.28643069874239       -2.71536198153553       -0.64810675406827
C           43.04175621297044       -3.42088088599575       -0.61359035812655
C           42.08140196876598       -2.50497563875553       -0.34007054275204
C           42.74348709884377       -1.24795140979467       -0.19651355624425
N           44.09575697403762       -1.38626992838586       -0.34641478936818
H           40.98725697413257        2.55535534397549        0.25585336455199
H           42.87477305769838        4.39389701612043        0.83332297088895
H           46.67069755129943        5.36831674133305       -0.13820957899706
H           46.64409426627234        7.72223434534821        0.65194951492667
H           44.84527049844068        8.88907497427546        3.73822845960892
H           44.19244999542978        6.57710616966355        3.97496288411075
H           44.22085667365629        4.23520466225512        3.19167565414735
H           48.04474964474824        4.11618348277718        1.79870448337895
H           49.95393304882882        2.32192746417122        1.15867062597748
H           49.96011564051643       -2.27931685800703       -1.32430209453361
H           48.07228800020161       -4.13271855342935       -1.84990568974536
H           46.76887638746550       -5.37073382666012        0.16943953246382
H           46.77812694282574       -7.73245222774652       -0.55192737131601
H           46.08631219074447       -9.47856338388163       -2.07061305383289
H           44.24197950232262       -6.73690880900340       -3.85981551159596
H           44.23462640035093       -4.36131590020806       -3.13709871443543
H           42.92789781558713       -4.48019854475028       -0.77563199423791
H           41.01798679238354       -2.65176168808780       -0.24192100936242

          :  Hamiltonian                  GFN1-xTB          :
         :: total energy            -341.336171989925 Eh    ::
         :: gradient norm              0.000701657499 Eh/a0 ::
         :: HOMO-LUMO gap              1.062186142012 eV    ::
         :: SCC energy              -346.593340725295 Eh    ::
         :: repulsion energy           5.427504862729 Eh    ::

    * Orbital Energies and Occupations

         #    Occupation            Energy/Eh            Energy/eV
      -------------------------------------------------------------
         1        2.0000           -0.7958877             -21.6572
       ...           ...                  ...                  ...
       299        2.0000           -0.4118461             -11.2069
       300        2.0000           -0.4117987             -11.2056
       301        2.0000           -0.4113202             -11.1926
       302        2.0000           -0.4110520             -11.1853
       303        2.0000           -0.4110207             -11.1844
       304        2.0000           -0.4108323             -11.1793
       305        2.0000           -0.4107271             -11.1765
       306        2.0000           -0.4100190             -11.1572
       307        2.0000           -0.4099725             -11.1559
       308        2.0000           -0.4099382             -11.1550
       309        2.0000           -0.4098933             -11.1538
       310        2.0000           -0.4041677             -10.9980
       311        2.0000           -0.3959448             -10.7742 (HOMO)
       312                         -0.3569102              -9.7120 (LUMO)
       313                         -0.3473727              -9.4525
       314                         -0.3466949              -9.4340
       315                         -0.3459333              -9.4133
       316                         -0.3459284              -9.4132
       317                         -0.3429298              -9.3316
       318                         -0.3427916              -9.3278
       319                         -0.3426159              -9.3231
       320                         -0.3392284              -9.2309
       321                         -0.3300674              -8.9816
       322                         -0.3291925              -8.9578
       ...                                ...                  ...
       651                          1.5059201              40.9782
      -------------------------------------------------------------
                  HL-Gap            0.0390346 Eh            1.0622 eV

Wiberg/Mayer (AO) data.
largest (>0.10) Wiberg bond orders for each atom

     #   Z sym  total        # sym  WBO       # sym  WBO       # sym  WBO
 ---------------------------------------------------------------------------
     1  28 Ni   3.007 --    41 N    0.663     7 N    0.663    20 N    0.661
                            27 N    0.661
     2   6 C    3.935 --     3 C    1.364    40 C    1.364    42 H    0.970
     3   6 C    3.922 --     2 C    1.364     7 N    1.213     4 C    1.174
     4   6 C    3.960 --     5 C    1.651     3 C    1.174    43 H    0.975
     5   6 C    3.962 --     4 C    1.651     6 C    1.176    44 H    0.972
     6   6 C    3.919 --     8 C    1.322     7 N    1.222     5 C    1.176
     7   7 N    3.402 --     6 C    1.222     3 C    1.213     1 Ni   0.663
     8   6 C    3.938 --    17 C    1.328     6 C    1.322     9 C    1.025
     9   6 C    3.986 --    16 C    1.386    10 C    1.383     8 C    1.025
    10   6 C    3.988 --    11 C    1.470     9 C    1.383    45 H    0.972
                            15 C    0.100
    11   6 C    3.988 --    10 C    1.470    12 C    1.371    46 H    0.968
                            16 C    0.101
    12   6 C    3.985 --    15 C    1.379    11 C    1.371    13 C    1.048
    13   6 C    3.864 --    14 O    1.809    12 C    1.048    47 H    0.942
    14   8 O    2.005 --    13 C    1.809
    15   6 C    3.993 --    16 C    1.464    12 C    1.379    48 H    0.971
                            10 C    0.100
    16   6 C    3.988 --    15 C    1.464     9 C    1.386    49 H    0.972
                            11 C    0.101
    17   6 C    3.914 --     8 C    1.328    20 N    1.206    18 C    1.182
    18   6 C    3.958 --    19 C    1.637    17 C    1.182    50 H    0.972
    19   6 C    3.961 --    18 C    1.637    21 C    1.190    51 H    0.973
    20   7 N    3.406 --    21 C    1.239    17 C    1.206     1 Ni   0.661
    21   6 C    3.903 --    22 C    1.264    20 N    1.239    19 C    1.190
    22   6 C    3.944 --    23 C    1.265    21 C    1.264   122 C    1.181
    23   6 C    3.903 --    22 C    1.265    27 N    1.238    24 C    1.190
    24   6 C    3.961 --    25 C    1.637    23 C    1.190    52 H    0.973
    25   6 C    3.959 --    24 C    1.637    26 C    1.183    53 H    0.972
    26   6 C    3.914 --    28 C    1.326    27 N    1.208    25 C    1.183
    27   7 N    3.406 --    23 C    1.238    26 C    1.208     1 Ni   0.661
    28   6 C    3.938 --    26 C    1.326    37 C    1.321    29 C    1.030
    29   6 C    3.986 --    30 C    1.384    36 C    1.381    28 C    1.030
    30   6 C    3.988 --    31 C    1.465    29 C    1.384    54 H    0.972
                            35 C    0.101
    31   6 C    3.993 --    30 C    1.465    32 C    1.379    55 H    0.971
                            36 C    0.100
    32   6 C    3.984 --    31 C    1.379    35 C    1.370    33 C    1.048
    33   6 C    3.864 --    34 O    1.809    32 C    1.048    56 H    0.942
    34   8 O    2.005 --    33 C    1.809
    35   6 C    3.988 --    36 C    1.470    32 C    1.370    57 H    0.968
                            30 C    0.101
    36   6 C    3.988 --    35 C    1.470    29 C    1.381    58 H    0.972
                            31 C    0.100
    37   6 C    3.919 --    28 C    1.321    41 N    1.223    38 C    1.176
    38   6 C    3.963 --    39 C    1.650    37 C    1.176    59 H    0.972
    39   6 C    3.959 --    38 C    1.650    40 C    1.174    60 H    0.975
    40   6 C    3.922 --     2 C    1.364    41 N    1.213    39 C    1.174
    41   7 N    3.402 --    37 C    1.223    40 C    1.213     1 Ni   0.663
    42   1 H    1.000 --     2 C    0.970
    43   1 H    0.997 --     4 C    0.975
    44   1 H    1.004 --     5 C    0.972
    45   1 H    1.003 --    10 C    0.972
    46   1 H    1.005 --    11 C    0.968
    47   1 H    1.010 --    13 C    0.942
    48   1 H    1.000 --    15 C    0.971
    49   1 H    1.003 --    16 C    0.972
    50   1 H    1.004 --    18 C    0.972
    51   1 H    1.002 --    19 C    0.973
    52   1 H    1.002 --    24 C    0.973
    53   1 H    1.003 --    25 C    0.972
    54   1 H    1.004 --    30 C    0.972
    55   1 H    1.000 --    31 C    0.971
    56   1 H    1.010 --    33 C    0.942
    57   1 H    1.005 --    35 C    0.968
    58   1 H    1.004 --    36 C    0.972
    59   1 H    1.004 --    38 C    0.972
    60   1 H    0.997 --    39 C    0.975
    61  28 Ni   3.006 --   101 N    0.663    67 N    0.663    80 N    0.661
                            87 N    0.661
    62   6 C    3.935 --    63 C    1.365   100 C    1.364   102 H    0.970
    63   6 C    3.922 --    62 C    1.365    67 N    1.213    64 C    1.174
    64   6 C    3.960 --    65 C    1.651    63 C    1.174   103 H    0.975
    65   6 C    3.962 --    64 C    1.651    66 C    1.176   104 H    0.972
    66   6 C    3.919 --    68 C    1.322    67 N    1.223    65 C    1.176
    67   7 N    3.402 --    66 C    1.223    63 C    1.213    61 Ni   0.663
    68   6 C    3.938 --    77 C    1.328    66 C    1.322    69 C    1.026
    69   6 C    3.986 --    76 C    1.386    70 C    1.383    68 C    1.026
    70   6 C    3.988 --    71 C    1.470    69 C    1.383   105 H    0.972
                            75 C    0.100
    71   6 C    3.988 --    70 C    1.470    72 C    1.370   106 H    0.968
                            76 C    0.101
    72   6 C    3.985 --    75 C    1.379    71 C    1.370    73 C    1.049
    73   6 C    3.864 --    74 O    1.809    72 C    1.049   107 H    0.942
    74   8 O    2.005 --    73 C    1.809
    75   6 C    3.993 --    76 C    1.464    72 C    1.379   108 H    0.971
                            70 C    0.100
    76   6 C    3.988 --    75 C    1.464    69 C    1.386   109 H    0.972
                            71 C    0.101
    77   6 C    3.914 --    68 C    1.328    80 N    1.207    78 C    1.182
    78   6 C    3.959 --    79 C    1.638    77 C    1.182   110 H    0.972
    79   6 C    3.961 --    78 C    1.638    81 C    1.190   111 H    0.973
    80   7 N    3.407 --    81 C    1.239    77 C    1.207    61 Ni   0.661
    81   6 C    3.904 --    82 C    1.266    80 N    1.239    79 C    1.190
    82   6 C    3.944 --    83 C    1.267    81 C    1.266   128 C    1.178
    83   6 C    3.904 --    82 C    1.267    87 N    1.237    84 C    1.190
    84   6 C    3.961 --    85 C    1.637    83 C    1.190   112 H    0.973
    85   6 C    3.959 --    84 C    1.637    86 C    1.183   113 H    0.972
    86   6 C    3.914 --    88 C    1.326    87 N    1.208    85 C    1.183
    87   7 N    3.406 --    83 C    1.237    86 C    1.208    61 Ni   0.661
    88   6 C    3.938 --    86 C    1.326    97 C    1.322    89 C    1.029
    89   6 C    3.986 --    90 C    1.384    96 C    1.382    88 C    1.029
    90   6 C    3.988 --    91 C    1.465    89 C    1.384   114 H    0.972
                            95 C    0.101
    91   6 C    3.993 --    90 C    1.465    92 C    1.379   115 H    0.971
                            96 C    0.100
    92   6 C    3.984 --    91 C    1.379    95 C    1.371    93 C    1.048
    93   6 C    3.864 --    94 O    1.810    92 C    1.048   116 H    0.942
    94   8 O    2.005 --    93 C    1.810
    95   6 C    3.988 --    96 C    1.470    92 C    1.371   117 H    0.968
                            90 C    0.101
    96   6 C    3.988 --    95 C    1.470    89 C    1.382   118 H    0.972
                            91 C    0.100
    97   6 C    3.919 --    88 C    1.322   101 N    1.223    98 C    1.176
    98   6 C    3.963 --    99 C    1.650    97 C    1.176   119 H    0.972
    99   6 C    3.960 --    98 C    1.650   100 C    1.174   120 H    0.975
   100   6 C    3.922 --    62 C    1.364   101 N    1.213    99 C    1.174
   101   7 N    3.402 --    97 C    1.223   100 C    1.213    61 Ni   0.663
   102   1 H    1.000 --    62 C    0.970
   103   1 H    0.997 --    64 C    0.975
   104   1 H    1.004 --    65 C    0.972
   105   1 H    1.003 --    70 C    0.972
   106   1 H    1.005 --    71 C    0.968
   107   1 H    1.010 --    73 C    0.942
   108   1 H    1.000 --    75 C    0.971
   109   1 H    1.003 --    76 C    0.972
   110   1 H    1.004 --    78 C    0.972
   111   1 H    1.002 --    79 C    0.973
   112   1 H    1.002 --    84 C    0.973
   113   1 H    1.003 --    85 C    0.972
   114   1 H    1.004 --    90 C    0.972
   115   1 H    1.000 --    91 C    0.971
   116   1 H    1.010 --    93 C    0.942
   117   1 H    1.005 --    95 C    0.968
   118   1 H    1.003 --    96 C    0.972
   119   1 H    1.004 --    98 C    0.972
   120   1 H    0.997 --    99 C    0.975
   121   6 C    3.938 --   122 C    2.484   123 C    1.304
   122   6 C    3.926 --   121 C    2.484    22 C    1.181   124 C    0.200
   123   6 C    3.936 --   124 C    2.483   121 C    1.304
   124   6 C    3.928 --   123 C    2.483   130 C    1.184   122 C    0.200
   125   6 C    3.935 --   126 C    2.486   127 C    1.301
   126   6 C    3.926 --   125 C    2.486   150 C    1.180   128 C    0.200
   127   6 C    3.938 --   128 C    2.487   125 C    1.301
   128   6 C    3.925 --   127 C    2.487    82 C    1.178   126 C    0.200
   129  28 Ni   3.001 --   169 N    0.660   135 N    0.660   155 N    0.660
                           148 N    0.660
   130   6 C    3.935 --   131 C    1.262   168 C    1.262   124 C    1.184
   131   6 C    3.904 --   130 C    1.262   135 N    1.238   132 C    1.192
   132   6 C    3.959 --   133 C    1.634   131 C    1.192   170 H    0.973
   133   6 C    3.959 --   132 C    1.634   134 C    1.185   171 H    0.973
   134   6 C    3.912 --   136 C    1.323   135 N    1.207   133 C    1.185
   135   7 N    3.400 --   131 C    1.238   134 C    1.207   129 Ni   0.660
   136   6 C    3.934 --   145 C    1.325   134 C    1.323   137 C    1.030
   137   6 C    3.986 --   144 C    1.384   138 C    1.382   136 C    1.030
   138   6 C    3.988 --   139 C    1.470   137 C    1.382   172 H    0.972
                           143 C    0.100
   139   6 C    3.988 --   138 C    1.470   140 C    1.371   173 H    0.968
                           144 C    0.101
   140   6 C    3.984 --   143 C    1.379   139 C    1.371   141 C    1.047
   141   6 C    3.864 --   142 O    1.810   140 C    1.047   174 H    0.942
   142   8 O    2.005 --   141 C    1.810
   143   6 C    3.993 --   144 C    1.465   140 C    1.379   175 H    0.971
                           138 C    0.100
   144   6 C    3.988 --   143 C    1.465   137 C    1.384   176 H    0.972
                           139 C    0.101
   145   6 C    3.912 --   136 C    1.325   148 N    1.206   146 C    1.185
   146   6 C    3.960 --   147 C    1.635   145 C    1.185   177 H    0.973
   147   6 C    3.959 --   146 C    1.635   149 C    1.191   178 H    0.973
   148   7 N    3.399 --   149 C    1.238   145 C    1.206   129 Ni   0.660
   149   6 C    3.904 --   150 C    1.264   148 N    1.238   147 C    1.191
   150   6 C    3.934 --   149 C    1.264   151 C    1.264   126 C    1.180
   151   6 C    3.904 --   150 C    1.264   155 N    1.238   152 C    1.192
   152   6 C    3.959 --   153 C    1.634   151 C    1.192   179 H    0.973
   153   6 C    3.960 --   152 C    1.634   154 C    1.185   180 H    0.973
   154   6 C    3.913 --   156 C    1.323   155 N    1.207   153 C    1.185
   155   7 N    3.399 --   151 C    1.238   154 C    1.207   129 Ni   0.660
   156   6 C    3.934 --   165 C    1.324   154 C    1.323   157 C    1.030
   157   6 C    3.986 --   158 C    1.384   164 C    1.381   156 C    1.030
   158   6 C    3.988 --   159 C    1.464   157 C    1.384   181 H    0.972
                           163 C    0.101
   159   6 C    3.993 --   158 C    1.464   160 C    1.379   182 H    0.971
                           164 C    0.100
   160   6 C    3.984 --   159 C    1.379   163 C    1.370   161 C    1.048
   161   6 C    3.864 --   162 O    1.810   160 C    1.048   183 H    0.942
   162   8 O    2.005 --   161 C    1.810
   163   6 C    3.988 --   164 C    1.470   160 C    1.370   184 H    0.968
                           158 C    0.101
   164   6 C    3.987 --   163 C    1.470   157 C    1.381   185 H    0.972
                           159 C    0.100
   165   6 C    3.912 --   156 C    1.324   169 N    1.206   166 C    1.185
   166   6 C    3.959 --   167 C    1.634   165 C    1.185   186 H    0.973
   167   6 C    3.959 --   166 C    1.634   168 C    1.192   187 H    0.973
   168   6 C    3.904 --   130 C    1.262   169 N    1.239   167 C    1.192
   169   7 N    3.400 --   168 C    1.239   165 C    1.206   129 Ni   0.660
   170   1 H    1.002 --   132 C    0.973
   171   1 H    1.003 --   133 C    0.973
   172   1 H    1.004 --   138 C    0.972
   173   1 H    1.005 --   139 C    0.968
   174   1 H    1.010 --   141 C    0.942
   175   1 H    1.000 --   143 C    0.971
   176   1 H    1.004 --   144 C    0.972
   177   1 H    1.003 --   146 C    0.973
   178   1 H    1.001 --   147 C    0.973
   179   1 H    1.002 --   152 C    0.973
   180   1 H    1.003 --   153 C    0.973
   181   1 H    1.004 --   158 C    0.972
   182   1 H    1.000 --   159 C    0.971
   183   1 H    1.010 --   161 C    0.942
   184   1 H    1.005 --   163 C    0.968
   185   1 H    1.004 --   164 C    0.972
   186   1 H    1.003 --   166 C    0.973
   187   1 H    1.001 --   167 C    0.973
 ---------------------------------------------------------------------------

           -------------------------------------------------
          | TOTAL ENERGY             -341.336171989925 Eh   |
          | GRADIENT NORM               0.000701657499 Eh/α |
          | HOMO-LUMO GAP               1.062186142012 eV   |
           -------------------------------------------------

 * finished run on 2022/07/30 at 04:21:53.624
