   * xtb version 6.5.1 (b24c23e) compiled by 'conda@728c89f4b128' on 2022-07-12
          program call               : xtb Fe_NMA_C8_3.xyz --gfn 1 --opt -T 48

   ID    Z sym.   atoms
    1   26 Fe     1, 67, 149
    2    6 C      2-6, 8-12, 14-19, 21-26, 28-32, 34-40, 68-72, 74-78, 80-85,
                  87-92, 94-98, 100-106, 133-148, 150-154, 156-160, 162-167,
                  169-174, 176-180, 182-188
    3    7 N      7, 13, 20, 27, 33, 41, 73, 79, 86, 93, 99, 107, 155, 161,
                  168, 175, 181, 189
    4    1 H      42-66, 108-132, 190-213

          :  Hamiltonian                  GFN1-xTB          :
 * total energy  :  -332.6234176 Eh     change       -0.1955925E-08 Eh
 * total energy  :  -349.2989458 Eh     change       -0.1667553E+02 Eh
 * total energy  :  -351.3662520 Eh     change       -0.2067306E+01 Eh
 * total energy  :  -352.7307872 Eh     change       -0.1364535E+01 Eh
 * total energy  :  -353.3886793 Eh     change       -0.6578921E+00 Eh
 * total energy  :  -353.7410630 Eh     change       -0.3523837E+00 Eh
 * total energy  :  -353.9651080 Eh     change       -0.2240450E+00 Eh
 * total energy  :  -354.1306333 Eh     change       -0.1655253E+00 Eh
 * total energy  :  -354.2794670 Eh     change       -0.1488337E+00 Eh
 * total energy  :  -354.4460901 Eh     change       -0.1666231E+00 Eh
 * total energy  :  -355.4580937 Eh     change       -0.1508672E-04 Eh
 * total energy  :  -355.4581153 Eh     change       -0.2161999E-04 Eh
 * total energy  :  -355.4581328 Eh     change       -0.1752366E-04 Eh
 * total energy  :  -355.4581596 Eh     change       -0.2675647E-04 Eh
 * total energy  :  -355.4581717 Eh     change       -0.1205611E-04 Eh
 * total energy  :  -355.4581877 Eh     change       -0.1601160E-04 Eh
 * total energy  :  -355.4581983 Eh     change       -0.1063867E-04 Eh
 * total energy  :  -355.4582101 Eh     change       -0.1178166E-04 Eh
 * total energy  :  -355.4582125 Eh     change       -0.2450402E-05 Eh
   *** GEOMETRY OPTIMIZATION CONVERGED AFTER 122 ITERATIONS ***

 final structure:
================
213
 xtb: 6.5.1 (b24c23e)
Fe          30.97974019122279        0.06510736367602       -0.06201584632662
C           27.59999395661140        0.14171013392063       -0.13529345706055
C           28.24228290866385        0.88652352688711        0.83337426858160
C           27.56518390292449        1.64788699243198        1.83839143262781
C           28.51861243157750        2.33340125811122        2.51408972388640
C           29.77565780542205        2.00580076424111        1.90594185716726
N           29.59693442293457        1.07710093165009        0.91719344799313
C           30.98522024092268        2.61965408550240        2.22442008722909
C           30.98827559323688        3.71570031395911        3.21586063730354
C           30.19393399452689        4.85196881330770        3.03193645233347
C           30.20123095158429        5.87753077013124        3.95737818775261
C           30.99932445048466        5.79468296714662        5.10570348282793
N           30.92879136850487        6.82008170957153        6.03452039673638
C           32.03123275648634        7.03624415805553        6.96147978304970
C           31.78437313152967        4.65432293032192        5.30232941318189
C           31.78220765598156        3.63844395445371        4.36250918735310
C           32.18767769983900        2.24475416867924        1.63689824348895
C           33.43718158821003        2.90731491523508        1.86469796201904
C           34.38697439573562        2.18597467698209        1.21986101008201
N           32.37045940304876        1.16050924137944        0.81239964414547
C           33.71448361362563        1.09129887409901        0.59467732802846
C           34.38107643578955        0.03823714963975       -0.04596690590416
C           33.70474588130075       -1.01528300045164       -0.67619735827927
C           34.36557902172178       -2.13618184374416       -1.26615875089084
C           33.40775529744418       -2.86982755923457       -1.88462384181075
C           32.16645823952369       -2.18281433519758       -1.68550341457354
N           32.36083787159841       -1.07490820611961       -0.89484827237484
C           30.96550681462012       -2.54804237683291       -2.28127368869790
C           30.95241430862468       -3.68410809432935       -3.22651820903828
C           31.77130939023612       -3.68558311531828       -4.35801606535311
C           31.75971438193874       -4.74426794529600       -5.24936474436730
C           30.93409803073981       -5.84874408649364       -5.01747970077944
N           30.85194266910224       -6.91557963091591       -5.89755677916307
C           31.96972210987014       -7.21204335558847       -6.78315762840393
C           30.10725815711472       -5.85047964985563       -3.88663555174377
C           30.11433477663367       -4.78273059097008       -3.01028008430972
C           29.77056264648293       -1.87862492698630       -2.02387954762091
C           28.52711062628979       -2.16660214090449       -2.67811329674639
C           27.58140180771163       -1.40552405710264       -2.07655556896939
C           28.24940972758269       -0.64694759157265       -1.06317587501144
N           29.59502219107461       -0.90924553623889       -1.07525174937759
H           26.51639196248939        0.17012231327666       -0.16233834835741
H           26.49801508140458        1.64372158209560        1.99473504642166
H           28.39248147802980        2.99919477840265        3.35242925856622
H           29.58600011018189        4.93983326270365        2.13815450153403
H           29.58745125991944        6.75771718683720        3.79718501109029
H           30.57497805711342        7.68430499502246        5.64279739369595
H           32.98965860622727        7.11448892314748        6.43576962171135
H           32.08198340067452        6.21710205210638        7.68001966973971
H           31.83989613857345        7.96310360703759        7.50214659363015
H           32.39617716072314        4.55258309436494        6.19025927800847
H           32.38738617012626        2.75450502770898        4.53227182807207
H           33.56207730187498        3.81219684474968        2.43696229712556
H           35.44881947362471        2.36544747374133        1.16656269910736
H           35.42514520862308       -2.32627987734433       -1.20506427019308
H           33.52303130192934       -3.79603937635128       -2.42375938879716
H           32.40786690864817       -2.82999574861506       -4.55587449481478
H           32.39289892958264       -4.70396625217071       -6.12716920044073
H           30.46146101035518       -7.74799322551408       -5.47305868444376
H           32.06491005576370       -6.43190970142182       -7.53956155021871
H           31.76212668236483       -8.15845280602151       -7.28234895565568
H           32.91161475782353       -7.29353335857187       -6.22885936359939
H           29.46006346870871       -6.70118810153416       -3.70078249211576
H           29.48280006966696       -4.80713780499812       -2.12894918421432
H           28.40546458664348       -2.85749213760805       -3.49661368821676
H           26.52450117951373       -1.35203872220024       -2.28489374841412
Fe          68.05789137673617        0.01992383102241       -0.02584920362394
C           71.43672037163839        0.09733824061641       -0.15933041089010
C           70.79510900925969       -1.01251095336839       -0.67098035596489
C           71.47339720346854       -2.14960374834508       -1.21446653859752
C           70.51898346942943       -2.96022948054786       -1.73152190844300
C           69.25960668213379       -2.30733393768996       -1.51923102162540
N           69.43904423071564       -1.14483436105170       -0.82057514308114
C           68.04545493818704       -2.76050207815274       -2.03059099800069
C           68.04088972398735       -3.95696237243422       -2.89830235415267
C           68.81049014015427       -3.99803743195846       -4.06525980952730
C           68.79829684995077       -5.11232162314633       -4.88165538659067
C           68.02015015893768       -6.22900714585575       -4.55030904967637
N           68.08316267455115       -7.34468369653488       -5.36952015621133
C           66.98925702331192       -8.30640432277526       -5.36827526480478
C           67.26240357553695       -6.20047271267706       -3.37547647494399
C           67.26899292890369       -5.07412656771195       -2.57131985250068
C           66.83981698797544       -2.12330684595808       -1.76291264234079
C           65.58264096233444       -2.50459654616422       -2.33419881960230
C           64.63473067534467       -1.73409912435181       -1.74609935856744
N           66.66199576895553       -1.08956182655042       -0.87486065239862
C           65.31587551866801       -0.87946399021340       -0.82576765395565
C           64.65716656096487       -0.03104466522485        0.07418873487299
C           65.34166974493310        0.82341480287008        0.94913843953939
C           64.69093171608557        1.64128253282819        1.92312912683978
C           65.65074221020174        2.42191432083996        2.47776102858391
C           66.88278968583474        2.08932340411683        1.82664751901366
N           66.68281586660537        1.06603632667684        0.93063418643898
C           68.07910020735163        2.76877200192816        2.02215636022048
C           68.08978696674298        3.95394150261309        2.90491315755238
C           67.24734524261430        5.03941022028209        2.65361240368012
C           67.25382943270378        6.15581534074622        3.47134324975355
C           68.09866092766963        6.20604726873292        4.58441542735320
N           68.17549458345952        7.31489573970398        5.41167054249669
C           67.04222490929661        8.22482332378341        5.50893986971435
C           68.94913824171380        5.12232183367016        4.83853472881420
C           68.94633253902930        4.01799074264340        4.00856650629857
C           69.26868644963007        2.37755264719676        1.41092616863750
C           70.50834159847352        3.08962904824703        1.52673099308963
C           71.45283578917950        2.33579454699648        0.91423868014539
C           70.78709935221379        1.17198827982614        0.41342350506539
N           69.44422905884886        1.23357668338310        0.68195967319644
H           72.51966622756851        0.12461479407361       -0.20643176460890
H           72.54216119280937       -2.29314701555468       -1.19310596505704
H           70.64561637537865       -3.91761277800205       -2.21048246965366
H           69.40209891817736       -3.13341442355325       -4.34558875728434
H           69.39199978252211       -5.12662573745342       -5.78962702048544
H           68.41022157792446       -7.12990375869937       -6.30360799674289
H           66.02203102471695       -7.81598421098281       -5.52664059194058
H           66.96690518056397       -8.84622512533580       -4.42069120024546
H           67.16742402751919       -9.02036302928802       -6.17232390412820
H           66.66797217669016       -7.05689994441453       -3.08180168009111
H           66.68470075706375       -5.06848023184422       -1.65755225997058
H           65.45126284469224       -3.25858387976599       -3.09321070991903
H           63.56894459700035       -1.73546855323376       -1.90934776575390
H           63.63622878714595        1.61033244662774        2.14499752072228
H           65.54287643681704        3.15399758284608        3.26150713549119
H           66.59544833831183        5.01783743557525        1.78704118425376
H           66.60152529150184        6.98780849130012        3.23610984430107
H           68.58390967318667        7.10569881696827        6.31446811219967
H           66.92139465462586        8.77303889141798        4.57370472743059
H           67.24994699524451        8.93770116406292        6.30682264628323
H           66.11367527985048        7.68827562490775        5.73476583442465
H           69.61129663527051        5.15429050587088        5.69738675436676
H           69.59603462827930        3.17830884119081        4.22990283371654
H           70.62879736947632        4.04579774918444        2.00971615175158
H           72.50724144479655        2.53371320762627        0.80298226929079
C           35.78030479097682        0.03139262990597       -0.04649476051314
C           37.00717995316066        0.02348527867148       -0.04694376916922
C           38.34606261896193        0.01637980849659       -0.04747433055366
C           39.57927704563669        0.00357116528797       -0.04680274093444
C           40.91336767527102       -0.00084058559748       -0.04574047008183
C           42.14666372138537       -0.00947813629395       -0.04279870315467
C           43.48534986873675       -0.01309345561827       -0.04305765228343
C           44.71246692458859       -0.01425626442241       -0.04155558455729
C           54.32593242550388       -0.01256768472804        0.07890014096555
C           55.55287207388830       -0.02058734258882        0.09758445783164
C           56.89156390140577       -0.02817748807512        0.11293596435590
C           58.12482604119823       -0.03493615056694        0.12183920729591
C           59.45903500592377       -0.03685649872477        0.12654239834259
C           60.69229571239865       -0.03975361416448        0.12446674424448
C           62.03129068441492       -0.03996240469299        0.11513669573930
C           63.25808192871963       -0.03837184197193        0.10068542677522
Fe          49.51938715045355        0.00896391227917       -0.01152454185335
C           46.11094223620800       -0.00706418093654       -0.03598786647150
C           46.79357615263336       -1.09554736396316       -0.59661558012175
C           46.13898989812731       -2.24234513735774       -1.14078350316535
C           47.10206843630103       -2.99569206848755       -1.72789125220641
C           48.33920663240998       -2.29784644900877       -1.54758242803668
N           48.13914895822236       -1.16001360157181       -0.80565087701018
C           49.54786978802692       -2.68743056598346       -2.11645921576171
C           49.56131705115482       -3.84813648696372       -3.03059521730831
C           50.37799925343282       -4.95349329809916       -2.77075808971809
C           50.39421394130871       -6.03703832939402       -3.62696169119003
C           49.60576700311915       -6.04136604791369       -4.78526927447938
N           49.62663420087785       -7.16608792201045       -5.59221262963898
C           49.22329224021686       -7.06942038887113       -6.98808424083354
C           48.78243445649797       -4.94139108486274       -5.04654186362565
C           48.76153920917029       -3.86629791939819       -4.17555578793476
C           50.74679214170710       -2.03037331948041       -1.85718684492309
C           51.99789480380365       -2.36479612745075       -2.46789259075527
C           52.94636790587999       -1.61575515983612       -1.85207240442921
N           50.92427743161063       -1.03903877863284       -0.92371683771407
C           52.26837908216309       -0.81749084891568       -0.88131431670137
C           52.92767530710909       -0.00471095500260        0.05181185811717
C           52.24015842584564        0.82182538817794        0.95130105028855
C           52.88837212624327        1.63166160102732        1.93279888092537
C           51.92581185960598        2.40662665502429        2.49209470460879
C           50.69568663619633        2.07179496263851        1.84047179458599
N           50.89776271581367        1.05943770898332        0.93565106320820
C           49.49243317607828        2.73979009072629        2.04839594501990
C           49.48633502937625        3.92390933827620        2.93174110165138
C           48.65608838274933        3.97765758740778        4.05368270032827
C           48.65665380367226        5.07808479120397        4.89260323421550
C           49.49089397651083        6.16743238373348        4.62190958328703
N           49.49270400629803        7.31544748943309        5.39598337884929
C           49.05379539062624        7.25731037612568        6.78342128736455
C           50.31204609842188        6.12618968938039        3.48745036211007
C           50.31534915508161        5.01794098810026        2.66332141901143
C           48.29722174770350        2.33408351278945        1.46317889652619
C           47.05139217887529        3.02401975982176        1.61193172947347
C           46.10207198250063        2.24530083283156        1.03565534547737
C           46.77466272465588        1.09447187586736        0.52296252516677
N           48.11676395724184        1.17788490849701        0.74434401412955
H           45.07961684779337       -2.43253026694693       -1.07755726397766
H           46.99274841369611       -3.94197922702852       -2.23215147931060
H           50.98645211015972       -4.96844488457239       -1.87318846297008
H           51.02101751356532       -6.89448487994102       -3.40578836401688
H           50.45773775152657       -7.73031481608183       -5.46463248217726
H           48.15403222219445       -6.86510970692776       -7.05536105144047
H           49.77492938845330       -6.28104910863269       -7.51282667518341
H           49.42573030501448       -8.02875423062044       -7.46417953957143
H           48.15679170422079       -4.91816663481011       -5.93018690255803
H           48.13439785537045       -3.01055682846190       -4.40041814372373
H           52.12671303215546       -3.07624239139879       -3.26723160993268
H           54.00960783687787       -1.59596752962978       -2.02977912438336
H           53.94338375461709        1.60339032119398        2.15327942438924
H           52.03121232359993        3.13476919585673        3.27975559962116
H           48.01977169751740        3.13074084966747        4.28629129230984
H           48.00599299785701        5.08332356773467        5.75833051868910
H           50.32929065472239        7.87305598521248        5.27499634172208
H           49.58382960776157        6.47633827458347        7.34037617799640
H           49.25455377645356        8.22586098147599        7.24116242976816
H           47.98108569585921        7.06530957027848        6.82859452402108
H           50.94904018112640        6.97423115267714        3.25944704642082
H           50.94977246898472        5.00361580601074        1.78391897159408
H           46.92665593741486        3.98157189640743        2.09062584802935
H           45.04152211763365        2.42285891484886        0.95746086707687

          :  Hamiltonian                  GFN1-xTB          :
         :: total energy            -355.458212535469 Eh    ::
         :: gradient norm              0.000657506235 Eh/a0 ::
         :: HOMO-LUMO gap              0.047842502176 eV    ::
         :: SCC energy              -361.361086796162 Eh    ::
         :: repulsion energy           6.084806887388 Eh    ::

    * Orbital Energies and Occupations

         #    Occupation            Energy/Eh            Energy/eV
      -------------------------------------------------------------
         1        2.0000           -0.7823234             -21.2881
       ...           ...                  ...                  ...
       318        2.0000           -0.3873577             -10.5405
       319        1.9999           -0.3824345             -10.4066
       320        1.9936           -0.3780862             -10.2882
       321        1.9932           -0.3780267             -10.2866
       322        1.9928           -0.3779720             -10.2851
       323        1.9882           -0.3775013             -10.2723
       324        1.9723           -0.3766844             -10.2501
       325        1.9635           -0.3764190             -10.2429
       326        1.9593           -0.3763130             -10.2400
       327        1.9584           -0.3762911             -10.2394
       328        1.9554           -0.3762238             -10.2376
       329        1.9553           -0.3762227             -10.2375
       330        1.2002           -0.3730178             -10.1503 (HOMO)
       331        0.3816           -0.3712596             -10.1025 (LUMO)
       332        0.3443           -0.3711402             -10.0992
       333        0.3420           -0.3711324             -10.0990
       334                         -0.3372292              -9.1765
       335                         -0.3271030              -8.9009
       336                         -0.3209309              -8.7330
       337                         -0.3204512              -8.7199
       338                         -0.3175758              -8.6417
       339                         -0.3175752              -8.6417
       340                         -0.3030659              -8.2468
       341                         -0.2993934              -8.1469
       ...                                ...                  ...
       719                          1.6044367              43.6589
      -------------------------------------------------------------
                  HL-Gap            0.0017582 Eh            0.0478 eV

Wiberg/Mayer (AO) data.
largest (>0.10) Wiberg bond orders for each atom

     #   Z sym  total        # sym  WBO       # sym  WBO       # sym  WBO
 ---------------------------------------------------------------------------
     1  26 Fe   3.106 --     7 N    0.663    41 N    0.663    27 N    0.656
                            20 N    0.656
     2   6 C    3.916 --    40 C    1.364     3 C    1.361    42 H    0.970
     3   6 C    3.926 --     2 C    1.361     7 N    1.207     4 C    1.176
     4   6 C    3.957 --     5 C    1.645     3 C    1.176    43 H    0.975
     5   6 C    3.962 --     4 C    1.645     6 C    1.178    44 H    0.973
     6   6 C    3.918 --     8 C    1.306     7 N    1.227     5 C    1.178
     7   7 N    3.375 --     6 C    1.227     3 C    1.207     1 Fe   0.663
     8   6 C    3.920 --    17 C    1.327     6 C    1.306     9 C    1.042
     9   6 C    3.983 --    16 C    1.379    10 C    1.369     8 C    1.042
    10   6 C    3.986 --    11 C    1.480     9 C    1.369    45 H    0.972
    11   6 C    3.987 --    10 C    1.480    12 C    1.341    46 H    0.971
    12   6 C    3.949 --    15 C    1.350    11 C    1.341    13 N    1.114
    13   7 N    3.180 --    12 C    1.114    14 C    0.971    47 H    0.930
    14   6 C    3.967 --    50 H    0.990    49 H    0.986    48 H    0.984
                            13 N    0.971
    15   6 C    3.987 --    16 C    1.468    12 C    1.350    51 H    0.970
    16   6 C    3.984 --    15 C    1.468     9 C    1.379    52 H    0.972
    17   6 C    3.916 --     8 C    1.327    20 N    1.202    18 C    1.183
    18   6 C    3.958 --    19 C    1.633    17 C    1.183    53 H    0.973
    19   6 C    3.959 --    18 C    1.633    21 C    1.191    54 H    0.974
    20   7 N    3.374 --    21 C    1.244    17 C    1.202     1 Fe   0.656
    21   6 C    3.904 --    22 C    1.247    20 N    1.244    19 C    1.191
    22   6 C    3.917 --    21 C    1.247    23 C    1.246   133 C    1.210
    23   6 C    3.904 --    27 N    1.246    22 C    1.246    24 C    1.191
    24   6 C    3.958 --    25 C    1.633    23 C    1.191    55 H    0.974
    25   6 C    3.957 --    24 C    1.633    26 C    1.182    56 H    0.973
    26   6 C    3.917 --    28 C    1.329    27 N    1.200    25 C    1.182
    27   7 N    3.374 --    23 C    1.246    26 C    1.200     1 Fe   0.656
    28   6 C    3.920 --    26 C    1.329    37 C    1.304    29 C    1.042
    29   6 C    3.983 --    30 C    1.380    36 C    1.369    28 C    1.042
    30   6 C    3.986 --    31 C    1.467    29 C    1.380    57 H    0.972
    31   6 C    3.987 --    30 C    1.467    32 C    1.350    58 H    0.970
    32   6 C    3.949 --    31 C    1.350    35 C    1.341    33 N    1.114
    33   7 N    3.180 --    32 C    1.114    34 C    0.971    59 H    0.930
    34   6 C    3.967 --    61 H    0.990    60 H    0.986    62 H    0.984
                            33 N    0.971
    35   6 C    3.987 --    36 C    1.480    32 C    1.341    63 H    0.971
    36   6 C    3.984 --    35 C    1.480    29 C    1.369    64 H    0.972
    37   6 C    3.918 --    28 C    1.304    41 N    1.229    38 C    1.178
    38   6 C    3.962 --    39 C    1.645    37 C    1.178    65 H    0.973
    39   6 C    3.958 --    38 C    1.645    40 C    1.176    66 H    0.975
    40   6 C    3.926 --     2 C    1.364    41 N    1.206    39 C    1.176
    41   7 N    3.375 --    37 C    1.229    40 C    1.206     1 Fe   0.663
    42   1 H    1.001 --     2 C    0.970
    43   1 H    0.998 --     4 C    0.975
    44   1 H    1.005 --     5 C    0.973
    45   1 H    1.005 --    10 C    0.972
    46   1 H    0.999 --    11 C    0.971
    47   1 H    0.965 --    13 N    0.930
    48   1 H    1.003 --    14 C    0.984
    49   1 H    1.011 --    14 C    0.986
    50   1 H    1.007 --    14 C    0.990
    51   1 H    1.001 --    15 C    0.970
    52   1 H    1.005 --    16 C    0.972
    53   1 H    1.005 --    18 C    0.973
    54   1 H    1.002 --    19 C    0.974
    55   1 H    1.002 --    24 C    0.974
    56   1 H    1.005 --    25 C    0.973
    57   1 H    1.006 --    30 C    0.972
    58   1 H    1.001 --    31 C    0.970
    59   1 H    0.965 --    33 N    0.930
    60   1 H    1.011 --    34 C    0.986
    61   1 H    1.007 --    34 C    0.990
    62   1 H    1.003 --    34 C    0.984
    63   1 H    0.999 --    35 C    0.971
    64   1 H    1.005 --    36 C    0.972
    65   1 H    1.005 --    38 C    0.973
    66   1 H    0.998 --    39 C    0.975
    67  26 Fe   3.107 --    73 N    0.664   107 N    0.662    93 N    0.657
                            86 N    0.656
    68   6 C    3.917 --   106 C    1.363    69 C    1.362   108 H    0.970
    69   6 C    3.926 --    68 C    1.362    73 N    1.207    70 C    1.176
    70   6 C    3.957 --    71 C    1.645    69 C    1.176   109 H    0.975
    71   6 C    3.962 --    70 C    1.645    72 C    1.178   110 H    0.973
    72   6 C    3.919 --    74 C    1.306    73 N    1.227    71 C    1.178
    73   7 N    3.375 --    72 C    1.227    69 C    1.207    67 Fe   0.664
    74   6 C    3.921 --    83 C    1.328    72 C    1.306    75 C    1.041
    75   6 C    3.984 --    82 C    1.380    76 C    1.369    74 C    1.041
    76   6 C    3.986 --    77 C    1.479    75 C    1.369   111 H    0.972
    77   6 C    3.987 --    76 C    1.479    78 C    1.342   112 H    0.971
    78   6 C    3.949 --    81 C    1.350    77 C    1.342    79 N    1.113
    79   7 N    3.180 --    78 C    1.113    80 C    0.971   113 H    0.930
    80   6 C    3.967 --   116 H    0.990   115 H    0.986   114 H    0.984
                            79 N    0.971
    81   6 C    3.987 --    82 C    1.467    78 C    1.350   117 H    0.970
    82   6 C    3.985 --    81 C    1.467    75 C    1.380   118 H    0.972
    83   6 C    3.916 --    74 C    1.328    86 N    1.201    84 C    1.183
    84   6 C    3.958 --    85 C    1.634    83 C    1.183   119 H    0.973
    85   6 C    3.960 --    84 C    1.634    87 C    1.191   120 H    0.974
    86   7 N    3.374 --    87 C    1.244    83 C    1.201    67 Fe   0.656
    87   6 C    3.904 --    88 C    1.247    86 N    1.244    85 C    1.191
    88   6 C    3.917 --    87 C    1.247    89 C    1.246   148 C    1.209
    89   6 C    3.904 --    88 C    1.246    93 N    1.245    90 C    1.192
    90   6 C    3.958 --    91 C    1.633    89 C    1.192   121 H    0.974
    91   6 C    3.957 --    90 C    1.633    92 C    1.182   122 H    0.973
    92   6 C    3.916 --    94 C    1.329    93 N    1.200    91 C    1.182
    93   7 N    3.374 --    89 C    1.245    92 C    1.200    67 Fe   0.657
    94   6 C    3.921 --    92 C    1.329   103 C    1.305    95 C    1.042
    95   6 C    3.984 --    96 C    1.379   102 C    1.369    94 C    1.042
    96   6 C    3.984 --    97 C    1.467    95 C    1.379   123 H    0.972
    97   6 C    3.987 --    96 C    1.467    98 C    1.350   124 H    0.970
    98   6 C    3.949 --    97 C    1.350   101 C    1.342    99 N    1.113
    99   7 N    3.180 --    98 C    1.113   100 C    0.971   125 H    0.930
   100   6 C    3.967 --   127 H    0.990   126 H    0.986   128 H    0.984
                            99 N    0.971
   101   6 C    3.987 --   102 C    1.480    98 C    1.342   129 H    0.971
   102   6 C    3.984 --   101 C    1.480    95 C    1.369   130 H    0.972
   103   6 C    3.918 --    94 C    1.305   107 N    1.228   104 C    1.178
   104   6 C    3.962 --   105 C    1.645   103 C    1.178   131 H    0.973
   105   6 C    3.957 --   104 C    1.645   106 C    1.176   132 H    0.975
   106   6 C    3.926 --    68 C    1.363   107 N    1.206   105 C    1.176
   107   7 N    3.375 --   103 C    1.228   106 C    1.206    67 Fe   0.662
   108   1 H    1.001 --    68 C    0.970
   109   1 H    0.998 --    70 C    0.975
   110   1 H    1.005 --    71 C    0.973
   111   1 H    1.005 --    76 C    0.972
   112   1 H    0.999 --    77 C    0.971
   113   1 H    0.965 --    79 N    0.930
   114   1 H    1.003 --    80 C    0.984
   115   1 H    1.011 --    80 C    0.986
   116   1 H    1.007 --    80 C    0.990
   117   1 H    1.001 --    81 C    0.970
   118   1 H    1.005 --    82 C    0.972
   119   1 H    1.005 --    84 C    0.973
   120   1 H    1.002 --    85 C    0.974
   121   1 H    1.002 --    90 C    0.974
   122   1 H    1.005 --    91 C    0.973
   123   1 H    1.006 --    96 C    0.972
   124   1 H    1.001 --    97 C    0.970
   125   1 H    0.965 --    99 N    0.930
   126   1 H    1.011 --   100 C    0.986
   127   1 H    1.007 --   100 C    0.990
   128   1 H    1.003 --   100 C    0.984
   129   1 H    0.999 --   101 C    0.971
   130   1 H    1.005 --   102 C    0.972
   131   1 H    1.005 --   104 C    0.973
   132   1 H    0.998 --   105 C    0.975
   133   6 C    3.864 --   134 C    2.407    22 C    1.210   136 C    0.182
   134   6 C    3.924 --   133 C    2.407   135 C    1.366
   135   6 C    3.881 --   136 C    2.302   134 C    1.366   138 C    0.177
   136   6 C    3.915 --   135 C    2.302   137 C    1.392   133 C    0.182
   137   6 C    3.913 --   138 C    2.301   136 C    1.392   140 C    0.182
   138   6 C    3.882 --   137 C    2.301   139 C    1.367   135 C    0.177
   139   6 C    3.920 --   140 C    2.405   138 C    1.367
   140   6 C    3.865 --   139 C    2.405   150 C    1.213   137 C    0.182
   141   6 C    3.865 --   142 C    2.405   170 C    1.213   144 C    0.182
   142   6 C    3.920 --   141 C    2.405   143 C    1.367
   143   6 C    3.882 --   144 C    2.302   142 C    1.367   146 C    0.178
   144   6 C    3.913 --   143 C    2.302   145 C    1.392   141 C    0.182
   145   6 C    3.915 --   146 C    2.303   144 C    1.392   148 C    0.183
   146   6 C    3.881 --   145 C    2.303   147 C    1.366   143 C    0.178
   147   6 C    3.924 --   148 C    2.408   146 C    1.366
   148   6 C    3.864 --   147 C    2.408    88 C    1.209   145 C    0.183
   149  26 Fe   3.065 --   155 N    0.647   175 N    0.647   189 N    0.647
                           168 N    0.647
   150   6 C    3.904 --   151 C    1.245   188 C    1.243   140 C    1.213
   151   6 C    3.905 --   155 N    1.245   150 C    1.245   152 C    1.194
   152   6 C    3.959 --   153 C    1.630   151 C    1.194   190 H    0.974
   153   6 C    3.959 --   152 C    1.630   154 C    1.186   191 H    0.973
   154   6 C    3.913 --   156 C    1.316   155 N    1.207   153 C    1.186
   155   7 N    3.364 --   151 C    1.245   154 C    1.207   149 Fe   0.647
   156   6 C    3.914 --   165 C    1.316   154 C    1.316   157 C    1.043
   157   6 C    3.983 --   164 C    1.379   158 C    1.368   156 C    1.043
   158   6 C    3.986 --   159 C    1.481   157 C    1.368   192 H    0.972
   159   6 C    3.987 --   158 C    1.481   160 C    1.340   193 H    0.971
   160   6 C    3.949 --   163 C    1.349   159 C    1.340   161 N    1.116
   161   7 N    3.183 --   160 C    1.116   162 C    0.970   194 H    0.930
   162   6 C    3.966 --   197 H    0.990   195 H    0.986   196 H    0.983
                           161 N    0.970
   163   6 C    3.987 --   164 C    1.468   160 C    1.349   198 H    0.970
   164   6 C    3.986 --   163 C    1.468   157 C    1.379   199 H    0.972
   165   6 C    3.913 --   156 C    1.316   168 N    1.207   166 C    1.186
   166   6 C    3.959 --   167 C    1.629   165 C    1.186   200 H    0.973
   167   6 C    3.959 --   166 C    1.629   169 C    1.194   201 H    0.974
   168   7 N    3.364 --   169 C    1.246   165 C    1.207   149 Fe   0.647
   169   6 C    3.905 --   168 N    1.246   170 C    1.243   167 C    1.194
   170   6 C    3.905 --   171 C    1.245   169 C    1.243   141 C    1.213
   171   6 C    3.905 --   175 N    1.245   170 C    1.245   172 C    1.194
   172   6 C    3.958 --   173 C    1.629   171 C    1.194   202 H    0.974
   173   6 C    3.959 --   172 C    1.629   174 C    1.187   203 H    0.973
   174   6 C    3.913 --   176 C    1.314   175 N    1.208   173 C    1.187
   175   7 N    3.364 --   171 C    1.245   174 C    1.208   149 Fe   0.647
   176   6 C    3.914 --   185 C    1.317   174 C    1.314   177 C    1.043
   177   6 C    3.983 --   178 C    1.378   184 C    1.368   176 C    1.043
   178   6 C    3.986 --   179 C    1.468   177 C    1.378   204 H    0.972
   179   6 C    3.987 --   178 C    1.468   180 C    1.349   205 H    0.970
   180   6 C    3.949 --   179 C    1.349   183 C    1.340   181 N    1.116
   181   7 N    3.182 --   180 C    1.116   182 C    0.970   206 H    0.930
   182   6 C    3.966 --   208 H    0.990   209 H    0.986   207 H    0.983
                           181 N    0.970
   183   6 C    3.987 --   184 C    1.481   180 C    1.340   210 H    0.971
   184   6 C    3.985 --   183 C    1.481   177 C    1.368   211 H    0.972
   185   6 C    3.913 --   176 C    1.317   189 N    1.206   186 C    1.186
   186   6 C    3.959 --   187 C    1.630   185 C    1.186   212 H    0.973
   187   6 C    3.957 --   186 C    1.630   188 C    1.194   213 H    0.974
   188   6 C    3.905 --   189 N    1.247   150 C    1.243   187 C    1.194
   189   7 N    3.364 --   188 C    1.247   185 C    1.206   149 Fe   0.647
   190   1 H    1.001 --   152 C    0.974
   191   1 H    1.005 --   153 C    0.973
   192   1 H    1.005 --   158 C    0.972
   193   1 H    0.998 --   159 C    0.971
   194   1 H    0.964 --   161 N    0.930
   195   1 H    1.011 --   162 C    0.986
   196   1 H    1.003 --   162 C    0.983
   197   1 H    1.007 --   162 C    0.990
   198   1 H    1.001 --   163 C    0.970
   199   1 H    1.005 --   164 C    0.972
   200   1 H    1.005 --   166 C    0.973
   201   1 H    1.002 --   167 C    0.974
   202   1 H    1.002 --   172 C    0.974
   203   1 H    1.005 --   173 C    0.973
   204   1 H    1.006 --   178 C    0.972
   205   1 H    1.001 --   179 C    0.970
   206   1 H    0.965 --   181 N    0.930
   207   1 H    1.003 --   182 C    0.983
   208   1 H    1.007 --   182 C    0.990
   209   1 H    1.011 --   182 C    0.986
   210   1 H    0.998 --   183 C    0.971
   211   1 H    1.005 --   184 C    0.972
   212   1 H    1.005 --   186 C    0.973
   213   1 H    1.002 --   187 C    0.974
 ---------------------------------------------------------------------------

           -------------------------------------------------
          | TOTAL ENERGY             -355.458212535469 Eh   |
          | GRADIENT NORM               0.000657506235 Eh/α |
          | HOMO-LUMO GAP               0.047842502176 eV   |
           -------------------------------------------------

 * finished run on 2022/07/29 at 18:00:15.445
