   * xtb version 6.5.1 (b24c23e) compiled by 'conda@728c89f4b128' on 2022-07-12
          program call               : xtb Fe_C2Py_C6_3.xyz --gfn 1 --opt -T 48

   ID    Z sym.   atoms
    1   26 Fe     1, 59, 129
    2    6 C      2-6, 8-13, 15-19, 21-26, 28-33, 35-40, 60-64, 66-71, 73-77,
                  79-84, 86-91, 93-98, 117-128, 130-134, 136-141, 143-147,
                  149-154, 156-161, 163-168
    3    7 N      7, 14, 20, 27, 34, 41, 65, 72, 78, 85, 92, 99, 135, 142,
                  148, 155, 162, 169
    4    1 H      42-58, 100-116, 170-185
########################################################################
[WARNING] Please study the warnings concerning your input carefully
-1- prog_main_parseArguments: Unknown option '-T' provided
########################################################################

          :  Hamiltonian                  GFN1-xTB          :
 * total energy  :  -332.6129933 Eh     change       -0.1462558E-07 Eh
 * total energy  :  -333.1779207 Eh     change       -0.5649273E+00 Eh
 * total energy  :  -333.3366570 Eh     change       -0.1587363E+00 Eh
 * total energy  :  -333.4385266 Eh     change       -0.1018696E+00 Eh
 * total energy  :  -333.4904472 Eh     change       -0.5192068E-01 Eh
 * total energy  :  -333.5250288 Eh     change       -0.3458159E-01 Eh
 * total energy  :  -333.5508845 Eh     change       -0.2585567E-01 Eh
 * total energy  :  -333.5711540 Eh     change       -0.2026944E-01 Eh
 * total energy  :  -333.5873421 Eh     change       -0.1618812E-01 Eh
 * total energy  :  -333.6006062 Eh     change       -0.1326411E-01 Eh
 * total energy  :  -333.6730878 Eh     change       -0.2027859E-04 Eh
 * total energy  :  -333.6730807 Eh     change        0.7121013E-05 Eh
 * total energy  :  -333.6730769 Eh     change        0.3766059E-05 Eh
 * total energy  :  -333.6730856 Eh     change       -0.8723860E-05 Eh
 * total energy  :  -333.6730690 Eh     change        0.1659518E-04 Eh
 * total energy  :  -333.6730861 Eh     change       -0.1701796E-04 Eh
 * total energy  :  -333.6730877 Eh     change       -0.1672275E-05 Eh
 * total energy  :  -333.6731099 Eh     change       -0.2221249E-04 Eh
 * total energy  :  -333.6731131 Eh     change       -0.3193426E-05 Eh
   *** GEOMETRY OPTIMIZATION CONVERGED AFTER 104 ITERATIONS ***

 final structure:
================
185
 xtb: 6.5.1 (b24c23e)
Fe          29.79410923647914       -0.09570335046810        0.01038949226133
C           26.39144598903343       -0.06484321237276       -0.08064141492304
C           27.01924717323788        0.80063205813660        0.79019586836190
C           26.31730643224326        1.68530150661534        1.67044579069585
C           27.25888762499332        2.36764010496231        2.36465768479133
C           28.53015310371401        1.89685792385283        1.90379418143720
N           28.37591797015430        0.94500468675221        0.93906036939371
C           29.74867399290546        2.37563702117209        2.38981112502218
C           29.73005678735958        3.37746551618669        3.38424399124401
C           29.71487388339928        4.23964020195015        4.23807088515109
C           29.70128445621657        5.24359648336530        5.23332064782176
C           30.89072859332404        5.80227982883378        5.71554753198872
C           30.82381409192393        6.78207960032550        6.69000872292683
N           29.67669129119194        7.22500625701410        7.19836513983648
C           28.54161278725222        6.69900172254365        6.74514209276591
C           28.49902867114337        5.71582619915511        5.77266978760272
C           30.98352979705689        1.90827747950406        1.93961924895981
C           32.23346408213217        2.38967512921588        2.43977920069817
C           33.20266816054878        1.70926843556501        1.78064839207636
N           31.18024106588964        0.95026105607721        0.98159614863613
C           32.53717122784911        0.81812004109422        0.88290041847410
C           33.21728960461488       -0.04930450036461        0.02402360986422
C           32.56739074578088       -0.92665115443043       -0.84890316207539
C           33.26348223296788       -1.82753676663819       -1.71323936884964
C           32.31777669476080       -2.51719900608287       -2.39637559501207
C           31.05133131820123       -2.03149242599392       -1.94454020530421
N           31.21485373197555       -1.05362973854940       -1.00043760348998
C           29.83299583518511       -2.50705061333177       -2.42995343988417
C           29.84997872047016       -3.51458926434073       -3.41862629800710
C           29.86784952791678       -4.37960188416894       -4.26953067232247
C           29.89069938123698       -5.38773939340974       -5.26038674075952
C           31.09973251433501       -5.90573762391082       -5.73935012720470
C           31.06875787592605       -6.88903477590055       -6.71207271250810
N           29.93867249901330       -7.37276409396011       -7.22139802254645
C           28.78517351941820       -6.88524784342836       -6.77166955651209
C           28.70662130878818       -5.90183507731131       -5.80166848604073
C           28.59814220797971       -2.03123268336993       -1.98419924661819
C           27.34361955115133       -2.51513004231789       -2.47620810076042
C           26.37834750872856       -1.82899343919326       -1.81926558881500
C           27.04928797480845       -0.93061780437447       -0.92876144534538
N           28.41060525560331       -1.05944404042710       -1.04556460073485
H           25.30728433011907       -0.06779964887921       -0.09663162505785
H           25.24331043872037        1.75784606997326        1.73539204419988
H           27.12440535601737        3.12249333190685        3.12277406787951
H           31.84672941786760        5.47044828054294        5.32888968425434
H           31.73070819301596        7.23329222522481        7.08215797965858
H           27.62436986345048        7.08343800232572        7.18184641771109
H           27.55210331336630        5.31482915360190        5.43197422882667
H           32.33906178378198        3.14847447718413        3.19831302879892
H           34.27287057796497        1.79055668845798        1.88217703525171
H           34.33637504477186       -1.91226067285807       -1.77523406664593
H           32.44968541438541       -3.28777067643871       -3.13874108559419
H           32.04291633088203       -5.53969425647321       -5.35208158031483
H           31.99151977117690       -7.30914722940431       -7.10175050245489
H           27.88267048125669       -7.30238982102781       -7.20906181757219
H           27.74570151807958       -5.53273090893308       -5.46414170060739
H           27.23572996535676       -3.28196203568919       -3.22652292218979
H           25.30710807605548       -1.91072710246585       -1.91257507511836
Fe          61.74149105775827       -0.10268461347214       -0.11397155997532
C           65.13990975502422       -0.20670842890420       -0.20784189190319
C           64.45113527827559       -1.35409723797886       -0.54184394964599
C           65.08658780834668       -2.57253012099282       -0.94421233797760
C           64.09910308863843       -3.48085783052766       -1.13006956075874
C           62.86674027270188       -2.81235504308721       -0.83987761574929
N           63.08897525358712       -1.51246200532695       -0.49282451272731
C           61.62155749309868       -3.44484320508501       -0.87149367128594
C           61.56940898451234       -4.81552926925612       -1.20471627450427
C           61.51936958884178       -5.99243880239012       -1.49631628521310
C           61.45630165626901       -7.36255222354988       -1.83897914461070
C           60.23069350574485       -8.03489061858971       -1.91255158669785
C           60.22148066381679       -9.37553636116697       -2.25401289278360
N           61.32764343214738      -10.06616362542262       -2.51844105444104
C           62.49666768653126       -9.43432693486183       -2.45040794809919
C           62.61498926325888       -8.09635934514008       -2.11866788795828
C           60.42554785922962       -2.78207621723304       -0.59574847337905
C           59.14812648273885       -3.42347507429152       -0.62173620045230
C           58.22624852942852       -2.46147570236208       -0.37302885882661
N           60.29286579598816       -1.44894574046640       -0.31275608627976
C           58.94774574772396       -1.24014538703864       -0.19681858578287
C           58.32393247906772       -0.00427850386340        0.00575964501508
C           59.03207377569547        1.18833948440389        0.18331044830986
C           58.39746646705987        2.45075407652495        0.39906365783819
C           59.38842717432851        3.35032492345766        0.61417278724948
C           60.62078346938956        2.63105625572014        0.52299657525834
N           60.39149942278078        1.30974757318099        0.24765047246676
C           61.86924863104377        3.21854792163372        0.72857995188644
C           61.92277954862450        4.58744147975669        1.06883918558289
C           61.97040733274828        5.76429643041082        1.36109314016814
C           62.02434797770708        7.13574599896977        1.69998276085835
C           60.85582576075377        7.88057941881768        1.89791609893680
C           60.96299375290944        9.21946649385105        2.22956641431726
N           62.13019437372061        9.84247394547120        2.37101106332132
C           63.24562011939851        9.14129761948746        2.18490168261031
C           63.24794796263451        7.79838290327730        1.85212946314749
C           63.07049907270419        2.51587787904740        0.60571377281163
C           64.35710223188121        3.11332062425149        0.80060777051661
C           65.27516334776594        2.15407802441092        0.53322736815316
C           64.54372482480215        0.97506913344018        0.17940713555823
N           63.19246162035000        1.20586548744175        0.24708039179215
H           66.22292042832480       -0.23627777074810       -0.25145026017956
H           66.15141608500959       -2.69736078958367       -1.06039960764065
H           64.17872931022453       -4.51304164228935       -1.43158357534504
H           59.30596042696952       -7.51006926198157       -1.70520039679410
H           59.28506606447056       -9.92207408132824       -2.31919310149381
H           63.37875917236010      -10.02809132947976       -2.67215542156226
H           63.58728701347801       -7.62070212702694       -2.07507346767915
H           58.99237817932900       -4.47295126376874       -0.81313726617816
H           57.15369527880312       -2.55424596979248       -0.31729192833040
H           57.33119766614548        2.60981079234224        0.39052249836002
H           59.30850928452949        4.40604660765425        0.81768311221251
H           59.88464213600208        7.41229756795244        1.79283726482089
H           60.07309321860692        9.82148914259006        2.38912613330418
H           64.18015532565705        9.68105298069793        2.30796309247233
H           64.18003519490914        7.26495742200373        1.70992453067038
H           64.51737264646871        4.13757478339188        1.09701112839599
H           66.35113804464184        2.22010068499776        0.56280829085716
C           38.41786399885308       -0.10938492798309       -0.01947417060015
C           37.19044274443046       -0.07293967135039        0.01422598932209
C           35.84622111652801       -0.05251944093021        0.03438929130387
C           34.62240170275639       -0.04336326757132        0.03681907192751
C           39.75954107233648       -0.17218759561598       -0.07422994086552
C           40.97958210159541       -0.25181160394173       -0.13472423415589
C           54.35338763321958        0.01918316670719        0.02752376383330
C           53.12520075487400       -0.02582559165185        0.00451606615711
C           51.78516835108152       -0.10149685497545       -0.04385111445872
C           50.56545108640199       -0.19529932735835       -0.10364993540589
C           55.69650389757307        0.03684819429470        0.03487939647457
C           56.92106593203657        0.03340297064431        0.02643796827495
Fe          45.77538067260017       -0.54049296747822       -0.35127958071851
C           42.37639229356814       -0.36536088097260       -0.21829202565054
C           43.02533187805945        0.17880242885116       -1.33286080168093
C           42.33685840800093        0.77486338747568       -2.43421101489991
C           43.28628480905877        1.15528462969752       -3.32494632978411
C           44.54843444835276        0.81725010571925       -2.74527648915673
N           44.37519356987962        0.19480659041983       -1.53945787737571
C           45.77552587081237        1.19762699235226       -3.29277264915507
C           45.78390596573185        1.86966191879547       -4.53351726054380
C           45.79867644789435        2.43915914992088       -5.60510475574219
C           45.82073902398255        3.10673796690295       -6.85110759891529
C           47.02837234291203        3.49808700782463       -7.44112107232241
C           46.99723056724446        4.15182740434286       -8.66003421587115
N           45.86819394908871        4.43142932541266       -9.30618202395400
C           44.71618495800121        4.06289796383760       -8.75192378082258
C           44.63789311142777        3.40395681753621       -7.53777923564758
C           46.99151962588072        1.00962821434461       -2.63130366503191
C           48.23138708712814        1.56208030464382       -3.07858996318254
C           49.16928026864484        1.19526849670298       -2.17012267933842
N           47.16585225685948        0.30485968146730       -1.47311044535745
C           48.50028678057949        0.39389030931321       -1.19359346125049
C           49.17178121650838       -0.32253531230568       -0.19569507614504
C           48.52567074872611       -1.23266383521987        0.65039704165156
C           49.21680106863476       -2.09637820944280        1.55523059132833
C           48.27061043809566       -2.84116088657174        2.17940922643032
C           47.00742470699559       -2.40345859930016        1.67332760602016
N           47.17800369548854       -1.43881693839460        0.71778736762603
C           45.78100129357836       -2.82483007697884        2.18991225587006
C           45.77385577776090       -3.80804876967732        3.20205031388437
C           45.75582926406297       -4.66045158459901        4.06571029718250
C           45.72987987845543       -5.65308743039916        5.07202849736249
C           44.51835250461165       -6.12991058658136        5.58619480291901
C           44.54487805649804       -7.10100050561351        6.57131065962706
N           45.67291487298075       -7.60911646139103        7.06082181162386
C           46.82870281209766       -7.16061735187403        6.57782158534974
C           46.91177848954269       -6.19322642132276        5.59208811030261
C           44.56124307404020       -2.26458496244004        1.80066555376155
C           43.31890525803447       -2.54036488712823        2.45114799578888
C           42.37720953475311       -1.79596915919290        1.81982342641690
C           43.04687246429455       -1.09738394265644        0.76782191144374
N           44.38534555837060       -1.37430315436804        0.77901794748073
H           41.26584495287351        0.87409416225589       -2.50699765068605
H           43.15961932221981        1.64119270256899       -4.27896455727945
H           47.97029649810652        3.29034970093973       -6.94803355224596
H           47.91857841072634        4.46692709546256       -9.14124480322686
H           43.81479391216585        4.30689359388959       -9.30660727664498
H           43.67829753212337        3.12183552436327       -7.12181954232575
H           48.35163435780967        2.16126641907357       -3.96675648916748
H           50.22336974162926        1.42101238152550       -2.16112139051673
H           50.28727383855414       -2.12418824529997        1.67984663756437
H           48.39972835097772       -3.60294554468646        2.93130411487838
H           43.57693828340553       -5.74270690818910        5.21563441822458
H           43.62031809750147       -7.48998461440746        6.98798643846469
H           47.72916623143513       -7.59675015950474        7.00051344854946
H           47.87428080633695       -5.85598984803504        5.22696914755209
H           43.19953955090364       -3.20845167035604        3.28882307783845
H           41.32053534370758       -1.73186293457687        2.02350734180750

          :  Hamiltonian                  GFN1-xTB          :
         :: total energy            -333.673113144038 Eh    ::
         :: gradient norm              0.000772373223 Eh/a0 ::
         :: HOMO-LUMO gap              0.076820450481 eV    ::
         :: SCC energy              -339.533965637647 Eh    ::
         :: repulsion energy           6.016855078290 Eh    ::

    * Orbital Energies and Occupations

         #    Occupation            Energy/Eh            Energy/eV
      -------------------------------------------------------------
         1        2.0000           -0.7805258             -21.2392
       ...           ...                  ...                  ...
       298        2.0000           -0.4044029             -11.0044
       299        1.9992           -0.3995649             -10.8727
       300        1.9919           -0.3973828             -10.8133
       301        1.9913           -0.3973167             -10.8115
       302        1.9863           -0.3968851             -10.7998
       303        1.9658           -0.3960029             -10.7758
       304        1.9624           -0.3959129             -10.7733
       305        1.9574           -0.3957906             -10.7700
       306        1.9448           -0.3955382             -10.7631
       307        1.9369           -0.3954083             -10.7596
       308        1.9354           -0.3953847             -10.7590
       309        1.9278           -0.3952753             -10.7560
       310        1.5777           -0.3934071             -10.7052 (HOMO)
       311        0.3212           -0.3905840             -10.6283 (LUMO)
       312        0.2728           -0.3904017             -10.6234
       313        0.2292           -0.3902127             -10.6182
       314                         -0.3497140              -9.5162
       315                         -0.3477100              -9.4617
       316                         -0.3448365              -9.3835
       317                         -0.3443857              -9.3712
       318                         -0.3418241              -9.3015
       319                         -0.3404495              -9.2641
       320                         -0.3258405              -8.8666
       321                         -0.3171700              -8.6306
       ...                                ...                  ...
       655                          1.5654269              42.5974
      -------------------------------------------------------------
                  HL-Gap            0.0028231 Eh            0.0768 eV

Wiberg/Mayer (AO) data.
largest (>0.10) Wiberg bond orders for each atom

     #   Z sym  total        # sym  WBO       # sym  WBO       # sym  WBO
 ---------------------------------------------------------------------------
     1  26 Fe   3.179 --    41 N    0.670     7 N    0.670    27 N    0.665
                            20 N    0.665
     2   6 C    3.938 --     3 C    1.366    40 C    1.366    42 H    0.970
     3   6 C    3.915 --     2 C    1.366     7 N    1.202     4 C    1.174
     4   6 C    3.959 --     5 C    1.645     3 C    1.174    43 H    0.975
     5   6 C    3.960 --     4 C    1.645     6 C    1.181    44 H    0.973
     6   6 C    3.912 --     8 C    1.269     7 N    1.242     5 C    1.181
     7   7 N    3.387 --     6 C    1.242     3 C    1.202     1 Fe   0.670
     8   6 C    3.937 --    17 C    1.279     6 C    1.269     9 C    1.159
     9   6 C    3.957 --    10 C    2.623     8 C    1.159
    10   6 C    3.929 --     9 C    2.623    11 C    1.141
    11   6 C    3.987 --    16 C    1.350    12 C    1.350    10 C    1.141
    12   6 C    3.973 --    13 C    1.457    11 C    1.350    45 H    0.974
                            15 C    0.104
    13   6 C    3.973 --    12 C    1.457    14 N    1.407    46 H    0.972
                            16 C    0.104
    14   7 N    2.994 --    15 C    1.407    13 C    1.407
    15   6 C    3.973 --    16 C    1.457    14 N    1.407    47 H    0.972
                            12 C    0.104
    16   6 C    3.973 --    15 C    1.457    11 C    1.350    48 H    0.974
                            13 C    0.104
    17   6 C    3.906 --     8 C    1.279    20 N    1.222    18 C    1.188
    18   6 C    3.958 --    19 C    1.633    17 C    1.188    49 H    0.973
    19   6 C    3.959 --    18 C    1.633    21 C    1.189    50 H    0.973
    20   7 N    3.387 --    21 C    1.230    17 C    1.222     1 Fe   0.665
    21   6 C    3.897 --    22 C    1.263    20 N    1.230    19 C    1.189
    22   6 C    3.939 --    21 C    1.263    23 C    1.262   120 C    1.184
    23   6 C    3.897 --    22 C    1.262    27 N    1.230    24 C    1.189
    24   6 C    3.959 --    25 C    1.633    23 C    1.189    51 H    0.973
    25   6 C    3.958 --    24 C    1.633    26 C    1.188    52 H    0.973
    26   6 C    3.906 --    28 C    1.279    27 N    1.222    25 C    1.188
    27   7 N    3.387 --    23 C    1.230    26 C    1.222     1 Fe   0.665
    28   6 C    3.937 --    26 C    1.279    37 C    1.269    29 C    1.159
    29   6 C    3.957 --    30 C    2.623    28 C    1.159
    30   6 C    3.929 --    29 C    2.623    31 C    1.141
    31   6 C    3.987 --    36 C    1.350    32 C    1.350    30 C    1.141
    32   6 C    3.973 --    33 C    1.457    31 C    1.350    53 H    0.974
                            35 C    0.104
    33   6 C    3.973 --    32 C    1.457    34 N    1.407    54 H    0.972
                            36 C    0.104
    34   7 N    2.994 --    35 C    1.407    33 C    1.407
    35   6 C    3.973 --    36 C    1.457    34 N    1.407    55 H    0.972
                            32 C    0.104
    36   6 C    3.973 --    35 C    1.457    31 C    1.350    56 H    0.974
                            33 C    0.104
    37   6 C    3.912 --    28 C    1.269    41 N    1.242    38 C    1.181
    38   6 C    3.961 --    39 C    1.645    37 C    1.181    57 H    0.973
    39   6 C    3.959 --    38 C    1.645    40 C    1.174    58 H    0.975
    40   6 C    3.915 --     2 C    1.366    41 N    1.202    39 C    1.174
    41   7 N    3.387 --    37 C    1.242    40 C    1.202     1 Fe   0.670
    42   1 H    1.000 --     2 C    0.970
    43   1 H    0.997 --     4 C    0.975
    44   1 H    1.002 --     5 C    0.973
    45   1 H    1.002 --    12 C    0.974
    46   1 H    1.013 --    13 C    0.972
    47   1 H    1.013 --    15 C    0.972
    48   1 H    1.002 --    16 C    0.974
    49   1 H    1.003 --    18 C    0.973
    50   1 H    1.001 --    19 C    0.973
    51   1 H    1.001 --    24 C    0.973
    52   1 H    1.003 --    25 C    0.973
    53   1 H    1.002 --    32 C    0.974
    54   1 H    1.013 --    33 C    0.972
    55   1 H    1.013 --    35 C    0.972
    56   1 H    1.002 --    36 C    0.974
    57   1 H    1.002 --    38 C    0.973
    58   1 H    0.997 --    39 C    0.975
    59  26 Fe   3.115 --    99 N    0.665    65 N    0.662    78 N    0.660
                            85 N    0.657
    60   6 C    3.927 --    98 C    1.366    61 C    1.365   100 H    0.970
    61   6 C    3.916 --    60 C    1.365    65 N    1.202    62 C    1.175
    62   6 C    3.958 --    63 C    1.645    61 C    1.175   101 H    0.975
    63   6 C    3.961 --    62 C    1.645    64 C    1.182   102 H    0.973
    64   6 C    3.912 --    66 C    1.266    65 N    1.243    63 C    1.182
    65   7 N    3.381 --    64 C    1.243    61 C    1.202    59 Fe   0.662
    66   6 C    3.927 --    75 C    1.280    64 C    1.266    67 C    1.160
    67   6 C    3.956 --    68 C    2.623    66 C    1.160
    68   6 C    3.929 --    67 C    2.623    69 C    1.141
    69   6 C    3.987 --    74 C    1.350    70 C    1.350    68 C    1.141
    70   6 C    3.973 --    71 C    1.457    69 C    1.350   103 H    0.974
                            73 C    0.104
    71   6 C    3.973 --    70 C    1.457    72 N    1.407   104 H    0.972
                            74 C    0.104
    72   7 N    2.994 --    73 C    1.407    71 C    1.407
    73   6 C    3.972 --    74 C    1.456    72 N    1.407   105 H    0.972
                            70 C    0.104
    74   6 C    3.973 --    73 C    1.456    69 C    1.350   106 H    0.974
                            71 C    0.104
    75   6 C    3.906 --    66 C    1.280    78 N    1.220    76 C    1.188
    76   6 C    3.957 --    77 C    1.633    75 C    1.188   107 H    0.973
    77   6 C    3.959 --    76 C    1.633    79 C    1.190   108 H    0.973
    78   7 N    3.381 --    79 C    1.233    75 C    1.220    59 Fe   0.660
    79   6 C    3.896 --    80 C    1.257    78 N    1.233    77 C    1.190
    80   6 C    3.927 --    81 C    1.259    79 C    1.257   128 C    1.191
    81   6 C    3.896 --    80 C    1.259    85 N    1.232    82 C    1.190
    82   6 C    3.959 --    83 C    1.633    81 C    1.190   109 H    0.973
    83   6 C    3.957 --    82 C    1.633    84 C    1.188   110 H    0.973
    84   6 C    3.906 --    86 C    1.280    85 N    1.221    83 C    1.188
    85   7 N    3.380 --    81 C    1.232    84 C    1.221    59 Fe   0.657
    86   6 C    3.927 --    84 C    1.280    95 C    1.267    87 C    1.160
    87   6 C    3.956 --    88 C    2.623    86 C    1.160
    88   6 C    3.929 --    87 C    2.623    89 C    1.141
    89   6 C    3.987 --    94 C    1.350    90 C    1.350    88 C    1.141
    90   6 C    3.973 --    91 C    1.457    89 C    1.350   111 H    0.974
                            93 C    0.104
    91   6 C    3.972 --    90 C    1.457    92 N    1.407   112 H    0.972
                            94 C    0.104
    92   7 N    2.994 --    93 C    1.407    91 C    1.407
    93   6 C    3.973 --    94 C    1.457    92 N    1.407   113 H    0.972
                            90 C    0.104
    94   6 C    3.973 --    93 C    1.457    89 C    1.350   114 H    0.974
                            91 C    0.104
    95   6 C    3.912 --    86 C    1.267    99 N    1.243    96 C    1.182
    96   6 C    3.960 --    97 C    1.645    95 C    1.182   115 H    0.973
    97   6 C    3.958 --    96 C    1.645    98 C    1.174   116 H    0.975
    98   6 C    3.916 --    60 C    1.366    99 N    1.201    97 C    1.174
    99   7 N    3.382 --    95 C    1.243    98 C    1.201    59 Fe   0.665
   100   1 H    1.000 --    60 C    0.970
   101   1 H    0.997 --    62 C    0.975
   102   1 H    1.002 --    63 C    0.973
   103   1 H    1.002 --    70 C    0.974
   104   1 H    1.013 --    71 C    0.972
   105   1 H    1.013 --    73 C    0.972
   106   1 H    1.002 --    74 C    0.974
   107   1 H    1.003 --    76 C    0.973
   108   1 H    1.001 --    77 C    0.973
   109   1 H    1.001 --    82 C    0.973
   110   1 H    1.002 --    83 C    0.973
   111   1 H    1.002 --    90 C    0.974
   112   1 H    1.013 --    91 C    0.972
   113   1 H    1.013 --    93 C    0.972
   114   1 H    1.002 --    94 C    0.974
   115   1 H    1.002 --    96 C    0.973
   116   1 H    0.997 --    97 C    0.975
   117   6 C    3.918 --   118 C    2.365   121 C    1.335   120 C    0.188
   118   6 C    3.916 --   117 C    2.365   119 C    1.333   122 C    0.188
   119   6 C    3.930 --   120 C    2.448   118 C    1.333
   120   6 C    3.882 --   119 C    2.448    22 C    1.184   117 C    0.188
   121   6 C    3.925 --   122 C    2.444   117 C    1.335
   122   6 C    3.883 --   121 C    2.444   130 C    1.190   118 C    0.188
   123   6 C    3.915 --   124 C    2.355   127 C    1.341   126 C    0.187
   124   6 C    3.917 --   123 C    2.355   125 C    1.342   128 C    0.187
   125   6 C    3.924 --   126 C    2.435   124 C    1.342
   126   6 C    3.882 --   125 C    2.435   150 C    1.196   123 C    0.187
   127   6 C    3.927 --   128 C    2.438   123 C    1.341
   128   6 C    3.879 --   127 C    2.438    80 C    1.191   124 C    0.187
   129  26 Fe   3.124 --   135 N    0.656   155 N    0.655   169 N    0.653
                           148 N    0.652
   130   6 C    3.923 --   168 C    1.260   131 C    1.256   122 C    1.190
   131   6 C    3.897 --   130 C    1.256   135 N    1.234   132 C    1.192
   132   6 C    3.959 --   133 C    1.631   131 C    1.192   170 H    0.973
   133   6 C    3.959 --   132 C    1.631   134 C    1.189   171 H    0.974
   134   6 C    3.905 --   136 C    1.273   135 N    1.224   133 C    1.189
   135   7 N    3.376 --   131 C    1.234   134 C    1.224   129 Fe   0.656
   136   6 C    3.924 --   134 C    1.273   145 C    1.270   137 C    1.161
   137   6 C    3.956 --   138 C    2.621   136 C    1.161
   138   6 C    3.927 --   137 C    2.621   139 C    1.141
   139   6 C    3.987 --   144 C    1.351   140 C    1.350   138 C    1.141
   140   6 C    3.972 --   141 C    1.456   139 C    1.350   172 H    0.974
                           143 C    0.104
   141   6 C    3.972 --   140 C    1.456   142 N    1.407   173 H    0.972
                           144 C    0.104
   142   7 N    2.994 --   143 C    1.408   141 C    1.407
   143   6 C    3.972 --   144 C    1.456   142 N    1.408   174 H    0.972
                           140 C    0.104
   144   6 C    3.972 --   143 C    1.456   139 C    1.351   175 H    0.974
                           141 C    0.104
   145   6 C    3.905 --   136 C    1.270   148 N    1.227   146 C    1.190
   146   6 C    3.959 --   147 C    1.631   145 C    1.190   176 H    0.974
   147   6 C    3.959 --   146 C    1.631   149 C    1.191   177 H    0.973
   148   7 N    3.374 --   149 C    1.232   145 C    1.227   129 Fe   0.652
   149   6 C    3.896 --   150 C    1.256   148 N    1.232   147 C    1.191
   150   6 C    3.921 --   149 C    1.256   151 C    1.252   126 C    1.196
   151   6 C    3.897 --   150 C    1.252   155 N    1.237   152 C    1.192
   152   6 C    3.959 --   153 C    1.631   151 C    1.192   178 H    0.973
   153   6 C    3.959 --   152 C    1.631   154 C    1.189   179 H    0.974
   154   6 C    3.905 --   156 C    1.276   155 N    1.221   153 C    1.189
   155   7 N    3.376 --   151 C    1.237   154 C    1.221   129 Fe   0.655
   156   6 C    3.924 --   154 C    1.276   165 C    1.267   157 C    1.161
   157   6 C    3.956 --   158 C    2.621   156 C    1.161
   158   6 C    3.927 --   157 C    2.621   159 C    1.141
   159   6 C    3.987 --   164 C    1.351   160 C    1.350   158 C    1.141
   160   6 C    3.972 --   161 C    1.456   159 C    1.350   180 H    0.974
                           163 C    0.104
   161   6 C    3.972 --   160 C    1.456   162 N    1.407   181 H    0.972
                           164 C    0.104
   162   7 N    2.994 --   163 C    1.408   161 C    1.407
   163   6 C    3.972 --   164 C    1.456   162 N    1.408   182 H    0.972
                           160 C    0.104
   164   6 C    3.973 --   163 C    1.456   159 C    1.351   183 H    0.974
                           161 C    0.104
   165   6 C    3.905 --   156 C    1.267   169 N    1.229   166 C    1.191
   166   6 C    3.959 --   167 C    1.631   165 C    1.191   184 H    0.974
   167   6 C    3.959 --   166 C    1.631   168 C    1.190   185 H    0.973
   168   6 C    3.897 --   130 C    1.260   169 N    1.229   167 C    1.190
   169   7 N    3.375 --   165 C    1.229   168 C    1.229   129 Fe   0.653
   170   1 H    1.001 --   132 C    0.973
   171   1 H    1.002 --   133 C    0.974
   172   1 H    1.002 --   140 C    0.974
   173   1 H    1.013 --   141 C    0.972
   174   1 H    1.013 --   143 C    0.972
   175   1 H    1.002 --   144 C    0.974
   176   1 H    1.002 --   146 C    0.974
   177   1 H    1.001 --   147 C    0.973
   178   1 H    1.001 --   152 C    0.973
   179   1 H    1.002 --   153 C    0.974
   180   1 H    1.002 --   160 C    0.974
   181   1 H    1.013 --   161 C    0.972
   182   1 H    1.013 --   163 C    0.972
   183   1 H    1.002 --   164 C    0.974
   184   1 H    1.002 --   166 C    0.974
   185   1 H    1.001 --   167 C    0.973
 ---------------------------------------------------------------------------

           -------------------------------------------------
          | TOTAL ENERGY             -333.673113144038 Eh   |
          | GRADIENT NORM               0.000772373223 Eh/α |
          | HOMO-LUMO GAP               0.076820450481 eV   |
           -------------------------------------------------

 * finished run on 2022/07/29 at 17:57:21.533
