   * xtb version 6.5.1 (b24c23e) compiled by 'conda@728c89f4b128' on 2022-07-12
          program call               : xtb Zn_NMA_C4_3.xyz --gfn 1 --opt -T 48

   ID    Z sym.   atoms
    1   30 Zn     1, 67, 141
    2    6 C      2-6, 8-12, 14-19, 21-26, 28-32, 34-40, 68-72, 74-78, 80-85,
                  87-92, 94-98, 100-106, 133-140, 142-146, 148-152, 154-159,
                  161-166, 168-172, 174-180
    3    7 N      7, 13, 20, 27, 33, 41, 73, 79, 86, 93, 99, 107, 147, 153,
                  160, 167, 173, 181
    4    1 H      42-66, 108-132, 182-205

          :  Hamiltonian                  GFN1-xTB          :
 * total energy  :  -304.8243749 Eh     change       -0.6822859E-08 Eh
 * total energy  :  -324.8721293 Eh     change       -0.2004775E+02 Eh
 * total energy  :  -327.1753131 Eh     change       -0.2303184E+01 Eh
 * total energy  :  -328.9133292 Eh     change       -0.1738016E+01 Eh
 * total energy  :  -329.8034076 Eh     change       -0.8900785E+00 Eh
 * total energy  :  -330.3114598 Eh     change       -0.5080521E+00 Eh
 * total energy  :  -330.6339529 Eh     change       -0.3224931E+00 Eh
 * total energy  :  -330.8602543 Eh     change       -0.2263014E+00 Eh
 * total energy  :  -331.0368435 Eh     change       -0.1765892E+00 Eh
 * total energy  :  -331.1812930 Eh     change       -0.1444495E+00 Eh
 * total energy  :  -332.1232949 Eh     change       -0.6610215E-05 Eh
 * total energy  :  -332.1233016 Eh     change       -0.6757132E-05 Eh
 * total energy  :  -332.1233085 Eh     change       -0.6892829E-05 Eh
 * total energy  :  -332.1233155 Eh     change       -0.6967780E-05 Eh
 * total energy  :  -332.1233224 Eh     change       -0.6939712E-05 Eh
 * total energy  :  -332.1233292 Eh     change       -0.6758871E-05 Eh
 * total energy  :  -332.1233355 Eh     change       -0.6303336E-05 Eh
 * total energy  :  -332.1233411 Eh     change       -0.5652257E-05 Eh
 * total energy  :  -332.1233427 Eh     change       -0.1535054E-05 Eh
   *** GEOMETRY OPTIMIZATION CONVERGED AFTER 122 ITERATIONS ***

 final structure:
================
205
 xtb: 6.5.1 (b24c23e)
Zn          36.01402019443898        0.03943542743532       -0.04297105520500
C           32.60305588256361        0.06436158580926       -0.05260464245610
C           33.22646143005733        0.99338381161593        0.77196507355789
C           32.54605544839127        1.91787570904342        1.63405452612539
C           33.50020630559876        2.64416186367611        2.26907284537384
C           34.77615182558564        2.18089339108070        1.79210030261688
N           34.57462270584449        1.17343914677759        0.89428262138475
C           36.02374620451582        2.67055340186565        2.20122442734623
C           36.02436202571048        3.79459349677830        3.16845411495752
C           35.41827087937209        5.01288876324092        2.84932230909050
C           35.41394916591238        6.05921422796035        3.75248710492236
C           36.01181736978009        5.91556053701387        5.01032493851380
N           35.92686300608145        6.97197653134647        5.90697377277611
C           36.90600788091097        7.08400018197677        6.97990755090992
C           36.60902313156826        4.69565336717170        5.33946297826917
C           36.61910701359343        3.65693444545574        4.42370176542301
C           37.26611110792564        2.18561153444913        1.77575319938252
C           38.54126428700063        2.72952034143306        2.15178194272050
C           39.49330671868029        1.98894017057153        1.52771582973494
N           37.46795962037463        1.13625660909654        0.91837321560674
C           38.81072648957807        0.99239719153459        0.75687824998595
C           39.44928919290208        0.01763309592939       -0.03735486189309
C           38.80133877162258       -0.94991996213590       -0.83266537108095
C           39.47385508328696       -1.95637311115026       -1.59949689062209
C           38.51454323439621       -2.68697637659629       -2.22420568876417
C           37.24510093709316       -2.12668577748029       -1.85289802968557
N           37.45738078170804       -1.07766671896389       -0.99761296862297
C           35.99801120381493       -2.59714892207206       -2.28050392266305
C           35.98637670364206       -3.72773710222943       -3.24018011438876
C           36.58266615428048       -3.60654157614482       -4.49629007057294
C           36.56055558991041       -4.65222662155579       -5.40396644361315
C           35.94974170215540       -5.86273279236600       -5.06522570566220
N           35.85294092987623       -6.92521037396472       -5.95341279672555
C           36.82855003308142       -7.05477924966096       -7.02756708156360
C           35.35029400924652       -5.98981235194771       -3.80635057340555
C           35.36626250264391       -4.93643370044583       -2.91159916144955
C           34.75554729475031       -2.08836501628429       -1.87930265255611
C           33.47574202410294       -2.53524724611018       -2.36151742486689
C           32.52868439187655       -1.79218990122424       -1.73535042508892
C           33.21753185646725       -0.87472520968754       -0.87242294416422
N           34.56362590407555       -1.07461960340435       -0.98652848949139
H           31.51731997501770        0.07242420998363       -0.05586085950394
H           31.47457742090656        1.98691936714944        1.74031188876508
H           33.35594178278412        3.41727418010306        3.00677364901114
H           34.96511108813056        5.14442530239907        1.87270966454653
H           34.94514689148893        7.00162648526564        3.48908125453826
H           35.75812549046432        7.85907539583747        5.44774136570187
H           37.93183102411314        7.03865238966044        6.59643799147117
H           36.75846545757150        6.28321747171943        7.70561642394696
H           36.74985436904134        8.04007804550661        7.47966698101224
H           37.06357671981692        4.54807055094569        6.31148378229016
H           37.07638311927504        2.71159794112846        4.69549017018668
H           38.68841930619232        3.57942058567156        2.79876217975679
H           40.56431980356039        2.10713883800807        1.57435876069595
H           40.54350985071978       -2.08745485569761       -1.64301304113664
H           38.65297062307778       -3.53993640382428       -2.86909216301585
H           37.05076483245940       -2.66865526409736       -4.77535625025024
H           37.01646311463713       -4.51740306273431       -6.37720573055205
H           35.67616802219430       -7.80705733845788       -5.48718299249321
H           36.68459886743745       -6.26029476884936       -7.76093903953861
H           36.66455940338520       -8.01473758016505       -7.51726347561229
H           37.85565698551918       -7.01264318670906       -6.64720709972855
H           34.87091139910171       -6.92478748059044       -3.53558453906770
H           34.91112265673593       -5.05477080239602       -1.93421040359600
H           33.32465905049389       -3.30956470175902       -3.09659662059058
H           31.45694221237391       -1.84594985620291       -1.84761073521341
Zn          62.97934239721751        0.02178050658362       -0.02397265244997
C           66.39019784818387        0.02821040937153       -0.05335274759672
C           65.76681206565847       -0.98070230644138       -0.77798297699054
C           66.44737034860837       -2.02413523507835       -1.49140713655987
C           65.49330484063847       -2.80418178310175       -2.05916962350010
C           64.21717833191941       -2.23871112121671       -1.70992348229987
N           64.41862713163101       -1.14101646757704       -0.92492736134575
C           62.96969730113171       -2.74806785187246       -2.09443480963940
C           62.97050978714024       -3.94014291649036       -2.97663971525401
C           63.57211655661199       -3.89601317934655       -4.23741350510615
C           63.58150762771010       -5.00939007093801       -5.05645238615585
C           62.99377156906696       -6.20793823306468       -4.63419639476211
N           63.08588376391879       -7.31720818793175       -5.46375261385236
C           62.11765777117189       -8.39741932750166       -5.32970489510017
C           62.39981988197589       -6.26095184531870       -3.37025052045182
C           62.38433344960722       -5.13690125906002       -2.56151686587777
C           61.72718258071817       -2.22888396429518       -1.71204240867814
C           60.45188794075467       -2.71943845555823       -2.15490058854952
C           59.49974867786133       -1.94892948832732       -1.56821307913594
N           61.52533996081844       -1.16066937557522       -0.87830407009818
C           60.18243713509210       -0.97452622134865       -0.76968161110764
C           59.54409217203567        0.01547580078071        0.00559689396322
C           60.19215052770031        1.00764190706046        0.76994983976760
C           59.51961301377783        1.97824035625849        1.58161155299635
C           60.47881111292899        2.75064339570733        2.15403582231470
C           61.74817277168695        2.26546566580826        1.68873308218078
N           61.53600158051329        1.19855283493606        0.85589108078408
C           62.99521872603150        2.78723427749254        2.05235300889661
C           63.00604396367258        3.97251229412873        2.94358142479590
C           62.40744491070399        5.17017658467227        2.54941469763357
C           62.42678943739558        6.28523025940803        3.37046339727369
C           63.03728500782935        6.22168850061823        4.62600538112753
N           63.13067265206470        7.32144284962799        5.46810052206939
C           62.15067491011155        8.39398192879442        5.36008662041672
C           63.63973940995469        5.02290221108420        5.02619076758428
C           63.62629742317282        3.91870951771815        4.19490604500347
C           64.23768457472534        2.28383403731210        1.64466308673734
C           65.51747944252747        2.85282066930467        1.97410577971751
C           66.46454057922701        2.07821660501068        1.38743914997680
C           65.77569976252612        1.03428984205859        0.68270296256431
N           64.42963913652170        1.18943030680563        0.85276440079249
H           67.47592277351859        0.03003505636204       -0.06252163930261
H           67.51891148481910       -2.14178681684361       -1.53693653751488
H           65.63772715104858       -3.69339953508847       -2.65174600451748
H           64.01831552255344       -2.97023263297543       -4.58421634820173
H           64.04715902115397       -4.95931305549909       -6.03521063122163
H           63.25008501990469       -7.06683851059587       -6.43153652151615
H           61.08797115209043       -8.02348521297970       -5.36678443517110
H           62.27418038149010       -8.92484385498389       -4.38786362882007
H           62.27718316370589       -9.09627700123763       -6.15090967252904
H           61.95256723291157       -7.17878290267308       -3.00860922409880
H           61.93006884424708       -5.19436205449437       -1.57816893545518
H           60.30479067346222       -3.53945063221734       -2.83941445868169
H           58.42855946369371       -2.02320703003442       -1.66966140305757
H           58.45004654784947        2.04873449279672        1.70115046591536
H           60.34021563844302        3.56867112959169        2.84265845466195
H           61.93940547831743        5.23559424006744        1.57305046700750
H           61.96880564336915        7.20411386367434        3.02529777282198
H           63.30876613547824        7.06012431823803        6.43054421614415
H           62.29122006900326        8.93571888753239        4.42387467387186
H           62.31299160173817        9.08302566211507        6.18899979048294
H           61.12512137514577        8.00956055796757        5.40377525804491
H           64.11915253427691        4.96502143076977        5.99784447929031
H           64.08333854552301        2.99211360988883        4.52501433504062
H           65.66852950515579        3.74057716768181        2.56724070941167
H           67.53628384509344        2.19952679778005        1.41516338967493
C           42.07761801813398        0.00454710588452       -0.03120090731099
C           40.85487073659856        0.00976822997715       -0.03491776665637
C           43.42709593611529        0.00157146541711       -0.02587266367188
C           44.64989836731771        0.00048203164418       -0.01901126354987
C           55.56645726779153        0.01090627629558        0.03918888040458
C           54.34361686288072        0.00956370289401        0.04491154523516
C           56.91588753346699        0.01265884901375        0.03080707890250
C           58.13856893615884        0.01300809445496        0.01829170794745
Zn          49.49635993014694        0.00268930471649        0.01690796798341
C           46.05495659184633        0.00096799081463       -0.00920443043024
C           46.70580794899909       -1.00782693840541       -0.74903053059275
C           46.03535804542926       -2.04769406167008       -1.47055396358201
C           46.99695644501983       -2.81216724711164       -2.05019569021022
C           48.26467538038781       -2.23893871275610       -1.69589092850186
N           48.05068772944225       -1.14855681994856       -0.89502065762672
C           49.51386480697398       -2.73276353682950       -2.09058370682149
C           49.52296333818769       -3.90428430733964       -3.00006634512854
C           50.12712781167929       -5.10404479123040       -2.61449541641936
C           50.13995162602394       -6.19443487763337       -3.46386658216850
C           49.55818553006760       -6.11297534080219       -4.73467599366361
N           49.55692919161367       -7.24751533281004       -5.53510160964644
C           49.43723840239657       -7.10491392636196       -6.98017250505112
C           48.94515091318272       -4.91842970640882       -5.12235344055891
C           48.93019171453721       -3.83363430060512       -4.26175657807899
C           50.75670873065047       -2.21616408763423       -1.70466585010692
C           52.03107919573547       -2.69421414189731       -2.16144993903000
C           52.98307315068683       -1.93121606048277       -1.56426079230424
N           50.95724273734647       -1.16267242532801       -0.85263475449930
C           52.29997421718798       -0.97405509591762       -0.74668674764629
C           52.93861129180682        0.00567183339679        0.04137909991100
C           52.28748963033143        0.98307254101348        0.82186549821786
C           52.95709998701564        1.94258524180753        1.64775624712759
C           51.99528539865115        2.70599885870270        2.22862231169803
C           50.72852523271985        2.22557046653966        1.75351773579307
N           50.94302599560271        1.16959488575908        0.90806725792337
C           49.47956311344795        2.74412851068996        2.11643369049869
C           49.47374269018352        3.92487693390630        3.01404162866305
C           48.86113845451550        3.86899777294692        4.26692321648285
C           48.85864584296082        4.96540360062479        5.11290273036831
C           49.47336965690782        6.15699842667998        4.71884108114310
N           49.45351692009462        7.30308952094322        5.50242997321029
C           49.31102669944138        7.18156304464064        6.94732689518138
C           50.07642432224492        6.22297395109375        3.45709046541883
C           50.08112532160145        5.12113217861665        2.62260656352922
C           48.23690557679392        2.24762339969309        1.70486761643921
C           46.96342008822442        2.82130485307042        2.03711264651725
C           46.01143969366493        2.05337879677757        1.44632345960437
C           46.69370564772787        1.01141521826446        0.73902371775697
N           48.03604494087014        1.15363805844047        0.90541312460705
H           44.96556204940610       -2.17637582477699       -1.51676419787970
H           46.85997532510471       -3.69567393736755       -2.65271160182773
H           50.57467113280864       -5.18446483790276       -1.62982348501116
H           50.60363505262560       -7.12309249090130       -3.14787452893013
H           50.28054606878024       -7.90689113504073       -5.27422731615130
H           48.43331205687905       -6.76736786940287       -7.24069250650321
H           50.17106248738838       -6.39422666250361       -7.37753621253171
H           49.60342994385908       -8.08378270110057       -7.43007151520343
H           48.47789062116512       -4.82798366611854       -6.09533347640076
H           48.46778450359542       -2.90606404219230       -4.58176431148237
H           52.17924291438158       -3.50075399405842       -2.86143796135173
H           54.05407636717143       -2.00018183267918       -1.67081743670104
H           54.02633396483998        2.01248852178383        1.77048819395306
H           52.13156468022201        3.51439625963225        2.92891942307045
H           48.39624018007026        2.94437950332203        4.59181884504798
H           48.37587694229503        4.88646689080287        6.07929926721574
H           50.17808567725756        7.96224426726418        5.24358668261121
H           50.04502448553183        6.48448408906341        7.36785442173536
H           49.46012252339725        8.16890516007304        7.38454221941721
H           48.30621182290264        6.83813976766342        7.19641197936950
H           50.54223333870947        7.14885672758933        3.13611314108146
H           50.54477856616026        5.18959841741148        1.64450062174570
H           46.81632098332482        3.70726681991565        2.63359128331069
H           44.94098236361857        2.18149901129933        1.47554213379572

          :  Hamiltonian                  GFN1-xTB          :
         :: total energy            -332.123342663504 Eh    ::
         :: gradient norm              0.000154922224 Eh/a0 ::
         :: HOMO-LUMO gap              0.866840045867 eV    ::
         :: SCC energy              -337.430962937849 Eh    ::
         :: repulsion energy           5.483754113197 Eh    ::

    * Orbital Energies and Occupations

         #    Occupation            Energy/Eh            Energy/eV
      -------------------------------------------------------------
         1        2.0000           -0.7754460             -21.1010
       ...           ...                  ...                  ...
       293        2.0000           -0.4052085             -11.0263
       294        2.0000           -0.3922871             -10.6747
       295        2.0000           -0.3900902             -10.6149
       296        2.0000           -0.3892299             -10.5915
       297        2.0000           -0.3881719             -10.5627
       298        2.0000           -0.3880727             -10.5600
       299        2.0000           -0.3875179             -10.5449
       300        2.0000           -0.3834085             -10.4331
       301        2.0000           -0.3832127             -10.4277
       302        2.0000           -0.3827632             -10.4155
       303        2.0000           -0.3760483             -10.2328
       304        2.0000           -0.3696208             -10.0579
       305        2.0000           -0.3614988              -9.8369 (HOMO)
       306        0.0000           -0.3296430              -8.9700 (LUMO)
       307                         -0.3194481              -8.6926
       308                         -0.3150063              -8.5718
       309                         -0.3149994              -8.5716
       310                         -0.3145432              -8.5592
       311                         -0.3108087              -8.4575
       312                         -0.2888836              -7.8609
       313                         -0.2808638              -7.6427
       314                         -0.2771142              -7.5407
       315                         -0.2528191              -6.8796
       316                         -0.2527920              -6.8788
       ...                                ...                  ...
       672                          1.5274749              41.5647
      -------------------------------------------------------------
                  HL-Gap            0.0318558 Eh            0.8668 eV

Wiberg/Mayer (AO) data.
largest (>0.10) Wiberg bond orders for each atom

     #   Z sym  total        # sym  WBO       # sym  WBO       # sym  WBO
 ---------------------------------------------------------------------------
     1  30 Zn   2.001 --    41 N    0.460     7 N    0.460    20 N    0.457
                            27 N    0.457
     2   6 C    3.924 --    40 C    1.356     3 C    1.356    42 H    0.972
     3   6 C    3.923 --     2 C    1.356     7 N    1.232     4 C    1.173
     4   6 C    3.959 --     5 C    1.655     3 C    1.173    43 H    0.976
     5   6 C    3.963 --     4 C    1.655     6 C    1.175    44 H    0.973
     6   6 C    3.916 --     8 C    1.311     7 N    1.245     5 C    1.175
     7   7 N    3.292 --     6 C    1.245     3 C    1.232     1 Zn   0.460
     8   6 C    3.933 --    17 C    1.322     6 C    1.311     9 C    1.033
     9   6 C    3.988 --    16 C    1.386    10 C    1.375     8 C    1.033
    10   6 C    3.987 --    11 C    1.475     9 C    1.375    45 H    0.973
    11   6 C    3.989 --    10 C    1.475    12 C    1.347    46 H    0.972
                            16 C    0.100
    12   6 C    3.952 --    15 C    1.355    11 C    1.347    13 N    1.106
    13   7 N    3.176 --    12 C    1.106    14 C    0.972    47 H    0.932
    14   6 C    3.968 --    50 H    0.990    49 H    0.986    48 H    0.984
                            13 N    0.972
    15   6 C    3.990 --    16 C    1.463    12 C    1.355    51 H    0.970
    16   6 C    3.988 --    15 C    1.463     9 C    1.386    52 H    0.973
                            11 C    0.100
    17   6 C    3.912 --     8 C    1.322    20 N    1.224    18 C    1.182
    18   6 C    3.960 --    19 C    1.642    17 C    1.182    53 H    0.973
    19   6 C    3.961 --    18 C    1.642    21 C    1.189    54 H    0.974
    20   7 N    3.297 --    21 C    1.263    17 C    1.224     1 Zn   0.457
    21   6 C    3.903 --    20 N    1.263    22 C    1.252    19 C    1.189
    22   6 C    3.935 --    23 C    1.252    21 C    1.252   134 C    1.193
    23   6 C    3.903 --    27 N    1.263    22 C    1.252    24 C    1.189
    24   6 C    3.961 --    25 C    1.642    23 C    1.189    55 H    0.974
    25   6 C    3.960 --    24 C    1.642    26 C    1.182    56 H    0.973
    26   6 C    3.912 --    28 C    1.322    27 N    1.224    25 C    1.182
    27   7 N    3.296 --    23 C    1.263    26 C    1.224     1 Zn   0.457
    28   6 C    3.933 --    26 C    1.322    37 C    1.311    29 C    1.033
    29   6 C    3.988 --    30 C    1.386    36 C    1.375    28 C    1.033
    30   6 C    3.988 --    31 C    1.463    29 C    1.386    57 H    0.973
                            35 C    0.100
    31   6 C    3.990 --    30 C    1.463    32 C    1.355    58 H    0.970
    32   6 C    3.952 --    31 C    1.355    35 C    1.346    33 N    1.106
    33   7 N    3.176 --    32 C    1.106    34 C    0.972    59 H    0.932
    34   6 C    3.968 --    61 H    0.990    60 H    0.986    62 H    0.984
                            33 N    0.972
    35   6 C    3.989 --    36 C    1.475    32 C    1.346    63 H    0.972
                            30 C    0.100
    36   6 C    3.988 --    35 C    1.475    29 C    1.375    64 H    0.973
    37   6 C    3.916 --    28 C    1.311    41 N    1.245    38 C    1.175
    38   6 C    3.963 --    39 C    1.655    37 C    1.175    65 H    0.973
    39   6 C    3.959 --    38 C    1.655    40 C    1.173    66 H    0.976
    40   6 C    3.923 --     2 C    1.356    41 N    1.232    39 C    1.173
    41   7 N    3.293 --    37 C    1.245    40 C    1.232     1 Zn   0.460
    42   1 H    1.002 --     2 C    0.972
    43   1 H    0.999 --     4 C    0.976
    44   1 H    1.006 --     5 C    0.973
    45   1 H    1.005 --    10 C    0.973
    46   1 H    0.999 --    11 C    0.972
    47   1 H    0.966 --    13 N    0.932
    48   1 H    1.004 --    14 C    0.984
    49   1 H    1.012 --    14 C    0.986
    50   1 H    1.007 --    14 C    0.990
    51   1 H    1.001 --    15 C    0.970
    52   1 H    1.006 --    16 C    0.973
    53   1 H    1.006 --    18 C    0.973
    54   1 H    1.003 --    19 C    0.974
    55   1 H    1.003 --    24 C    0.974
    56   1 H    1.006 --    25 C    0.973
    57   1 H    1.005 --    30 C    0.973
    58   1 H    1.001 --    31 C    0.970
    59   1 H    0.966 --    33 N    0.932
    60   1 H    1.012 --    34 C    0.986
    61   1 H    1.007 --    34 C    0.990
    62   1 H    1.004 --    34 C    0.984
    63   1 H    0.999 --    35 C    0.972
    64   1 H    1.005 --    36 C    0.973
    65   1 H    1.006 --    38 C    0.973
    66   1 H    0.999 --    39 C    0.976
    67  30 Zn   2.001 --    73 N    0.460   107 N    0.460    86 N    0.457
                            93 N    0.457
    68   6 C    3.924 --   106 C    1.356    69 C    1.356   108 H    0.972
    69   6 C    3.923 --    68 C    1.356    73 N    1.232    70 C    1.173
    70   6 C    3.959 --    71 C    1.655    69 C    1.173   109 H    0.976
    71   6 C    3.963 --    70 C    1.655    72 C    1.175   110 H    0.973
    72   6 C    3.916 --    74 C    1.311    73 N    1.244    71 C    1.175
    73   7 N    3.293 --    72 C    1.244    69 C    1.232    67 Zn   0.460
    74   6 C    3.933 --    83 C    1.321    72 C    1.311    75 C    1.033
    75   6 C    3.988 --    82 C    1.386    76 C    1.375    74 C    1.033
    76   6 C    3.988 --    77 C    1.475    75 C    1.375   111 H    0.973
    77   6 C    3.989 --    76 C    1.475    78 C    1.346   112 H    0.972
                            82 C    0.100
    78   6 C    3.952 --    81 C    1.355    77 C    1.346    79 N    1.106
    79   7 N    3.176 --    78 C    1.106    80 C    0.972   113 H    0.932
    80   6 C    3.968 --   116 H    0.990   115 H    0.986   114 H    0.984
                            79 N    0.972
    81   6 C    3.990 --    82 C    1.463    78 C    1.355   117 H    0.970
    82   6 C    3.988 --    81 C    1.463    75 C    1.386   118 H    0.973
                            77 C    0.100
    83   6 C    3.912 --    74 C    1.321    86 N    1.225    84 C    1.182
    84   6 C    3.960 --    85 C    1.642    83 C    1.182   119 H    0.973
    85   6 C    3.961 --    84 C    1.642    87 C    1.189   120 H    0.974
    86   7 N    3.297 --    87 C    1.263    83 C    1.225    67 Zn   0.457
    87   6 C    3.903 --    86 N    1.263    88 C    1.252    85 C    1.189
    88   6 C    3.935 --    87 C    1.252    89 C    1.252   140 C    1.193
    89   6 C    3.903 --    93 N    1.263    88 C    1.252    90 C    1.189
    90   6 C    3.961 --    91 C    1.642    89 C    1.189   121 H    0.974
    91   6 C    3.960 --    90 C    1.642    92 C    1.182   122 H    0.973
    92   6 C    3.912 --    94 C    1.322    93 N    1.225    91 C    1.182
    93   7 N    3.297 --    89 C    1.263    92 C    1.225    67 Zn   0.457
    94   6 C    3.933 --    92 C    1.322   103 C    1.311    95 C    1.033
    95   6 C    3.988 --    96 C    1.386   102 C    1.375    94 C    1.033
    96   6 C    3.988 --    97 C    1.462    95 C    1.386   123 H    0.973
                           101 C    0.100
    97   6 C    3.990 --    96 C    1.462    98 C    1.355   124 H    0.970
    98   6 C    3.952 --    97 C    1.355   101 C    1.347    99 N    1.106
    99   7 N    3.176 --    98 C    1.106   100 C    0.972   125 H    0.932
   100   6 C    3.968 --   127 H    0.990   126 H    0.986   128 H    0.984
                            99 N    0.972
   101   6 C    3.989 --   102 C    1.475    98 C    1.347   129 H    0.972
                            96 C    0.100
   102   6 C    3.988 --   101 C    1.475    95 C    1.375   130 H    0.973
   103   6 C    3.916 --    94 C    1.311   107 N    1.244   104 C    1.175
   104   6 C    3.963 --   105 C    1.655   103 C    1.175   131 H    0.973
   105   6 C    3.959 --   104 C    1.655   106 C    1.173   132 H    0.976
   106   6 C    3.923 --    68 C    1.356   107 N    1.232   105 C    1.173
   107   7 N    3.293 --   103 C    1.244   106 C    1.232    67 Zn   0.460
   108   1 H    1.002 --    68 C    0.972
   109   1 H    0.998 --    70 C    0.976
   110   1 H    1.006 --    71 C    0.973
   111   1 H    1.005 --    76 C    0.973
   112   1 H    0.999 --    77 C    0.972
   113   1 H    0.966 --    79 N    0.932
   114   1 H    1.004 --    80 C    0.984
   115   1 H    1.012 --    80 C    0.986
   116   1 H    1.007 --    80 C    0.990
   117   1 H    1.001 --    81 C    0.970
   118   1 H    1.005 --    82 C    0.973
   119   1 H    1.006 --    84 C    0.973
   120   1 H    1.003 --    85 C    0.974
   121   1 H    1.003 --    90 C    0.974
   122   1 H    1.006 --    91 C    0.973
   123   1 H    1.005 --    96 C    0.973
   124   1 H    1.001 --    97 C    0.970
   125   1 H    0.966 --    99 N    0.932
   126   1 H    1.012 --   100 C    0.986
   127   1 H    1.007 --   100 C    0.990
   128   1 H    1.004 --   100 C    0.984
   129   1 H    0.999 --   101 C    0.972
   130   1 H    1.005 --   102 C    0.973
   131   1 H    1.006 --   104 C    0.973
   132   1 H    0.998 --   105 C    0.976
   133   6 C    3.933 --   134 C    2.471   135 C    1.312
   134   6 C    3.923 --   133 C    2.471    22 C    1.193   136 C    0.198
   135   6 C    3.930 --   136 C    2.469   133 C    1.312
   136   6 C    3.925 --   135 C    2.469   142 C    1.195   134 C    0.198
   137   6 C    3.930 --   138 C    2.469   139 C    1.312
   138   6 C    3.925 --   137 C    2.469   162 C    1.195   140 C    0.198
   139   6 C    3.933 --   140 C    2.470   137 C    1.312
   140   6 C    3.923 --   139 C    2.470    88 C    1.193   138 C    0.198
   141  30 Zn   1.998 --   181 N    0.457   147 N    0.457   160 N    0.457
                           167 N    0.457
   142   6 C    3.923 --   143 C    1.250   180 C    1.250   136 C    1.195
   143   6 C    3.904 --   147 N    1.263   142 C    1.250   144 C    1.191
   144   6 C    3.959 --   145 C    1.639   143 C    1.191   182 H    0.974
   145   6 C    3.960 --   144 C    1.639   146 C    1.185   183 H    0.973
   146   6 C    3.909 --   148 C    1.317   147 N    1.224   145 C    1.185
   147   7 N    3.291 --   143 C    1.263   146 C    1.224   141 Zn   0.457
   148   6 C    3.928 --   146 C    1.317   157 C    1.317   149 C    1.033
   149   6 C    3.988 --   156 C    1.386   150 C    1.375   148 C    1.033
   150   6 C    3.988 --   151 C    1.475   149 C    1.375   184 H    0.973
   151   6 C    3.989 --   150 C    1.475   152 C    1.347   185 H    0.971
                           156 C    0.100
   152   6 C    3.952 --   155 C    1.355   151 C    1.347   153 N    1.105
   153   7 N    3.176 --   152 C    1.105   154 C    0.972   186 H    0.932
   154   6 C    3.968 --   189 H    0.990   187 H    0.986   188 H    0.984
                           153 N    0.972
   155   6 C    3.990 --   156 C    1.463   152 C    1.355   190 H    0.970
   156   6 C    3.988 --   155 C    1.463   149 C    1.386   191 H    0.973
                           151 C    0.100
   157   6 C    3.910 --   148 C    1.317   160 N    1.225   158 C    1.185
   158   6 C    3.960 --   159 C    1.639   157 C    1.185   192 H    0.973
   159   6 C    3.959 --   158 C    1.639   161 C    1.191   193 H    0.974
   160   7 N    3.290 --   161 C    1.263   157 C    1.225   141 Zn   0.457
   161   6 C    3.904 --   160 N    1.263   162 C    1.250   159 C    1.191
   162   6 C    3.923 --   163 C    1.250   161 C    1.250   138 C    1.195
   163   6 C    3.904 --   167 N    1.263   162 C    1.250   164 C    1.191
   164   6 C    3.959 --   165 C    1.639   163 C    1.191   194 H    0.974
   165   6 C    3.960 --   164 C    1.639   166 C    1.185   195 H    0.973
   166   6 C    3.910 --   168 C    1.316   167 N    1.225   165 C    1.185
   167   7 N    3.290 --   163 C    1.263   166 C    1.225   141 Zn   0.457
   168   6 C    3.928 --   177 C    1.317   166 C    1.316   169 C    1.032
   169   6 C    3.988 --   170 C    1.386   176 C    1.375   168 C    1.032
   170   6 C    3.988 --   171 C    1.462   169 C    1.386   196 H    0.973
                           175 C    0.100
   171   6 C    3.990 --   170 C    1.462   172 C    1.356   197 H    0.970
   172   6 C    3.952 --   171 C    1.356   175 C    1.347   173 N    1.105
   173   7 N    3.176 --   172 C    1.105   174 C    0.972   198 H    0.932
   174   6 C    3.968 --   200 H    0.990   201 H    0.986   199 H    0.984
                           173 N    0.972
   175   6 C    3.990 --   176 C    1.475   172 C    1.347   202 H    0.971
                           170 C    0.100
   176   6 C    3.988 --   175 C    1.475   169 C    1.375   203 H    0.973
   177   6 C    3.909 --   168 C    1.317   181 N    1.224   178 C    1.184
   178   6 C    3.960 --   179 C    1.639   177 C    1.184   204 H    0.973
   179   6 C    3.959 --   178 C    1.639   180 C    1.191   205 H    0.974
   180   6 C    3.904 --   181 N    1.263   142 C    1.250   179 C    1.191
   181   7 N    3.291 --   180 C    1.263   177 C    1.224   141 Zn   0.457
   182   1 H    1.003 --   144 C    0.974
   183   1 H    1.006 --   145 C    0.973
   184   1 H    1.005 --   150 C    0.973
   185   1 H    0.999 --   151 C    0.971
   186   1 H    0.966 --   153 N    0.932
   187   1 H    1.012 --   154 C    0.986
   188   1 H    1.004 --   154 C    0.984
   189   1 H    1.007 --   154 C    0.990
   190   1 H    1.001 --   155 C    0.970
   191   1 H    1.006 --   156 C    0.973
   192   1 H    1.006 --   158 C    0.973
   193   1 H    1.003 --   159 C    0.974
   194   1 H    1.003 --   164 C    0.974
   195   1 H    1.006 --   165 C    0.973
   196   1 H    1.006 --   170 C    0.973
   197   1 H    1.001 --   171 C    0.970
   198   1 H    0.966 --   173 N    0.932
   199   1 H    1.004 --   174 C    0.984
   200   1 H    1.007 --   174 C    0.990
   201   1 H    1.012 --   174 C    0.986
   202   1 H    0.999 --   175 C    0.971
   203   1 H    1.005 --   176 C    0.973
   204   1 H    1.006 --   178 C    0.973
   205   1 H    1.003 --   179 C    0.974
 ---------------------------------------------------------------------------

           -------------------------------------------------
          | TOTAL ENERGY             -332.123342663504 Eh   |
          | GRADIENT NORM               0.000154922224 Eh/α |
          | HOMO-LUMO GAP               0.866840045867 eV   |
           -------------------------------------------------

 * finished run on 2022/07/30 at 08:57:06.064
