   * xtb version 6.5.1 (b24c23e) compiled by 'conda@728c89f4b128' on 2022-07-12
          program call               : xtb Co_PhCHO_C4_2.xyz --gfn 1 --opt -T 48

   ID    Z sym.   atoms
    1   27 Co     1, 61
    2    6 C      2-6, 8-13, 15-19, 21-26, 28-33, 35-40, 62-66, 68-73, 75-79,
                  81-86, 88-93, 95-100, 121-124
    3    7 N      7, 20, 27, 41, 67, 80, 87, 101
    4    8 O      14, 34, 74, 94
    5    1 H      42-60, 102-120
########################################################################
[WARNING] Please study the warnings concerning your input carefully
-1- prog_main_parseArguments: Unknown option '-T' provided
########################################################################

          :  Hamiltonian                  GFN1-xTB          :
 * total energy  :  -223.2276851 Eh     change       -0.7262798E-08 Eh
 * total energy  :  -223.7082022 Eh     change       -0.4805172E+00 Eh
 * total energy  :  -223.7898288 Eh     change       -0.8162659E-01 Eh
 * total energy  :  -223.8297345 Eh     change       -0.3990566E-01 Eh
 * total energy  :  -223.8425688 Eh     change       -0.1283429E-01 Eh
 * total energy  :  -223.8492070 Eh     change       -0.6638207E-02 Eh
 * total energy  :  -223.8521433 Eh     change       -0.2936330E-02 Eh
 * total energy  :  -223.8541091 Eh     change       -0.1965834E-02 Eh
 * total energy  :  -223.8552024 Eh     change       -0.1093294E-02 Eh
 * total energy  :  -223.8562133 Eh     change       -0.1010914E-02 Eh
 * total energy  :  -223.8585667 Eh     change       -0.1662200E-04 Eh
 * total energy  :  -223.8585844 Eh     change       -0.1777099E-04 Eh
 * total energy  :  -223.8585996 Eh     change       -0.1515428E-04 Eh
 * total energy  :  -223.8586086 Eh     change       -0.8985107E-05 Eh
 * total energy  :  -223.8586160 Eh     change       -0.7393768E-05 Eh
 * total energy  :  -223.8586218 Eh     change       -0.5843412E-05 Eh
 * total energy  :  -223.8586293 Eh     change       -0.7449864E-05 Eh
 * total energy  :  -223.8586424 Eh     change       -0.1311309E-04 Eh
 * total energy  :  -223.8586455 Eh     change       -0.3154307E-05 Eh
   *** GEOMETRY OPTIMIZATION CONVERGED AFTER 44 ITERATIONS ***

 final structure:
================
124
 xtb: 6.5.1 (b24c23e)
Co          15.86682677567609        0.06631989138689       -0.07171928118034
C           12.49536011494843        0.11611621249621       -0.29502476967648
C           13.17106095157145        1.31530577726152       -0.34903498509317
C           12.51741896092707        2.58417947306972       -0.45481646156960
C           13.46671959214097        3.52673337216178       -0.25227496252253
C           14.70407750576061        2.83237606865646       -0.04476791943495
N           14.51938894656963        1.47720496813042       -0.14679838749797
C           15.88667177254618        3.45019143675904        0.33931174587990
C           15.88680503538438        4.91364002186743        0.57119791279914
C           16.11314755605525        5.42119936824937        1.85352706301399
C           16.09934999403029        6.78495964319092        2.07500282443675
C           15.86495416214164        7.67086766000725        1.01832354538441
C           15.85049341628882        9.12189899814022        1.28143948309157
O           16.02683120287658        9.60586264539367        2.36980114268444
C           15.64658952502833        7.16394321942735       -0.26477055038573
C           15.65539674252229        5.79788883493615       -0.48529922547663
C           17.06913260178059        2.74528146519660        0.50299571894436
C           18.32309282362687        3.35948345767699        0.82206746653063
C           19.27382386705403        2.40670913455854        0.67308826922580
N           17.24918666244169        1.41433913479741        0.20001784391591
C           18.59895784535612        1.21390483764947        0.27007102120146
C           19.26646212418768        0.04160679274932       -0.09240330012824
C           18.57989151863986       -1.13188044678227       -0.41031745948587
C           19.23497952830914       -2.35012152315100       -0.76820206234331
C           18.27484646579081       -3.30338533477947       -0.82908479696875
C           17.03622626838821       -2.66236526653937       -0.50481472712807
N           17.22892404263918       -1.31444929334566       -0.30666961296876
C           15.83260024205059       -3.33447798067554       -0.35255573156152
C           15.81766381369711       -4.81025174741752       -0.45886520630580
C           15.05461195904460       -5.43682947674176       -1.44828907789973
C           15.04101532997572       -6.81603937879849       -1.55434928750747
C           15.78622031321320       -7.59698478684735       -0.66775448380756
C           15.78522313536150       -9.06885666730423       -0.75767239812777
O           16.40555341595979       -9.78495998018909       -0.01446926721227
C           16.54845503369728       -6.97031743677354        0.32366541845523
C           16.56733671139200       -5.59254672147902        0.42467917597635
C           14.63779664205671       -2.66260454324643       -0.13122191335963
C           13.37105624928754       -3.31239569872205        0.03937350811334
C           12.42895849192950       -2.34052553362458        0.02777525986144
C           13.12332659855863       -1.09868373641869       -0.12425567390900
N           14.47953091489937       -1.30093394033867       -0.16918997856425
H           11.41392899993585        0.13182280357835       -0.36109509358002
H           11.46186439913734        2.71436088357626       -0.63247082445087
H           13.34919640024301        4.59776686074637       -0.22618230800251
H           16.28325909062892        4.73544159954900        2.67573474335004
H           16.26642283588706        7.18804475750842        3.06807220844146
H           15.66335712419472        9.74642018443003        0.38198335460399
H           15.46910163797564        7.84490614079614       -1.09082240851979
H           15.49664100480043        5.40714460624943       -1.48402592104001
H           18.45040117774264        4.39337647940086        1.09823124710760
H           20.33994229067129        2.48994551139899        0.80943391572092
H           20.29512503258859       -2.44814706892892       -0.93716779640346
H           18.38345415954085       -4.34765853009385       -1.07238022468406
H           14.48544863628537       -4.83243608635276       -2.14558947503068
H           14.45079061404073       -7.29399412156488       -2.32944681510761
H           15.15454162083650       -9.47470693047305       -1.57725706932231
H           17.12152512708942       -7.58529819246938        1.00921569869392
H           17.15057104673744       -5.10967766929358        1.20054980187499
H           13.23433331150766       -4.37593279563205        0.14888726929923
H           11.35838861696824       -2.43493809692228        0.11545711233459
Co          29.26548135547416       -0.05338753958729       -0.11147439322139
C           32.63711503041532       -0.07194029323205       -0.30965551784491
C           31.96149438720969       -1.25116178068238       -0.53506359529847
C           32.61444081107023       -2.49120956605281       -0.82547142084946
C           31.66562315473037       -3.45355202354444       -0.75835981705297
C           30.42916884615479       -2.79708524996208       -0.44807748238786
N           30.61458186745162       -1.44185681449057       -0.35030532654817
C           29.24761209050812       -3.46344607751630       -0.15154187782643
C           29.24747556117007       -4.94500743504940       -0.13037794249016
C           29.02405709086349       -5.63048255793761        1.06685515450629
C           29.03812565187739       -7.01191690376451        1.09133508899181
C           29.26965504988654       -7.73790584498091       -0.08156804904596
C           29.28319085144360       -9.21159845962091       -0.02884654009534
O           29.11022018827559       -9.84636273455168        0.97963672081643
C           29.48523392699735       -7.05294346838213       -1.27964605281176
C           29.47618105837799       -5.66943147528627       -1.30282771204596
C           28.06595613036075       -2.78835115029160        0.11166757770840
C           26.81144691645856       -3.44148131038978        0.33829118165711
C           25.86050618366924       -2.47762591487195        0.32132673100890
N           27.88642295829776       -1.42745823979005        0.00320939076359
C           26.53576505730528       -1.23954138390877        0.09287497702075
C           25.86853885774981       -0.02787794987397       -0.10053009572972
C           26.55493466473932        1.17900220389380       -0.24873138292046
C           25.90036176120116        2.43536942769603       -0.43338911805061
C           26.85974343151960        3.38814060145048       -0.35305914947561
C           28.09768547012497        2.70816707353043       -0.11818620904053
N           27.90484945351306        1.34614642548181       -0.11080225808614
C           29.30093309071198        3.35177026419896        0.13058308651506
C           29.31556574857918        4.82764073421604        0.23514365913141
C           30.08012752259626        5.58832908257475       -0.65407315071309
C           30.09358370020696        6.96859761408566       -0.56343720216233
C           29.34641095962445        7.61593426808524        0.42348518477448
C           29.34830477575596        9.08555291482062        0.54373854307484
O           28.72464857213752        9.68954860410642        1.37818159331135
C           28.58201903196222        6.85497345884997        1.31416264469597
C           28.56357275235224        5.47677212816661        1.21889776672969
C           30.49539109457797        2.65483598971359        0.25287759020239
C           31.76281693442769        3.27339227131342        0.51223100279650
C           32.70437644722752        2.31300540103507        0.36056890441667
C           32.00929379101409        1.10550973999748        0.03421414277002
N           30.65272401871917        1.31146415985573        0.02532633328399
H           33.71844026194537       -0.07752276969294       -0.37885580235619
H           33.66915018541892       -2.59395716188367       -1.02483969388353
H           31.78316360405109       -4.51694818695165       -0.88868045765928
H           28.85594829947849       -5.06919869456319        1.97895893110913
H           28.87336158291263       -7.55269496049591        2.01707974543707
H           29.47021816978933       -9.70096981293715       -1.00846208868543
H           29.66045629958640       -7.60898198065296       -2.19490683153009
H           29.63245849678399       -5.14009537134322       -2.23595884783643
H           26.68419782814087       -4.50414783824903        0.46474509991672
H           24.79395494320166       -2.57958709917123        0.44053797633388
H           24.84102428617915        2.55610889101030       -0.59251324624013
H           26.75118476165417        4.45629111103275       -0.44689590501534
H           30.65065944330722        5.08896556869244       -1.42905830374994
H           30.68512887084677        7.55165166826848       -1.26179861681960
H           29.97964893929334        9.60329988400849       -0.20964164364434
H           28.00727086034081        7.36654031317899        2.07873174736607
H           27.97880671821689        4.88880240169640        1.91722069164416
H           31.90024764043397        4.31053093448801        0.77154552628942
H           33.77522482227624        2.39394344264790        0.45783436664840
C           21.89267904984254        0.01671003645789       -0.12168345286508
C           20.67066239213988        0.03255922185698       -0.10927048337297
C           23.24222342289394        0.00250669178885       -0.12437084250829
C           24.46423689388252       -0.01658873443719       -0.11711514377478

          :  Hamiltonian                  GFN1-xTB          :
         :: total energy            -223.858645539405 Eh    ::
         :: gradient norm              0.000855134727 Eh/a0 ::
         :: HOMO-LUMO gap              0.003704525303 eV    ::
         :: SCC energy              -227.299762520432 Eh    ::
         :: repulsion energy           3.551431942682 Eh    ::

    * Orbital Energies and Occupations

         #    Occupation            Energy/Eh            Energy/eV
      -------------------------------------------------------------
         1        2.0000           -0.7934083             -21.5897
       ...           ...                  ...                  ...
       192        2.0000           -0.4409348             -11.9984
       193        2.0000           -0.4387247             -11.9383
       194        2.0000           -0.4112014             -11.1894
       195        2.0000           -0.4103657             -11.1666
       196        2.0000           -0.4099862             -11.1563
       197        2.0000           -0.4093792             -11.1398
       198        2.0000           -0.4088451             -11.1252
       199        1.9998           -0.4059772             -11.0472
       200        1.9998           -0.4058831             -11.0446
       201        1.9998           -0.4058617             -11.0441
       202        1.9997           -0.4057365             -11.0407
       203        1.8627           -0.3996857             -10.8760
       204        1.1047           -0.3974081             -10.8140 (HOMO)
       205        1.0335           -0.3972720             -10.8103 (LUMO)
       206                         -0.3513920              -9.5619
       207                         -0.3443854              -9.3712
       208                         -0.3439868              -9.3604
       209                         -0.3384137              -9.2087
       210                         -0.3290287              -8.9533
       211                         -0.3284773              -8.9383
       212                         -0.3240378              -8.8175
       213                         -0.3236922              -8.8081
       214                         -0.3088250              -8.4036
       215                         -0.3083437              -8.3905
       ...                                ...                  ...
       430                          1.5023181              40.8802
      -------------------------------------------------------------
                  HL-Gap            0.0001361 Eh            0.0037 eV

Wiberg/Mayer (AO) data.
largest (>0.10) Wiberg bond orders for each atom

     #   Z sym  total        # sym  WBO       # sym  WBO       # sym  WBO
 ---------------------------------------------------------------------------
     1  27 Co   3.041 --     7 N    0.640    41 N    0.636    27 N    0.634
                            20 N    0.633
     2   6 C    3.929 --     3 C    1.368    40 C    1.362    42 H    0.970
     3   6 C    3.923 --     2 C    1.368     7 N    1.200     4 C    1.173
     4   6 C    3.960 --     5 C    1.651     3 C    1.173    43 H    0.975
     5   6 C    3.963 --     4 C    1.651     6 C    1.175    44 H    0.972
     6   6 C    3.919 --     8 C    1.318     7 N    1.214     5 C    1.175
     7   7 N    3.346 --     6 C    1.214     3 C    1.200     1 Co   0.640
     8   6 C    3.931 --    17 C    1.333     6 C    1.318     9 C    1.026
     9   6 C    3.986 --    16 C    1.386    10 C    1.383     8 C    1.026
    10   6 C    3.988 --    11 C    1.470     9 C    1.383    45 H    0.972
                            15 C    0.101
    11   6 C    3.988 --    10 C    1.470    12 C    1.371    46 H    0.968
                            16 C    0.101
    12   6 C    3.984 --    15 C    1.380    11 C    1.371    13 C    1.048
    13   6 C    3.864 --    14 O    1.810    12 C    1.048    47 H    0.942
    14   8 O    2.006 --    13 C    1.810
    15   6 C    3.993 --    16 C    1.464    12 C    1.380    48 H    0.971
                            10 C    0.101
    16   6 C    3.988 --    15 C    1.464     9 C    1.386    49 H    0.972
                            11 C    0.101
    17   6 C    3.915 --     8 C    1.333    20 N    1.193    18 C    1.180
    18   6 C    3.958 --    19 C    1.639    17 C    1.180    50 H    0.973
    19   6 C    3.962 --    18 C    1.639    21 C    1.189    51 H    0.973
    20   7 N    3.350 --    21 C    1.232    17 C    1.193     1 Co   0.633
    21   6 C    3.904 --    22 C    1.260    20 N    1.232    19 C    1.189
    22   6 C    3.934 --    23 C    1.263    21 C    1.260   122 C    1.187
    23   6 C    3.904 --    22 C    1.263    27 N    1.229    24 C    1.189
    24   6 C    3.961 --    25 C    1.638    23 C    1.189    52 H    0.973
    25   6 C    3.959 --    24 C    1.638    26 C    1.181    53 H    0.973
    26   6 C    3.916 --    28 C    1.328    27 N    1.196    25 C    1.181
    27   7 N    3.347 --    23 C    1.229    26 C    1.196     1 Co   0.634
    28   6 C    3.932 --    26 C    1.328    37 C    1.317    29 C    1.033
    29   6 C    3.986 --    30 C    1.382    36 C    1.381    28 C    1.033
    30   6 C    3.987 --    31 C    1.465    29 C    1.382    54 H    0.972
                            35 C    0.101
    31   6 C    3.993 --    30 C    1.465    32 C    1.379    55 H    0.971
    32   6 C    3.983 --    31 C    1.379    35 C    1.370    33 C    1.048
    33   6 C    3.864 --    34 O    1.810    32 C    1.048    56 H    0.942
    34   8 O    2.005 --    33 C    1.810
    35   6 C    3.988 --    36 C    1.470    32 C    1.370    57 H    0.968
                            30 C    0.101
    36   6 C    3.987 --    35 C    1.470    29 C    1.381    58 H    0.972
    37   6 C    3.920 --    28 C    1.317    41 N    1.213    38 C    1.176
    38   6 C    3.962 --    39 C    1.648    37 C    1.176    59 H    0.973
    39   6 C    3.959 --    38 C    1.648    40 C    1.175    60 H    0.975
    40   6 C    3.923 --     2 C    1.362    41 N    1.203    39 C    1.175
    41   7 N    3.347 --    37 C    1.213    40 C    1.203     1 Co   0.636
    42   1 H    1.000 --     2 C    0.970
    43   1 H    0.997 --     4 C    0.975
    44   1 H    1.004 --     5 C    0.972
    45   1 H    1.003 --    10 C    0.972
    46   1 H    1.004 --    11 C    0.968
    47   1 H    1.010 --    13 C    0.942
    48   1 H    1.000 --    15 C    0.971
    49   1 H    1.003 --    16 C    0.972
    50   1 H    1.003 --    18 C    0.973
    51   1 H    1.001 --    19 C    0.973
    52   1 H    1.001 --    24 C    0.973
    53   1 H    1.003 --    25 C    0.973
    54   1 H    1.004 --    30 C    0.972
    55   1 H    1.000 --    31 C    0.971
    56   1 H    1.010 --    33 C    0.942
    57   1 H    1.005 --    35 C    0.968
    58   1 H    1.004 --    36 C    0.972
    59   1 H    1.003 --    38 C    0.973
    60   1 H    0.997 --    39 C    0.975
    61  27 Co   3.017 --    67 N    0.637   101 N    0.637    80 N    0.634
                            87 N    0.632
    62   6 C    3.928 --    63 C    1.367   100 C    1.363   102 H    0.970
    63   6 C    3.923 --    62 C    1.367    67 N    1.200    64 C    1.173
    64   6 C    3.959 --    65 C    1.651    63 C    1.173   103 H    0.975
    65   6 C    3.962 --    64 C    1.651    66 C    1.176   104 H    0.972
    66   6 C    3.919 --    68 C    1.317    67 N    1.214    65 C    1.176
    67   7 N    3.346 --    66 C    1.214    63 C    1.200    61 Co   0.637
    68   6 C    3.930 --    77 C    1.334    66 C    1.317    69 C    1.026
    69   6 C    3.986 --    76 C    1.385    70 C    1.383    68 C    1.026
    70   6 C    3.988 --    71 C    1.470    69 C    1.383   105 H    0.972
                            75 C    0.101
    71   6 C    3.988 --    70 C    1.470    72 C    1.371   106 H    0.968
                            76 C    0.101
    72   6 C    3.984 --    75 C    1.379    71 C    1.371    73 C    1.048
    73   6 C    3.864 --    74 O    1.810    72 C    1.048   107 H    0.942
    74   8 O    2.005 --    73 C    1.810
    75   6 C    3.993 --    76 C    1.464    72 C    1.379   108 H    0.971
                            70 C    0.101
    76   6 C    3.988 --    75 C    1.464    69 C    1.385   109 H    0.972
                            71 C    0.101
    77   6 C    3.915 --    68 C    1.334    80 N    1.192    78 C    1.179
    78   6 C    3.957 --    79 C    1.640    77 C    1.179   110 H    0.973
    79   6 C    3.962 --    78 C    1.640    81 C    1.189   111 H    0.973
    80   7 N    3.348 --    81 C    1.231    77 C    1.192    61 Co   0.634
    81   6 C    3.903 --    82 C    1.261    80 N    1.231    79 C    1.189
    82   6 C    3.932 --    83 C    1.263    81 C    1.261   124 C    1.186
    83   6 C    3.903 --    82 C    1.263    87 N    1.228    84 C    1.189
    84   6 C    3.961 --    85 C    1.637    83 C    1.189   112 H    0.973
    85   6 C    3.958 --    84 C    1.637    86 C    1.182   113 H    0.973
    86   6 C    3.916 --    88 C    1.327    87 N    1.197    85 C    1.182
    87   7 N    3.347 --    83 C    1.228    86 C    1.197    61 Co   0.632
    88   6 C    3.930 --    86 C    1.327    97 C    1.318    89 C    1.033
    89   6 C    3.986 --    90 C    1.382    96 C    1.381    88 C    1.033
    90   6 C    3.987 --    91 C    1.466    89 C    1.382   114 H    0.972
                            95 C    0.101
    91   6 C    3.993 --    90 C    1.466    92 C    1.378   115 H    0.971
    92   6 C    3.983 --    91 C    1.378    95 C    1.370    93 C    1.048
    93   6 C    3.864 --    94 O    1.809    92 C    1.048   116 H    0.942
    94   8 O    2.005 --    93 C    1.809
    95   6 C    3.988 --    96 C    1.471    92 C    1.370   117 H    0.968
                            90 C    0.101
    96   6 C    3.987 --    95 C    1.471    89 C    1.381   118 H    0.972
    97   6 C    3.920 --    88 C    1.318   101 N    1.212    98 C    1.175
    98   6 C    3.962 --    99 C    1.649    97 C    1.175   119 H    0.973
    99   6 C    3.959 --    98 C    1.649   100 C    1.175   120 H    0.975
   100   6 C    3.923 --    62 C    1.363   101 N    1.202    99 C    1.175
   101   7 N    3.345 --    97 C    1.212   100 C    1.202    61 Co   0.637
   102   1 H    1.000 --    62 C    0.970
   103   1 H    0.997 --    64 C    0.975
   104   1 H    1.004 --    65 C    0.972
   105   1 H    1.003 --    70 C    0.972
   106   1 H    1.004 --    71 C    0.968
   107   1 H    1.010 --    73 C    0.942
   108   1 H    1.000 --    75 C    0.971
   109   1 H    1.003 --    76 C    0.972
   110   1 H    1.003 --    78 C    0.973
   111   1 H    1.001 --    79 C    0.973
   112   1 H    1.001 --    84 C    0.973
   113   1 H    1.003 --    85 C    0.973
   114   1 H    1.004 --    90 C    0.972
   115   1 H    1.000 --    91 C    0.971
   116   1 H    1.010 --    93 C    0.942
   117   1 H    1.005 --    95 C    0.968
   118   1 H    1.004 --    96 C    0.972
   119   1 H    1.003 --    98 C    0.973
   120   1 H    0.997 --    99 C    0.975
   121   6 C    3.930 --   122 C    2.473   123 C    1.309
   122   6 C    3.920 --   121 C    2.473    22 C    1.187   124 C    0.198
   123   6 C    3.931 --   124 C    2.474   121 C    1.309
   124   6 C    3.919 --   123 C    2.474    82 C    1.186   122 C    0.198
 ---------------------------------------------------------------------------

           -------------------------------------------------
          | TOTAL ENERGY             -223.858645539405 Eh   |
          | GRADIENT NORM               0.000855134727 Eh/α |
          | HOMO-LUMO GAP               0.003704525303 eV   |
           -------------------------------------------------

 * finished run on 2022/07/29 at 22:30:37.354
