   * xtb version 6.5.1 (b24c23e) compiled by 'conda@728c89f4b128' on 2022-07-12
          program call               : xtb Cu_PhCN_C2_2.xyz --gfn 1 --opt -T 48

   ID    Z sym.   atoms
    1   29 Cu     1, 59
    2    6 C      2-6, 8-13, 15-19, 21-26, 28-33, 35-40, 60-64, 66-71, 73-77,
                  79-84, 86-91, 93-98, 117, 118
    3    7 N      7, 14, 20, 27, 34, 41, 65, 72, 78, 85, 92, 99
    4    1 H      42-58, 100-116
########################################################################
[WARNING] Please study the warnings concerning your input carefully
-1- prog_main_parseArguments: Unknown option '-T' provided
########################################################################

          :  Hamiltonian                  GFN1-xTB          :
 * total energy  :  -213.2940909 Eh     change       -0.2187306E-08 Eh
 * total energy  :  -213.3670154 Eh     change       -0.7292451E-01 Eh
 * total energy  :  -213.4068022 Eh     change       -0.3978680E-01 Eh
 * total energy  :  -213.4156425 Eh     change       -0.8840256E-02 Eh
 * total energy  :  -213.4215019 Eh     change       -0.5859356E-02 Eh
 * total energy  :  -213.4246733 Eh     change       -0.3171447E-02 Eh
 * total energy  :  -213.4257391 Eh     change       -0.1065786E-02 Eh
 * total energy  :  -213.4276588 Eh     change       -0.1919740E-02 Eh
 * total energy  :  -213.4284833 Eh     change       -0.8244997E-03 Eh
 * total energy  :  -213.4292362 Eh     change       -0.7528995E-03 Eh
 * total energy  :  -213.4324740 Eh     change       -0.1186050E-04 Eh
 * total energy  :  -213.4324873 Eh     change       -0.1327330E-04 Eh
 * total energy  :  -213.4324949 Eh     change       -0.7535015E-05 Eh
 * total energy  :  -213.4325048 Eh     change       -0.9906140E-05 Eh
 * total energy  :  -213.4325140 Eh     change       -0.9199645E-05 Eh
 * total energy  :  -213.4325229 Eh     change       -0.8906756E-05 Eh
 * total energy  :  -213.4325322 Eh     change       -0.9284778E-05 Eh
 * total energy  :  -213.4325397 Eh     change       -0.7499042E-05 Eh
 * total energy  :  -213.4325442 Eh     change       -0.4508109E-05 Eh
   *** GEOMETRY OPTIMIZATION CONVERGED AFTER 40 ITERATIONS ***

 final structure:
================
118
 xtb: 6.5.1 (b24c23e)
Cu          18.16649925632588        0.04047343190961        0.00026811687337
C           14.76134264061021        0.05680822495058        0.12841867407987
C           15.39862197466434        1.27515593123732        0.30847955331386
C           14.72569626591548        2.52851318265856        0.49765859704452
C           15.68624519697722        3.47530104448758        0.63639012912990
C           16.95592135019384        2.80584111123950        0.54535365365169
N           16.74980613294400        1.47279868595863        0.33799575533966
C           18.20266275790549        3.42971410903598        0.63687393649768
C           18.21847979588909        4.88500944415675        0.92150550450011
C           17.66844982683602        5.37884849386863        2.10688256702230
C           17.68352282667157        6.73472476013821        2.38019768574327
C           18.24760755685578        7.62786866961181        1.46433022483048
C           18.26336223824677        9.02396155512460        1.74182109495084
N           18.27610612836525       10.15233622774235        1.96729097779778
C           18.79653801090392        7.13938479493473        0.27492047101904
C           18.78284740439173        5.78148436313873        0.01103021746429
C           19.43496248961217        2.78839150243451        0.48997512933756
C           20.71375345018823        3.41811487892132        0.66107460607023
C           21.65710616653424        2.46416927669174        0.45735976938217
N           19.62018706120310        1.46416954263992        0.19495163480002
C           20.96396612786074        1.24541965562428        0.16499114064534
C           21.59503750563980        0.01863748615915       -0.10114062438693
C           20.93305888168897       -1.19725453977831       -0.34135924725868
C           21.59204203830436       -2.42177262604642       -0.68383707230821
C           20.62605065703801       -3.36214411991731       -0.83928620618571
C           19.36810966806542       -2.71906365904262       -0.58419386800557
N           19.58724172933593       -1.39895997123045       -0.29379111175412
C           18.12172665958663       -3.34676509785980       -0.64794088832867
C           18.10121578908743       -4.80108476737863       -0.93639610906305
C           17.45651159935646       -5.28605339640773       -2.07694879721622
C           17.43532590548212       -6.64134849384743       -2.35258783910454
C           18.05810670188165       -7.54284589853247       -1.48412609921262
C           18.03620850051872       -8.93831598265706       -1.76415674034590
N           18.01877833385786      -10.06601969462893       -1.99268527940640
C           18.70213547749618       -7.06328970655375       -0.33961443817499
C           18.72361041811555       -5.70599968604059       -0.07323846622219
C           16.89140087165278       -2.71104900843275       -0.46243768039233
C           15.61218880894270       -3.36845494183292       -0.45729858163067
C           14.67421939880997       -2.41353454887741       -0.24132707639853
C           15.37148235799619       -1.16701628992591       -0.10162674349121
N           16.71445062176390       -1.37695887604716       -0.23594214426054
H           13.67706918967183        0.06172181260456        0.17082583443307
H           13.65460455578392        2.65485102831033        0.50967432908256
H           15.55379614225279        4.53626718112128        0.77476480797472
H           17.24125799957861        4.68815986467137        2.82518225584467
H           17.26022158049495        7.10934454606498        3.30484781611673
H           19.23115249957043        7.82927205610077       -0.43897587664124
H           19.19875261568438        5.40781630914437       -0.91787805963119
H           20.86691562652686        4.45272041255671        0.92210853508195
H           22.72894378107338        2.56676417337741        0.51085156202224
H           22.65724540155623       -2.53628422573021       -0.80422561287375
H           20.75033589189573       -4.39583852165532       -1.11854414204576
H           16.98318708477328       -4.58901224004625       -2.75931365021371
H           16.93777192658736       -7.00917887288410       -3.24233933895093
H           19.18250933410030       -7.75954302331876        0.33786100436326
H           19.21313380935288       -5.33931198842861        0.82196741864975
H           15.45939396506908       -4.42765348176224       -0.58799199518034
H           13.60431271046091       -2.53019669589420       -0.17031990532151
Cu          29.06140007616285       -0.04038441739657        0.00245031958852
C           32.46656031892726       -0.04988287870733        0.13146123804205
C           31.82922656110345       -1.25671356956267        0.37697312794883
C           32.50209209037374       -2.49805705766160        0.63356219607739
C           31.54149607210437       -3.43592561619071        0.82319916946780
C           30.27185354870959       -2.77229972007467        0.69611006376044
N           30.47803175447024       -1.45242052013935        0.41705829678836
C           29.02509421414404       -3.39029251451633        0.82120818133625
C           29.00941294118316       -4.82801086704975        1.18434396335954
C           29.55958875044238       -5.25665547636592        2.39477073357605
C           29.54482757233563       -6.59568627168899        2.74130438540726
C           28.98083008096119       -7.53733762378218        1.87534267596832
C           28.96478936879128       -8.91632339711003        2.22815021952564
N           28.94975394888557      -10.03084690947687        2.51434640729176
C           28.43190514076888       -7.11428481944079        0.66111328792437
C           28.44528276989850       -5.77271160412757        0.32387717962148
C           27.79281824080907       -2.75783836417731        0.63978175024733
C           26.51399511050773       -3.37734208783199        0.84460751335350
C           25.57069472902757       -2.43573778140674        0.58966879185257
N           27.60766227118857       -1.45147283601591        0.27363998889102
C           26.26389629947597       -1.23458788615735        0.23191531274858
C           25.63288381403064       -0.02394377840482       -0.10012088896859
C           26.29491736750652        1.17714423359241       -0.40575354009469
C           25.63600016586051        2.38132652847237       -0.81412482532704
C           26.60203423663862        3.31187942101640       -1.02016185268332
C           27.85993134998809        2.68355591611926       -0.73041795397668
N           27.64073366273730        1.38111033339507       -0.36900753358638
C           29.10634221479920        3.30688178842053       -0.82783308407054
C           29.12683108708193        4.74340474729419       -1.19477561504607
C           29.77168363300293        5.16578961737786       -2.35986888271965
C           29.79246006303543        6.50407258886383       -2.70893934638170
C           29.16912380434283        7.45127776684456       -1.89103522342849
C           29.19011419320814        8.82956338736448       -2.24615383393870
N           29.20651334790065        9.94364492661817       -2.53388055090113
C           28.52501853280604        7.03452005008446       -0.72220751769105
C           28.50396410293560        5.69376674521550       -0.38228038522043
C           30.33662046673267        2.68211741633057       -0.60799745127601
C           31.61584208162940        3.33883033683853       -0.63818150710438
C           32.55376986900333        2.39693327740854       -0.37091811696887
C           31.85646852429661        1.15977335018174       -0.16427184069008
N           30.51351607609493        1.36218918795318       -0.30983189473616
H           33.55083208943191       -0.05255300802766        0.17410131582365
H           33.57317600040150       -2.62361490061658        0.65242597739144
H           31.67389919462079       -4.48787884246938        1.01865199576217
H           29.98663995417336       -4.52787991813256        3.07448881601452
H           29.96828495472748       -6.91945636289099        3.68489258142885
H           27.99753089748301       -7.84203094224200       -0.01430293799502
H           28.02931364160343       -5.45014107117516       -0.62395684449341
H           26.36078437308489       -4.39634815880463        1.16108786356774
H           24.49885216484332       -2.53523675791799        0.64862137527876
H           24.57081503178000        2.48916618396933       -0.94069719400171
H           26.47779447531090        4.32892769858380       -1.35502025665386
H           30.24538667463169        4.43278014462922       -3.00316592161117
H           30.29010273878233        6.82301400666520       -3.61730755826492
H           28.04426213046330        7.76651433234392       -0.08379561079680
H           28.01435915247919        5.37621705262327        0.53146717619748
H           31.76865793984977        4.38944699011953       -0.82575296096075
H           33.62367287463834        2.51722551899396       -0.30619289603938
C           23.00588527785622        0.00444044107080       -0.11964916203306
C           24.22203628173870       -0.01071243048337       -0.11934812568646

          :  Hamiltonian                  GFN1-xTB          :
         :: total energy            -213.432544162254 Eh    ::
         :: gradient norm              0.000261445395 Eh/a0 ::
         :: HOMO-LUMO gap              0.004698476092 eV    ::
         :: SCC energy              -216.887470079541 Eh    ::
         :: repulsion energy           3.565237890734 Eh    ::

    * Orbital Energies and Occupations

         #    Occupation            Energy/Eh            Energy/eV
      -------------------------------------------------------------
         1        2.0000           -0.7757151             -21.1083
       ...           ...                  ...                  ...
       186        2.0000           -0.4227127             -11.5026
       187        2.0000           -0.4226756             -11.5016
       188        2.0000           -0.4195651             -11.4169
       189        2.0000           -0.4195624             -11.4169
       190        2.0000           -0.4194630             -11.4142
       191        2.0000           -0.4193870             -11.4121
       192        2.0000           -0.4193787             -11.4119
       193        2.0000           -0.4193775             -11.4118
       194        2.0000           -0.4072380             -11.0815
       195        2.0000           -0.4072372             -11.0815
       196        2.0000           -0.4062731             -11.0553
       197        2.0000           -0.3932110             -10.6998
       198        1.0454           -0.3671353              -9.9903 (HOMO)
       199        0.9546           -0.3669626              -9.9856 (LUMO)
       200                         -0.3491168              -9.5000
       201                         -0.3412062              -9.2847
       202                         -0.3412025              -9.2846
       203                         -0.3333584              -9.0711
       204                         -0.3131283              -8.5207
       205                         -0.3096646              -8.4264
       206                         -0.3030474              -8.2463
       207                         -0.3030411              -8.2462
       208                         -0.2979303              -8.1071
       209                         -0.2928615              -7.9692
       ...                                ...                  ...
       414                          1.3305670              36.2066
      -------------------------------------------------------------
                  HL-Gap            0.0001727 Eh            0.0047 eV

Wiberg/Mayer (AO) data.
largest (>0.10) Wiberg bond orders for each atom

     #   Z sym  total        # sym  WBO       # sym  WBO       # sym  WBO
 ---------------------------------------------------------------------------
     1  29 Cu   2.181 --     7 N    0.504    41 N    0.504    27 N    0.501
                            20 N    0.501
     2   6 C    3.930 --     3 C    1.362    40 C    1.362    42 H    0.971
     3   6 C    3.916 --     2 C    1.362     7 N    1.229     4 C    1.170
     4   6 C    3.955 --     5 C    1.657     3 C    1.170    43 H    0.975
     5   6 C    3.958 --     4 C    1.657     6 C    1.171    44 H    0.973
     6   6 C    3.914 --     8 C    1.319     7 N    1.241     5 C    1.171
     7   7 N    3.243 --     6 C    1.241     3 C    1.229     1 Cu   0.504
     8   6 C    3.933 --    17 C    1.323     6 C    1.319     9 C    1.031
     9   6 C    3.963 --    16 C    1.385    10 C    1.385     8 C    1.031
    10   6 C    3.987 --    11 C    1.464     9 C    1.385    45 H    0.971
                            15 C    0.102
    11   6 C    3.993 --    10 C    1.464    12 C    1.364    46 H    0.972
                            16 C    0.102
    12   6 C    3.984 --    15 C    1.364    11 C    1.364    13 C    1.098
    13   6 C    3.958 --    14 N    2.819    12 C    1.098
    14   7 N    2.973 --    13 C    2.819
    15   6 C    3.993 --    16 C    1.464    12 C    1.364    47 H    0.972
                            10 C    0.102
    16   6 C    3.987 --    15 C    1.464     9 C    1.385    48 H    0.971
                            11 C    0.102
    17   6 C    3.908 --     8 C    1.323    20 N    1.226    18 C    1.179
    18   6 C    3.955 --    19 C    1.643    17 C    1.179    49 H    0.973
    19   6 C    3.957 --    18 C    1.643    21 C    1.186    50 H    0.971
    20   7 N    3.247 --    21 C    1.254    17 C    1.226     1 Cu   0.501
    21   6 C    3.903 --    22 C    1.267    20 N    1.254    19 C    1.186
    22   6 C    3.940 --    21 C    1.267    23 C    1.266   117 C    1.170
    23   6 C    3.903 --    22 C    1.266    27 N    1.254    24 C    1.186
    24   6 C    3.957 --    25 C    1.642    23 C    1.186    51 H    0.971
    25   6 C    3.955 --    24 C    1.642    26 C    1.179    52 H    0.973
    26   6 C    3.909 --    28 C    1.323    27 N    1.225    25 C    1.179
    27   7 N    3.247 --    23 C    1.254    26 C    1.225     1 Cu   0.501
    28   6 C    3.933 --    26 C    1.323    37 C    1.318    29 C    1.031
    29   6 C    3.963 --    36 C    1.385    30 C    1.385    28 C    1.031
    30   6 C    3.987 --    31 C    1.464    29 C    1.385    53 H    0.971
                            35 C    0.102
    31   6 C    3.993 --    30 C    1.464    32 C    1.364    54 H    0.972
                            36 C    0.102
    32   6 C    3.984 --    35 C    1.364    31 C    1.364    33 C    1.098
    33   6 C    3.958 --    34 N    2.819    32 C    1.098
    34   7 N    2.973 --    33 C    2.819
    35   6 C    3.993 --    36 C    1.464    32 C    1.364    55 H    0.972
                            30 C    0.102
    36   6 C    3.987 --    35 C    1.464    29 C    1.385    56 H    0.971
                            31 C    0.102
    37   6 C    3.914 --    28 C    1.318    41 N    1.241    38 C    1.171
    38   6 C    3.958 --    39 C    1.657    37 C    1.171    57 H    0.973
    39   6 C    3.955 --    38 C    1.657    40 C    1.170    58 H    0.975
    40   6 C    3.916 --     2 C    1.362    41 N    1.229    39 C    1.170
    41   7 N    3.243 --    37 C    1.241    40 C    1.229     1 Cu   0.504
    42   1 H    1.001 --     2 C    0.971
    43   1 H    0.997 --     4 C    0.975
    44   1 H    1.004 --     5 C    0.973
    45   1 H    1.004 --    10 C    0.971
    46   1 H    1.000 --    11 C    0.972
    47   1 H    1.000 --    15 C    0.972
    48   1 H    1.004 --    16 C    0.971
    49   1 H    1.004 --    18 C    0.973
    50   1 H    1.005 --    19 C    0.971
    51   1 H    1.004 --    24 C    0.971
    52   1 H    1.004 --    25 C    0.973
    53   1 H    1.004 --    30 C    0.971
    54   1 H    1.000 --    31 C    0.972
    55   1 H    1.000 --    35 C    0.972
    56   1 H    1.004 --    36 C    0.971
    57   1 H    1.004 --    38 C    0.973
    58   1 H    0.997 --    39 C    0.975
    59  29 Cu   2.181 --    65 N    0.504    99 N    0.504    85 N    0.501
                            78 N    0.501
    60   6 C    3.930 --    61 C    1.362    98 C    1.362   100 H    0.971
    61   6 C    3.916 --    60 C    1.362    65 N    1.229    62 C    1.170
    62   6 C    3.955 --    63 C    1.657    61 C    1.170   101 H    0.975
    63   6 C    3.958 --    62 C    1.657    64 C    1.171   102 H    0.973
    64   6 C    3.914 --    66 C    1.319    65 N    1.241    63 C    1.171
    65   7 N    3.243 --    64 C    1.241    61 C    1.229    59 Cu   0.504
    66   6 C    3.933 --    75 C    1.323    64 C    1.319    67 C    1.031
    67   6 C    3.963 --    74 C    1.385    68 C    1.385    66 C    1.031
    68   6 C    3.987 --    69 C    1.464    67 C    1.385   103 H    0.971
                            73 C    0.102
    69   6 C    3.993 --    68 C    1.464    70 C    1.364   104 H    0.972
                            74 C    0.102
    70   6 C    3.984 --    73 C    1.364    69 C    1.364    71 C    1.098
    71   6 C    3.958 --    72 N    2.819    70 C    1.098
    72   7 N    2.973 --    71 C    2.819
    73   6 C    3.993 --    74 C    1.464    70 C    1.364   105 H    0.972
                            68 C    0.102
    74   6 C    3.987 --    73 C    1.464    67 C    1.385   106 H    0.971
                            69 C    0.102
    75   6 C    3.908 --    66 C    1.323    78 N    1.225    76 C    1.179
    76   6 C    3.955 --    77 C    1.643    75 C    1.179   107 H    0.973
    77   6 C    3.957 --    76 C    1.643    79 C    1.186   108 H    0.971
    78   7 N    3.247 --    79 C    1.254    75 C    1.225    59 Cu   0.501
    79   6 C    3.903 --    80 C    1.267    78 N    1.254    77 C    1.186
    80   6 C    3.940 --    79 C    1.267    81 C    1.266   118 C    1.170
    81   6 C    3.903 --    80 C    1.266    85 N    1.254    82 C    1.186
    82   6 C    3.957 --    83 C    1.642    81 C    1.186   109 H    0.971
    83   6 C    3.955 --    82 C    1.642    84 C    1.179   110 H    0.973
    84   6 C    3.909 --    86 C    1.323    85 N    1.225    83 C    1.179
    85   7 N    3.247 --    81 C    1.254    84 C    1.225    59 Cu   0.501
    86   6 C    3.933 --    84 C    1.323    95 C    1.318    87 C    1.031
    87   6 C    3.963 --    94 C    1.385    88 C    1.385    86 C    1.031
    88   6 C    3.987 --    89 C    1.464    87 C    1.385   111 H    0.971
                            93 C    0.102
    89   6 C    3.993 --    88 C    1.464    90 C    1.364   112 H    0.972
                            94 C    0.102
    90   6 C    3.984 --    93 C    1.364    89 C    1.364    91 C    1.098
    91   6 C    3.958 --    92 N    2.819    90 C    1.098
    92   7 N    2.973 --    91 C    2.819
    93   6 C    3.993 --    94 C    1.464    90 C    1.364   113 H    0.972
                            88 C    0.102
    94   6 C    3.987 --    93 C    1.464    87 C    1.385   114 H    0.971
                            89 C    0.102
    95   6 C    3.914 --    86 C    1.318    99 N    1.241    96 C    1.171
    96   6 C    3.958 --    97 C    1.657    95 C    1.171   115 H    0.973
    97   6 C    3.955 --    96 C    1.657    98 C    1.170   116 H    0.975
    98   6 C    3.916 --    60 C    1.362    99 N    1.229    97 C    1.170
    99   7 N    3.243 --    95 C    1.241    98 C    1.229    59 Cu   0.504
   100   1 H    1.001 --    60 C    0.971
   101   1 H    0.997 --    62 C    0.975
   102   1 H    1.004 --    63 C    0.973
   103   1 H    1.004 --    68 C    0.971
   104   1 H    1.000 --    69 C    0.972
   105   1 H    1.000 --    73 C    0.972
   106   1 H    1.004 --    74 C    0.971
   107   1 H    1.004 --    76 C    0.973
   108   1 H    1.005 --    77 C    0.971
   109   1 H    1.004 --    82 C    0.971
   110   1 H    1.004 --    83 C    0.973
   111   1 H    1.004 --    88 C    0.971
   112   1 H    1.000 --    89 C    0.972
   113   1 H    1.000 --    93 C    0.972
   114   1 H    1.004 --    94 C    0.971
   115   1 H    1.004 --    96 C    0.973
   116   1 H    0.997 --    97 C    0.975
   117   6 C    3.935 --   118 C    2.586    22 C    1.170
   118   6 C    3.935 --   117 C    2.586    80 C    1.170
 ---------------------------------------------------------------------------

           -------------------------------------------------
          | TOTAL ENERGY             -213.432544162254 Eh   |
          | GRADIENT NORM               0.000261445395 Eh/α |
          | HOMO-LUMO GAP               0.004698476092 eV   |
           -------------------------------------------------

 * finished run on 2022/07/30 at 14:12:24.244
