   * xtb version 6.5.1 (b24c23e) compiled by 'conda@728c89f4b128' on 2022-07-12
          program call               : xtb Cu_p-CP_C2_3.xyz --gfn 1 --opt -T 48

   ID    Z sym.   atoms
    1   29 Cu     1, 63, 129
    2    6 C      2-6, 8-11, 13-24, 27-32, 35-39, 42, 43, 64-68, 70-73,
                  75-86, 89-94, 97-101, 104, 105, 125-128, 130-134, 136-139,
                  141-152, 155-160, 163-167, 170, 171
    3    7 N      7, 12, 33, 34, 69, 74, 95, 96, 135, 140, 161, 162
    4    8 O      25, 26, 40, 41, 87, 88, 102, 103, 153, 154, 168, 169
    5    1 H      44-62, 106-124, 172-189
########################################################################
[WARNING] Please study the warnings concerning your input carefully
-1- prog_main_parseArguments: Unknown option '-T' provided
########################################################################

          :  Hamiltonian                  GFN1-xTB          :
 * total energy  :  -361.6608451 Eh     change        0.4285425E-08 Eh
 * total energy  :  -362.2309216 Eh     change       -0.5700765E+00 Eh
 * total energy  :  -362.3860193 Eh     change       -0.1550977E+00 Eh
 * total energy  :  -362.4600722 Eh     change       -0.7405287E-01 Eh
 * total energy  :  -362.4864809 Eh     change       -0.2640869E-01 Eh
 * total energy  :  -362.4978859 Eh     change       -0.1140508E-01 Eh
 * total energy  :  -362.5034796 Eh     change       -0.5593699E-02 Eh
 * total energy  :  -362.5069772 Eh     change       -0.3497595E-02 Eh
 * total energy  :  -362.5091264 Eh     change       -0.2149146E-02 Eh
 * total energy  :  -362.5104748 Eh     change       -0.1348417E-02 Eh
 * total energy  :  -362.5172750 Eh     change       -0.1239739E-04 Eh
 * total energy  :  -362.5172928 Eh     change       -0.1778981E-04 Eh
 * total energy  :  -362.5173076 Eh     change       -0.1481360E-04 Eh
 * total energy  :  -362.5173152 Eh     change       -0.7598850E-05 Eh
 * total energy  :  -362.5173224 Eh     change       -0.7201599E-05 Eh
 * total energy  :  -362.5173291 Eh     change       -0.6722811E-05 Eh
 * total energy  :  -362.5173356 Eh     change       -0.6505446E-05 Eh
 * total energy  :  -362.5173420 Eh     change       -0.6342538E-05 Eh
 * total energy  :  -362.5173463 Eh     change       -0.4362947E-05 Eh
   *** GEOMETRY OPTIMIZATION CONVERGED AFTER 49 ITERATIONS ***

 final structure:
================
189
 xtb: 6.5.1 (b24c23e)
Cu          38.52961141380981       -0.04915319583541        0.01867285535730
C           35.12550054504252       -0.11668321831740        0.03924651854340
C           35.75792603998828       -0.16438047831993        1.27224285591307
C           35.07954594269318       -0.20551484631413        2.53641253700296
C           36.03552651501727       -0.22218103522673        3.49743125281583
C           37.30841414044257       -0.20127942538612        2.82808611644278
N           37.10821661295903       -0.15951488539282        1.47825135091964
C           38.55106943587430       -0.18970346269039        3.46485424610064
C           39.78577262496265       -0.13366385119144        2.81435118403075
C           41.06280687018483       -0.17442348976064        3.47039090998227
C           42.01024718205559       -0.12345808486160        2.50078996426767
N           39.97482593945925       -0.06936189543536        1.46087285174555
C           41.32074473310225       -0.05756280389190        1.24626535675972
C           41.95350498760403        0.00022513095166       -0.00256461211272
C           41.30335728334781        0.04845845027918       -1.24268163086162
C           41.97586531958478        0.07871467828645       -2.50773392619793
C           41.01547691631753        0.11122523873671       -3.46532910214459
C           39.74739131583810        0.10882999780017       -2.79087110388097
C           38.50355701200578        0.11833956396376       -3.42672252473686
C           38.49311996395394        0.19300539902682       -4.90805309934414
C           37.94872861496766       -0.84820873650065       -5.66454165245434
C           37.94000086955860       -0.77759632217689       -7.04531356333091
C           38.47125018753299        0.33765458341116       -7.69614576239655
C           38.43516171569306        0.36895436462476       -9.17755209429161
O           38.97706879814476        1.47748485177085       -9.70505490989320
O           37.96967920104247       -0.50374729393474       -9.86566554482275
C           39.01488195889662        1.38071693356785       -6.94555160177109
C           39.02674599180808        1.30544990578740       -5.56372344302466
C           37.26948088992921        0.05997241503202       -2.77551571936701
C           35.98734907360357        0.11127318191490       -3.42536432145735
C           35.04477659034995        0.04055403901966       -2.45359625451338
C           35.74064936154710       -0.04395542248844       -1.20120983302947
N           37.08804388395853       -0.02504325924203       -1.42514144042882
N           39.95463506817973        0.06182452388956       -1.43931358440444
C           38.56041508018463       -0.23628569861469        4.94772131320913
C           38.05106079975680       -1.34661771472554        5.62570557038748
C           38.05701734973695       -1.38323819099007        7.00798004160697
C           38.56717820061127       -0.30805802687791        7.73818223607333
C           38.54339738834520       -0.38983083457292        9.21802897332314
O           39.05828703660508        0.69132873263622        9.82382559865553
O           38.10836002235304       -1.32469821048425        9.84123136809362
C           39.07732024318794        0.80294005831506        7.06576840481384
C           39.07550052879490        0.83466222626878        5.68227086735933
H           34.04046425887112       -0.12562851223677        0.04635483436023
H           34.00784331435705       -0.21269447679801        2.65794860269167
H           35.89883742802045       -0.23600538913701        4.56673966390817
H           41.21027323391480       -0.24683461680996        4.53578149150712
H           43.08259805780364       -0.13440930646117        2.61349041537008
H           43.04650186097256        0.06819869684746       -2.63563866436580
H           41.14905100592215        0.12137560939124       -4.53496581633913
H           37.54706487955861       -1.72035949161810       -5.16125249098692
H           37.52379225347853       -1.58428312373099       -7.63871798481787
H           38.91381319288604        1.41970954514615      -10.67222131389171
H           39.42540570155040        2.24953527140372       -7.44643971320682
H           39.43821966933159        2.12147072977711       -4.98024635550721
H           35.83534754973149        0.20260333694466       -4.48878384593878
H           33.97151505864746        0.05104450926059       -2.56002234846621
H           37.66436207926999       -2.18676635378203        5.06013239231815
H           37.66757607955937       -2.24350461646401        7.54118302761269
H           39.00395220690490        0.56036613091874       10.78435167716936
H           39.47198121543172        1.64061976633959        7.62857792671993
H           39.46099090828391        1.70288712474296        5.15956394480123
Cu          60.33591777131860       -0.03190282502983       -0.05437356495516
C           63.74028513386695       -0.10533629230645       -0.08795239445966
C           63.10614202115899        0.00132884515874       -1.31633828379428
C           63.78286281298026        0.11408677756399       -2.57699698686615
C           62.82572902582744        0.22277907167512       -3.53084413234058
C           61.55370540791696        0.16853717446929       -2.86165703728888
N           61.75561470135269        0.03906475849524       -1.51770189629020
C           60.31076893874980        0.27363320595941       -3.48938930905639
C           59.07700576907362        0.26380954607071       -2.83453025330617
C           57.79923432385196        0.32612241643986       -3.48735107511401
C           56.85290927758835        0.25942934321165       -2.51755738330531
N           58.88920363395029        0.15155356374893       -1.48387917769062
C           57.54356213584600        0.14772191559051       -1.26701760864890
C           56.91131640928296        0.02328140909239       -0.02252655159806
C           57.56301418207862       -0.11277664051062        1.21041739978297
C           56.89252385381605       -0.25891611538093        2.46842506080282
C           57.85430432102916       -0.34809271185835        3.42106187365344
C           59.12120324648694       -0.25139173965774        2.75139265026031
C           60.36577263536076       -0.31199559651813        3.38293105705300
C           60.37774070481174       -0.41847206155696        4.86237766617861
C           60.92999904671787       -1.53939184976322        5.48773411695443
C           60.94171258623400       -1.63426883533433        6.86708319893484
C           60.40591498086663       -0.60798318164004        7.64755550860595
C           60.44557345384209       -0.75374932350678        9.12213865989104
O           59.90073793296838        0.28154782934805        9.77916755751810
O           60.91618490331747       -1.70050560063196        9.69994266934502
C           59.85432176535574        0.51401238648993        7.02815788359252
C           59.83914914445269        0.60426583235273        5.64727439527114
C           61.59941008407676       -0.27976565450771        2.72922570667947
C           62.88220265144099       -0.30634661659359        3.37926832103782
C           63.82376666445114       -0.25505617386931        2.40532180497660
C           63.12656635063623       -0.18478031259098        1.15278894600667
N           61.77943389558247       -0.19488615272054        1.37862334979973
N           58.91201698243101       -0.12029011085279        1.40567896760396
C           60.30043434438304        0.40507491419542       -4.96701000938645
C           60.80023765598156       -0.62235724949105       -5.77136159613764
C           60.78991563964666       -0.49860948630953       -7.14843651559375
C           60.28454387950803        0.65713564801587       -7.74712241788340
C           60.29865946523273        0.74497528046549       -9.22663036691937
O           59.78848602992950        1.89183060926756       -9.70143800090213
O           60.72167420047398       -0.11604932389769       -9.95572682188857
C           59.78617155087900        1.68685889988069       -6.94831885395007
C           59.79277800365035        1.55825892010345       -5.57039466259330
H           64.82527920945211       -0.11591979688588       -0.09774107327423
H           64.85437315816732        0.11616799129834       -2.70046014536897
H           62.96126509324628        0.34231694708097       -4.59369091556572
H           57.64982491332913        0.39715787672195       -4.55255255678050
H           55.78047594890511        0.27597436737065       -2.62883765731465
H           55.82216664680099       -0.29271418933699        2.59464295544237
H           57.72290904372369       -0.48150516598163        4.48266639890466
H           61.33568947274834       -2.34258720343035        4.88309583194279
H           61.36416052942281       -2.50357583181726        7.35900030298463
H           59.96563086685020        0.10887372833377       10.73245224541753
H           59.44038266436151        1.31436585449916        7.63008089552774
H           59.42139322609427        1.48157246640002        5.16621805186325
H           63.03541206710518       -0.34726930734047        4.44563603370712
H           64.89713705840559       -0.25650599464817        2.51114909515966
H           61.18242247718454       -1.52513617427033       -5.30849398190977
H           61.17141190496138       -1.29403739279679       -7.77919969338064
H           59.83551854398517        1.87064938315447      -10.67100183009845
H           59.39638801273068        2.58698761392535       -7.40871967153996
H           59.41645927723699        2.36330895149696       -4.94928155760483
C           43.37169371057954        0.00294680151810       -0.01185755172572
C           44.58563145224154        0.00551369264990       -0.01876245938060
C           54.27922020094577        0.02895411964790       -0.00996994226263
C           55.49331357311582        0.02621558176336       -0.01236045407991
Cu          49.43216087842364        0.01787977963650       -0.01370256063290
C           46.00370503525384        0.00904255878697       -0.02078113856762
C           46.64936511550249       -1.23418771677495        0.01967004396617
C           45.97353026401466       -2.49813861395843        0.01153643757962
C           46.93056361863498       -3.45811334872258        0.06519797563482
C           48.19903581271406       -2.78592121536221        0.11787645371367
N           47.99565182129719       -1.43387074264194        0.07774404151708
C           49.44096854499607       -3.42191336041018        0.18238100243396
C           50.67951421152785       -2.77589173560576        0.17956534657758
C           51.95054493902902       -3.43124243056136        0.31468113026456
C           52.90293633066049       -2.46624630717938        0.26520469170513
N           50.87657231535519       -1.42711821487346        0.06705106307523
C           52.22166570003123       -1.21512852061884        0.10802724031304
C           52.86136067229877        0.02687778478045       -0.00772223842503
C           52.21557727052291        1.26540722393253       -0.12351435079058
C           52.89098447386880        2.52070217388087       -0.27406748738583
C           51.93382072978189        3.48086150322115       -0.32439444981245
C           50.66556366334618        2.81840986783796       -0.19784366732591
C           49.42373747366109        3.45760823773435       -0.20850544833452
C           49.41958789288792        4.93899635660512       -0.28342607459239
C           49.99647598533537        5.69989709525032        0.73684011501543
C           49.98539857247941        7.08085370874199        0.66937707710322
C           49.40280925363446        7.72733000855607       -0.42255584451002
C           49.41776944100280        9.20904332467161       -0.45138200535734
O           48.82760788346087        9.73130966423014       -1.53741483262608
O           49.90650253606093        9.90175821573946        0.40470620274560
C           48.82900534809895        6.97212924302888       -1.44590682297352
C           48.83602753441900        5.59019087305931       -1.37308155078914
C           48.18453938497689        2.81533072018577       -0.15347698352430
C           46.91236851303500        3.48108908711926       -0.10928462437964
C           45.96000296963320        2.51619407552306       -0.05928333195961
C           46.64238154601702        1.25576468790450       -0.06142489075707
N           47.98792699495236        1.46246786252270       -0.11376925133796
N           50.86917434640770        1.47031560282969       -0.08766663325493
C           49.44476869002076       -4.90307277802922        0.25862385355473
C           48.85213675764793       -5.55818925144929        1.34135932888966
C           48.85665563715893       -6.93913449300679        1.40922767712198
C           49.44935664888874       -7.69157582105438        0.39329401831890
C           49.42569955418202       -9.16917573052654        0.50895415701919
O           50.02804221767226       -9.79759013090630       -0.51208064145989
O           48.92107502304164       -9.77219565053263        1.42182489296264
C           50.04073997074592       -7.04246863117051       -0.69098241159442
C           50.03953273511023       -5.66000385363733       -0.75399713996266
H           44.90372975535134       -2.62352076281057       -0.03831058255501
H           46.79472496770175       -4.52744437677144        0.05720446799766
H           52.09054171891771       -4.49216737105613        0.44456701213855
H           53.97293114870257       -2.58004881337821        0.33524209005791
H           53.96073066034335        2.63996295428409       -0.33879706868495
H           52.06898508202195        4.54308014438614       -0.44911277230093
H           50.43896084540042        5.20018141297755        1.59114846372483
H           50.42509199691057        7.67778202188629        1.46088822345930
H           48.87962422274890       10.69911075043547       -1.47990861826611
H           48.37949564187740        7.46952362817916       -2.29720921427427
H           48.39975186618092        5.00325258011063       -2.17353399660926
H           46.77062496271683        4.54972277775742       -0.10391796034322
H           44.88926468125322        2.63616820011832       -0.01579324237634
H           48.40184556541016       -4.97543506755957        2.13693681901953
H           48.40307710533748       -7.45404669014668        2.24903297723255
H           49.96960278081734      -10.75495545885434       -0.36104068877532
H           50.49847162987083       -7.62268848912134       -1.48344810559480
H           50.48833188724634       -5.15608308849386       -1.60261547928567

          :  Hamiltonian                  GFN1-xTB          :
         :: total energy            -362.517346308892 Eh    ::
         :: gradient norm              0.000776532627 Eh/a0 ::
         :: HOMO-LUMO gap              0.000040386698 eV    ::
         :: SCC energy              -367.564205322172 Eh    ::
         :: repulsion energy           5.219913049121 Eh    ::

    * Orbital Energies and Occupations

         #    Occupation            Energy/Eh            Energy/eV
      -------------------------------------------------------------
         1        2.0000           -0.8335326             -22.6816
       ...           ...                  ...                  ...
       311        2.0000           -0.4182119             -11.3801
       312        2.0000           -0.4182067             -11.3800
       313        2.0000           -0.4178419             -11.3701
       314        2.0000           -0.4177421             -11.3673
       315        2.0000           -0.4176218             -11.3641
       316        2.0000           -0.4058863             -11.0447
       317        2.0000           -0.4056682             -11.0388
       318        2.0000           -0.4056635             -11.0387
       319        2.0000           -0.3982409             -10.8367
       320        2.0000           -0.3974147             -10.8142
       321        2.0000           -0.3945982             -10.7376
       322        1.0249           -0.3657152              -9.9516
       323        0.9879           -0.3656360              -9.9495 (HOMO)
       324        0.9872           -0.3656346              -9.9494 (LUMO)
       325                         -0.3429377              -9.3318
       326                         -0.3398880              -9.2488
       327                         -0.3398191              -9.2469
       328                         -0.3396590              -9.2426
       329                         -0.3396394              -9.2421
       330                         -0.3388914              -9.2217
       331                         -0.3156392              -8.5890
       332                         -0.3144849              -8.5576
       333                         -0.3144286              -8.5560
       334                         -0.3088986              -8.4056
       ...                                ...                  ...
       659                          1.3336973              36.2917
      -------------------------------------------------------------
                  HL-Gap            0.0000015 Eh            0.0000 eV

Wiberg/Mayer (AO) data.
largest (>0.10) Wiberg bond orders for each atom

     #   Z sym  total        # sym  WBO       # sym  WBO       # sym  WBO
 ---------------------------------------------------------------------------
     1  29 Cu   2.195 --     7 N    0.507    33 N    0.507    12 N    0.504
                            34 N    0.504
     2   6 C    3.936 --    32 C    1.363     3 C    1.363    44 H    0.971
     3   6 C    3.916 --     2 C    1.363     7 N    1.229     4 C    1.169
     4   6 C    3.956 --     5 C    1.658     3 C    1.169    45 H    0.975
     5   6 C    3.958 --     4 C    1.658     6 C    1.170    46 H    0.973
     6   6 C    3.914 --     8 C    1.322     7 N    1.238     5 C    1.170
     7   7 N    3.248 --     6 C    1.238     3 C    1.229     1 Cu   0.507
     8   6 C    3.937 --     9 C    1.322     6 C    1.322    35 C    1.028
     9   6 C    3.910 --     8 C    1.322    12 N    1.229    10 C    1.177
    10   6 C    3.958 --    11 C    1.647     9 C    1.177    47 H    0.973
    11   6 C    3.958 --    10 C    1.647    13 C    1.182    48 H    0.974
    12   7 N    3.250 --    13 C    1.245     9 C    1.229     1 Cu   0.504
    13   6 C    3.910 --    14 C    1.282    12 N    1.245    11 C    1.182
    14   6 C    3.940 --    15 C    1.283    13 C    1.282   125 C    1.138
    15   6 C    3.910 --    14 C    1.283    34 N    1.245    16 C    1.182
    16   6 C    3.958 --    17 C    1.647    15 C    1.182    49 H    0.974
    17   6 C    3.958 --    16 C    1.647    18 C    1.177    50 H    0.973
    18   6 C    3.910 --    19 C    1.322    34 N    1.229    17 C    1.177
    19   6 C    3.937 --    18 C    1.322    29 C    1.321    20 C    1.030
    20   6 C    3.986 --    28 C    1.387    21 C    1.385    19 C    1.030
    21   6 C    3.987 --    22 C    1.464    20 C    1.385    51 H    0.972
                            27 C    0.102
    22   6 C    3.990 --    21 C    1.464    23 C    1.385    52 H    0.968
                            28 C    0.102
    23   6 C    3.983 --    27 C    1.388    22 C    1.385    24 C    1.010
    24   6 C    3.836 --    26 O    1.689    25 O    1.087    23 C    1.010
    25   8 O    2.096 --    24 C    1.087    53 H    0.838    26 O    0.128
    26   8 O    1.957 --    24 C    1.689    25 O    0.128
    27   6 C    3.991 --    28 C    1.462    23 C    1.388    54 H    0.970
                            21 C    0.102
    28   6 C    3.988 --    27 C    1.462    20 C    1.387    55 H    0.972
                            22 C    0.102
    29   6 C    3.914 --    19 C    1.321    33 N    1.238    30 C    1.170
    30   6 C    3.958 --    31 C    1.658    29 C    1.170    56 H    0.973
    31   6 C    3.956 --    30 C    1.658    32 C    1.169    57 H    0.975
    32   6 C    3.916 --     2 C    1.363    33 N    1.228    31 C    1.169
    33   7 N    3.247 --    29 C    1.238    32 C    1.228     1 Cu   0.507
    34   7 N    3.250 --    15 C    1.245    18 C    1.229     1 Cu   0.504
    35   6 C    3.986 --    43 C    1.387    36 C    1.386     8 C    1.028
    36   6 C    3.987 --    37 C    1.464    35 C    1.386    58 H    0.972
                            42 C    0.103
    37   6 C    3.990 --    36 C    1.464    38 C    1.385    59 H    0.968
                            43 C    0.103
    38   6 C    3.983 --    42 C    1.388    37 C    1.385    39 C    1.010
    39   6 C    3.836 --    41 O    1.690    40 O    1.087    38 C    1.010
    40   8 O    2.096 --    39 C    1.087    60 H    0.838    41 O    0.128
    41   8 O    1.958 --    39 C    1.690    40 O    0.128
    42   6 C    3.991 --    43 C    1.462    38 C    1.388    61 H    0.970
                            36 C    0.103
    43   6 C    3.988 --    42 C    1.462    35 C    1.387    62 H    0.972
                            37 C    0.103
    44   1 H    1.001 --     2 C    0.971
    45   1 H    0.997 --     4 C    0.975
    46   1 H    1.004 --     5 C    0.973
    47   1 H    1.004 --    10 C    0.973
    48   1 H    1.002 --    11 C    0.974
    49   1 H    1.002 --    16 C    0.974
    50   1 H    1.004 --    17 C    0.973
    51   1 H    1.004 --    21 C    0.972
    52   1 H    1.005 --    22 C    0.968
    53   1 H    0.873 --    25 O    0.838
    54   1 H    1.005 --    27 C    0.970
    55   1 H    1.004 --    28 C    0.972
    56   1 H    1.004 --    30 C    0.973
    57   1 H    0.997 --    31 C    0.975
    58   1 H    1.004 --    36 C    0.972
    59   1 H    1.005 --    37 C    0.968
    60   1 H    0.873 --    40 O    0.838
    61   1 H    1.005 --    42 C    0.970
    62   1 H    1.004 --    43 C    0.972
    63  29 Cu   2.195 --    69 N    0.508    95 N    0.507    96 N    0.504
                            74 N    0.504
    64   6 C    3.936 --    65 C    1.363    94 C    1.363   106 H    0.971
    65   6 C    3.916 --    64 C    1.363    69 N    1.229    66 C    1.169
    66   6 C    3.956 --    67 C    1.658    65 C    1.169   107 H    0.975
    67   6 C    3.958 --    66 C    1.658    68 C    1.170   108 H    0.973
    68   6 C    3.914 --    70 C    1.322    69 N    1.238    67 C    1.170
    69   7 N    3.247 --    68 C    1.238    65 C    1.229    63 Cu   0.508
    70   6 C    3.937 --    71 C    1.322    68 C    1.322    97 C    1.028
    71   6 C    3.910 --    70 C    1.322    74 N    1.229    72 C    1.177
    72   6 C    3.958 --    73 C    1.647    71 C    1.177   109 H    0.973
    73   6 C    3.958 --    72 C    1.647    75 C    1.182   110 H    0.974
    74   7 N    3.250 --    75 C    1.246    71 C    1.229    63 Cu   0.504
    75   6 C    3.909 --    76 C    1.281    74 N    1.246    73 C    1.182
    76   6 C    3.940 --    77 C    1.282    75 C    1.281   128 C    1.139
    77   6 C    3.909 --    76 C    1.282    96 N    1.245    78 C    1.182
    78   6 C    3.958 --    79 C    1.647    77 C    1.182   111 H    0.974
    79   6 C    3.958 --    78 C    1.647    80 C    1.177   112 H    0.973
    80   6 C    3.910 --    81 C    1.322    96 N    1.229    79 C    1.177
    81   6 C    3.937 --    80 C    1.322    91 C    1.322    82 C    1.029
    82   6 C    3.986 --    90 C    1.387    83 C    1.385    81 C    1.029
    83   6 C    3.987 --    84 C    1.464    82 C    1.385   113 H    0.972
                            89 C    0.102
    84   6 C    3.990 --    83 C    1.464    85 C    1.385   114 H    0.968
                            90 C    0.103
    85   6 C    3.983 --    89 C    1.388    84 C    1.385    86 C    1.010
    86   6 C    3.836 --    88 O    1.689    87 O    1.088    85 C    1.010
    87   8 O    2.096 --    86 C    1.088   115 H    0.838    88 O    0.128
    88   8 O    1.958 --    86 C    1.689    87 O    0.128
    89   6 C    3.991 --    90 C    1.462    85 C    1.388   116 H    0.970
                            83 C    0.102
    90   6 C    3.988 --    89 C    1.462    82 C    1.387   117 H    0.972
                            84 C    0.103
    91   6 C    3.914 --    81 C    1.322    95 N    1.238    92 C    1.170
    92   6 C    3.958 --    93 C    1.658    91 C    1.170   118 H    0.973
    93   6 C    3.956 --    92 C    1.658    94 C    1.169   119 H    0.975
    94   6 C    3.916 --    64 C    1.363    95 N    1.229    93 C    1.169
    95   7 N    3.247 --    91 C    1.238    94 C    1.229    63 Cu   0.507
    96   7 N    3.250 --    77 C    1.245    80 C    1.229    63 Cu   0.504
    97   6 C    3.986 --   105 C    1.387    98 C    1.386    70 C    1.028
    98   6 C    3.987 --    99 C    1.464    97 C    1.386   120 H    0.972
                           104 C    0.103
    99   6 C    3.990 --    98 C    1.464   100 C    1.385   121 H    0.968
                           105 C    0.103
   100   6 C    3.983 --   104 C    1.388    99 C    1.385   101 C    1.010
   101   6 C    3.836 --   103 O    1.689   102 O    1.087   100 C    1.010
   102   8 O    2.096 --   101 C    1.087   122 H    0.838   103 O    0.128
   103   8 O    1.958 --   101 C    1.689   102 O    0.128
   104   6 C    3.991 --   105 C    1.461   100 C    1.388   123 H    0.970
                            98 C    0.103
   105   6 C    3.988 --   104 C    1.461    97 C    1.387   124 H    0.972
                            99 C    0.103
   106   1 H    1.001 --    64 C    0.971
   107   1 H    0.997 --    66 C    0.975
   108   1 H    1.004 --    67 C    0.973
   109   1 H    1.004 --    72 C    0.973
   110   1 H    1.002 --    73 C    0.974
   111   1 H    1.002 --    78 C    0.974
   112   1 H    1.004 --    79 C    0.973
   113   1 H    1.004 --    83 C    0.972
   114   1 H    1.005 --    84 C    0.968
   115   1 H    0.873 --    87 O    0.838
   116   1 H    1.005 --    89 C    0.970
   117   1 H    1.004 --    90 C    0.972
   118   1 H    1.004 --    92 C    0.973
   119   1 H    0.997 --    93 C    0.975
   120   1 H    1.004 --    98 C    0.972
   121   1 H    1.005 --    99 C    0.968
   122   1 H    0.873 --   102 O    0.838
   123   1 H    1.005 --   104 C    0.970
   124   1 H    1.004 --   105 C    0.972
   125   6 C    3.928 --   126 C    2.608    14 C    1.138
   126   6 C    3.930 --   125 C    2.608   130 C    1.139
   127   6 C    3.930 --   128 C    2.607   142 C    1.140
   128   6 C    3.928 --   127 C    2.607    76 C    1.139
   129  29 Cu   2.163 --   135 N    0.499   162 N    0.499   140 N    0.499
                           161 N    0.498
   130   6 C    3.933 --   160 C    1.281   131 C    1.281   126 C    1.139
   131   6 C    3.910 --   130 C    1.281   135 N    1.248   132 C    1.181
   132   6 C    3.957 --   133 C    1.648   131 C    1.181   172 H    0.974
   133   6 C    3.959 --   132 C    1.648   134 C    1.176   173 H    0.973
   134   6 C    3.909 --   136 C    1.322   135 N    1.230   133 C    1.176
   135   7 N    3.245 --   131 C    1.248   134 C    1.230   129 Cu   0.499
   136   6 C    3.933 --   134 C    1.322   137 C    1.321   163 C    1.030
   137   6 C    3.909 --   136 C    1.321   140 N    1.230   138 C    1.176
   138   6 C    3.959 --   139 C    1.647   137 C    1.176   174 H    0.973
   139   6 C    3.957 --   138 C    1.647   141 C    1.182   175 H    0.974
   140   7 N    3.244 --   141 C    1.248   137 C    1.230   129 Cu   0.499
   141   6 C    3.910 --   142 C    1.280   140 N    1.248   139 C    1.182
   142   6 C    3.934 --   143 C    1.281   141 C    1.280   127 C    1.140
   143   6 C    3.910 --   142 C    1.281   162 N    1.248   144 C    1.181
   144   6 C    3.957 --   145 C    1.648   143 C    1.181   176 H    0.974
   145   6 C    3.958 --   144 C    1.648   146 C    1.176   177 H    0.973
   146   6 C    3.909 --   147 C    1.322   162 N    1.230   145 C    1.176
   147   6 C    3.933 --   146 C    1.322   157 C    1.321   148 C    1.030
   148   6 C    3.986 --   156 C    1.386   149 C    1.385   147 C    1.030
   149   6 C    3.987 --   150 C    1.464   148 C    1.385   178 H    0.972
                           155 C    0.102
   150   6 C    3.990 --   149 C    1.464   151 C    1.385   179 H    0.968
                           156 C    0.102
   151   6 C    3.982 --   155 C    1.388   150 C    1.385   152 C    1.010
   152   6 C    3.835 --   154 O    1.689   153 O    1.087   151 C    1.010
   153   8 O    2.096 --   152 C    1.087   180 H    0.838   154 O    0.128
   154   8 O    1.957 --   152 C    1.689   153 O    0.128
   155   6 C    3.991 --   156 C    1.462   151 C    1.388   181 H    0.970
                           149 C    0.102
   156   6 C    3.987 --   155 C    1.462   148 C    1.386   182 H    0.972
                           150 C    0.102
   157   6 C    3.910 --   147 C    1.321   161 N    1.230   158 C    1.176
   158   6 C    3.959 --   159 C    1.648   157 C    1.176   183 H    0.973
   159   6 C    3.957 --   158 C    1.648   160 C    1.181   184 H    0.974
   160   6 C    3.910 --   130 C    1.281   161 N    1.248   159 C    1.181
   161   7 N    3.244 --   160 C    1.248   157 C    1.230   129 Cu   0.498
   162   7 N    3.244 --   143 C    1.248   146 C    1.230   129 Cu   0.499
   163   6 C    3.986 --   171 C    1.386   164 C    1.385   136 C    1.030
   164   6 C    3.987 --   165 C    1.464   163 C    1.385   185 H    0.972
                           170 C    0.102
   165   6 C    3.990 --   164 C    1.464   166 C    1.385   186 H    0.968
                           171 C    0.102
   166   6 C    3.982 --   170 C    1.388   165 C    1.385   167 C    1.010
   167   6 C    3.836 --   169 O    1.690   168 O    1.088   166 C    1.010
   168   8 O    2.096 --   167 C    1.088   187 H    0.838   169 O    0.128
   169   8 O    1.958 --   167 C    1.690   168 O    0.128
   170   6 C    3.991 --   171 C    1.462   166 C    1.388   188 H    0.970
                           164 C    0.102
   171   6 C    3.987 --   170 C    1.462   163 C    1.386   189 H    0.972
                           165 C    0.102
   172   1 H    1.002 --   132 C    0.974
   173   1 H    1.004 --   133 C    0.973
   174   1 H    1.004 --   138 C    0.973
   175   1 H    1.002 --   139 C    0.974
   176   1 H    1.002 --   144 C    0.974
   177   1 H    1.004 --   145 C    0.973
   178   1 H    1.004 --   149 C    0.972
   179   1 H    1.005 --   150 C    0.968
   180   1 H    0.873 --   153 O    0.838
   181   1 H    1.005 --   155 C    0.970
   182   1 H    1.004 --   156 C    0.972
   183   1 H    1.004 --   158 C    0.973
   184   1 H    1.002 --   159 C    0.974
   185   1 H    1.004 --   164 C    0.972
   186   1 H    1.005 --   165 C    0.968
   187   1 H    0.873 --   168 O    0.838
   188   1 H    1.005 --   170 C    0.970
   189   1 H    1.004 --   171 C    0.972
 ---------------------------------------------------------------------------

           -------------------------------------------------
          | TOTAL ENERGY             -362.517346308892 Eh   |
          | GRADIENT NORM               0.000776532627 Eh/α |
          | HOMO-LUMO GAP               0.000040386698 eV   |
           -------------------------------------------------

 * finished run on 2022/07/30 at 09:29:46.796
