   * xtb version 6.5.1 (b24c23e) compiled by 'conda@728c89f4b128' on 2022-07-12
          program call               : xtb Zn_Ph2Me_C2_3.xyz --gfn 1 --opt -T 48

   ID    Z sym.   atoms
    1   30 Zn     1, 69, 141
    2    6 C      2-6, 8-11, 13-31, 34-41, 70-74, 76-79, 81-99, 102-109,
                  137-140, 142-146, 148-151, 153-171, 174-181
    3    7 N      7, 12, 32, 33, 75, 80, 100, 101, 147, 152, 172, 173
    4    1 H      42-68, 110-136, 182-207
########################################################################
[WARNING] Please study the warnings concerning your input carefully
-1- prog_main_parseArguments: Unknown option '-T' provided
########################################################################

          :  Hamiltonian                  GFN1-xTB          :
 * total energy  :  -319.7628424 Eh     change       -0.1166995E-09 Eh
 * total energy  :  -320.3488482 Eh     change       -0.5860057E+00 Eh
 * total energy  :  -320.4937426 Eh     change       -0.1448945E+00 Eh
 * total energy  :  -320.5601535 Eh     change       -0.6641093E-01 Eh
 * total energy  :  -320.5795248 Eh     change       -0.1937122E-01 Eh
 * total energy  :  -320.5879634 Eh     change       -0.8438671E-02 Eh
 * total energy  :  -320.5922085 Eh     change       -0.4245114E-02 Eh
 * total energy  :  -320.5949102 Eh     change       -0.2701649E-02 Eh
 * total energy  :  -320.5964797 Eh     change       -0.1569502E-02 Eh
 * total energy  :  -320.5975352 Eh     change       -0.1055518E-02 Eh
 * total energy  :  -320.6056344 Eh     change       -0.1562889E-04 Eh
 * total energy  :  -320.6056467 Eh     change       -0.1228831E-04 Eh
 * total energy  :  -320.6056584 Eh     change       -0.1170263E-04 Eh
 * total energy  :  -320.6056716 Eh     change       -0.1328866E-04 Eh
 * total energy  :  -320.6056861 Eh     change       -0.1447565E-04 Eh
 * total energy  :  -320.6056991 Eh     change       -0.1294566E-04 Eh
 * total energy  :  -320.6057092 Eh     change       -0.1016262E-04 Eh
 * total energy  :  -320.6057176 Eh     change       -0.8393431E-05 Eh
 * total energy  :  -320.6057215 Eh     change       -0.3884805E-05 Eh
   *** GEOMETRY OPTIMIZATION CONVERGED AFTER 68 ITERATIONS ***

 final structure:
================
207
 xtb: 6.5.1 (b24c23e)
Zn          33.49419054124357        0.05134682836904       -0.10242087064281
C           30.08789534192875        0.16458535687215       -0.29197187684985
C           30.72792939428242        1.34679342171226        0.06068860346319
C           30.06589414549592        2.58211470843265        0.37500906483105
C           31.03141274129342        3.48042196843201        0.69296717337399
C           32.29670323702812        2.80643752465893        0.56867039123777
N           32.07681339604861        1.51490906668957        0.18719466319441
C           33.54803301967704        3.37251353025824        0.83633514520464
C           34.77832023055271        2.71216143208906        0.75214109273945
C           36.05832035322634        3.31282003680897        1.00447846251439
C           36.99737462587542        2.35651588662800        0.78967772356145
N           34.96570839088521        1.40664355289922        0.38288440262160
C           36.30511220878181        1.16602286751306        0.39296834511307
C           36.92952527628023       -0.05198769806243        0.05635418338329
C           36.26553398513111       -1.23729708118704       -0.31786069767924
C           36.91911430080202       -2.45790392877530       -0.68753874599656
C           35.94709881730425       -3.35953637815389       -0.97913286443127
C           34.68610190330430       -2.69806526136094       -0.78992713739468
C           33.43139934757468       -3.27951865813294       -1.00547765569286
C           33.40770701451137       -4.71583814144854       -1.38185572458405
C           32.88220063160261       -5.11738310375124       -2.60813953263723
C           32.86013326045916       -6.46336368261125       -2.96231963667255
C           32.27710368237760       -6.88264892860669       -4.28511981250888
C           33.36498218488703       -7.40951061704277       -2.07743891783021
C           33.89244796919897       -7.02446185764433       -0.84700252238484
C           34.45008756934031       -8.06014151902979        0.09202278870520
C           33.91293656198014       -5.67760497895031       -0.50620578559725
C           32.19882789383810       -2.62497406176337       -0.89787157003692
C           30.90859970521369       -3.23364768741831       -1.08723570265351
C           29.97680392894084       -2.26664672856747       -0.89492407872739
C           30.68433994919019       -1.05860778843691       -0.57447990913476
N           32.02645773012778       -1.30924034883915       -0.57948906630518
N           34.91728897445490       -1.40663201553629       -0.39756596398728
C           33.57098480015900        4.80023864431573        1.24761363240293
C           33.14961031430897        5.79258180357357        0.36371117537772
C           33.16957926482439        7.13063711222923        0.74187373005947
C           32.74020547695874        8.20107227403935       -0.22515557410488
C           33.61128374029252        7.47273360725957        2.01669891448996
C           34.03286891887291        6.49360026173162        2.91104740241405
C           34.48377043783017        6.87140372331678        4.29638378060634
C           34.01231018880689        5.15889757544071        2.52013718355964
H           29.00372751500543        0.19683629399601       -0.33983551416892
H           28.99721425093477        2.72943820302880        0.35871349808166
H           30.90356963189376        4.50741680191064        0.99601676860415
H           36.21737939927259        4.33740810353022        1.29991698916053
H           38.06648154946206        2.44460198750696        0.89427413759807
H           37.98694960815251       -2.59973223986107       -0.72878837777514
H           36.07189051650026       -4.37808838513730       -1.30985996782530
H           32.50369221110152       -4.37026566082669       -3.29735196734214
H           32.58850050306389       -7.89389669247169       -4.54674151155655
H           31.18614432454199       -6.86184190324325       -4.23441513363905
H           32.59018176016077       -6.20124734298798       -5.07708731311972
H           33.34944987013017       -8.46053742610254       -2.34732775171857
H           34.56346436548992       -7.65481001677554        1.09744035339724
H           33.79699847164197       -8.93266477400642        0.13525203995752
H           35.43094715421258       -8.39012484050514       -0.25753127748186
H           34.30923820856503       -5.36623019097940        0.45419054398638
H           30.74116286607710       -4.27187798086148       -1.32562819807820
H           28.90306517170856       -2.35383653522903       -0.95443044693854
H           32.81878158596363        5.51438090400001       -0.63105104551177
H           32.26550159858108        9.03032087053323        0.30011793038996
H           32.04179364713639        7.80298848879543       -0.96144898998246
H           33.61074110685425        8.59122034855774       -0.75757200685221
H           33.62694941984431        8.51562592120246        2.31652295985577
H           33.62809529832339        6.87943384158587        4.97560305460772
H           34.93033182507138        7.86598556797390        4.30205234666509
H           35.21187709071360        6.15471767615459        4.67686296646367
H           34.32724955496540        4.38574838772751        3.21252653672029
Zn          55.31922594926024        0.02810021770381       -0.08166702550665
C           58.72142501645111        0.17668712005572       -0.23874749093971
C           58.08404767000508       -0.51419706127243       -1.26256354610585
C           58.74913642233419       -1.18246650914150       -2.34623713763714
C           57.78596464282460       -1.75402752055377       -3.11158242346399
C           56.51856128209859       -1.43626200937857       -2.50826899903186
N           56.73559614003978       -0.68708685142345       -1.38844270700955
C           55.26892087404535       -1.86120176152168       -2.97350699596371
C           54.03790636733881       -1.59317001355401       -2.36447685475645
C           52.75527078610671       -2.00151871550228       -2.86865806752302
C           51.81688916142579       -1.51793449560960       -2.01560686398504
N           53.85366692028143       -0.86562478073236       -1.22019042762744
C           52.51388618613171       -0.80158734139852       -0.98709545446015
C           51.89308261710047       -0.10071997461997        0.06166673021255
C           52.54705528001191        0.63749546679422        1.06344739819831
C           51.88540972133163        1.35428638057491        2.11450380263832
C           52.85353090560809        1.90648126386602        2.88932833965137
C           54.11866739285036        1.52919625406981        2.32093015073428
C           55.37200006467299        1.90178578471142        2.82051630271578
C           55.39193055809771        2.68148870915136        4.08413371403596
C           55.92556560413971        3.96808178094747        4.11578614973850
C           55.94614878346480        4.69681455289451        5.30154946143947
C           56.53997699086715        6.07968849628472        5.32387506798457
C           55.43106929307175        4.12760670696509        6.46084264421219
C           54.89452357172506        2.84222734660535        6.44599889135094
C           54.32564256818927        2.24740602626194        7.70613236489147
C           54.87598374028688        2.12588118390948        5.25556641397339
C           56.60590091019703        1.59667743175436        2.23431887739097
C           57.89561382928853        1.95547307411245        2.76291165945136
C           58.82899944748553        1.48018896032001        1.90092376701256
C           58.12336299279033        0.81375890894467        0.84215442461634
N           56.78076289794137        0.89695371436325        1.07561872086755
N           53.89479092481719        0.76854903155660        1.20590066668978
C           55.24598684065650       -2.65861614704191       -4.22663404489934
C           55.68195495718390       -2.09362778561819       -5.42452927785645
C           55.65497770789796       -2.82912431505067       -6.60428502718433
C           56.09889271921205       -2.20575230336049       -7.90032891305778
C           55.19081768917007       -4.14112175500007       -6.57965878585542
C           54.75518651210603       -4.72022582363066       -5.39171520035076
C           54.27787583596360       -6.14747979658033       -5.37170768466035
C           54.78400956724715       -3.97372660567350       -4.21846582980181
H           59.80571938905781        0.21249186498159       -0.28159082522082
H           59.81821966010110       -1.21016220768247       -2.48894108349619
H           57.91675340258434       -2.35036166027514       -4.00050975232939
H           52.59466651058177       -2.57348775504885       -3.76839702908039
H           50.74529809673729       -1.62464053834062       -2.07552590976188
H           50.81594856400096        1.42373965712404        2.23594746324039
H           52.72474663983438        2.52676339343446        3.76179061419671
H           56.31175964425665        4.40868115963139        3.20302016724765
H           56.21056025338193        6.63236832974827        6.20370349575119
H           57.63022222023502        6.01575959469509        5.34759081338388
H           56.25470965154940        6.63612659963147        4.43033317004774
H           55.44596990456210        4.69024196121332        7.38871977438851
H           54.21273507898501        1.16742975931294        7.61166306584787
H           54.97114504439174        2.46115159054625        8.55893642414314
H           53.34298453301169        2.67839007114202        7.91061810615447
H           54.47312163585015        1.11908901390649        5.23378193203604
H           58.06153017828979        2.49360264157414        3.68252958637493
H           59.90269139441342        1.56076324085925        1.96991781347559
H           56.02829528022515       -1.06581625710364       -5.43359046162506
H           56.57553869117245       -2.94620716296692       -8.54336221475593
H           56.79981241514683       -1.39048912170822       -7.72034487673438
H           55.23492906225209       -1.80107229462202       -8.43260704792845
H           55.16793635806596       -4.71884710015680       -7.49806483877457
H           55.12285288825402       -6.81926617468248       -5.20368632936569
H           53.81567552837397       -6.41559983880672       -6.32208016914933
H           53.55526878015668       -6.30422081220397       -4.57058808201560
H           54.45854220785423       -4.41849793719690       -3.28433221136903
C           38.33943900230560       -0.08044058297206        0.08287607131554
C           39.55681238307964       -0.08854053267443        0.08721114314017
C           49.26392031102179       -0.13585637145312        0.12124489863500
C           50.47876716733261       -0.12304507462939        0.09911283179817
Zn          44.41046722870786       -0.11506168184367        0.11316574911575
C           40.96692619648501       -0.09788493079545        0.09586187307403
C           41.62004144667291        1.14236865861193       -0.05237200428497
C           40.95462774506720        2.40111252279997       -0.21370584437658
C           41.91744482833338        3.35294679346950       -0.31237490431670
C           43.18416492965527        2.68260081516188       -0.22404863867973
N           42.96645778132036        1.33985925383655       -0.06501484212707
C           44.43243639345373        3.31265132483321       -0.25847882298819
C           45.67437247092705        2.68006645194146       -0.13980031518644
C           46.95080587096317        3.33608622945210       -0.20568118121200
C           47.90144125855662        2.37428443055324       -0.08774200187050
N           45.87243285285561        1.33447945143780        0.01004721457757
C           47.21649507669442        1.12104522640815        0.03919128146377
C           47.84936483593050       -0.13122484392890        0.12955187610743
C           47.20303922234369       -1.37658998903584        0.21534422987810
C           47.87436981851376       -2.63709840252893        0.34008028582007
C           46.91317566601644       -3.59054139089339        0.44024824843189
C           45.64368262543022       -2.92185122635540        0.36603351213644
C           44.39429490843264       -3.54448834897313        0.46112973979909
C           44.38869387718842       -5.02148374016623        0.62341510820400
C           43.87840779281201       -5.59939144815503        1.78403958605239
C           43.87514691099256       -6.98182136109145        1.94349780748233
C           43.34176279395257       -7.59364542265627        3.21099154175644
C           44.38662394906073       -7.78599645941026        0.93063200629642
C           44.89748630404191       -7.22360855438559       -0.23647560628328
C           45.46037589571444       -8.10713737265983       -1.31709514040436
C           44.89755849860735       -5.84151685181406       -0.38348791446176
C           43.15200361683367       -2.90281440747464        0.42053599749075
C           41.87749802616026       -3.56112949373624        0.48655929017377
C           40.92522643102718       -2.59871166478096        0.38645170973876
C           41.60524025017208       -1.34538746965332        0.24560948446788
N           42.94942461904731       -1.55636355178555        0.27275476791491
N           45.85659196278007       -1.57694470446618        0.23128941455951
C           44.43980400300436        4.78604234289099       -0.45191552609717
C           44.93135615535546        5.62813493525835        0.54391289354610
C           44.93645855630529        7.00743670330303        0.36368057300172
C           45.48061303031199        7.91082954983143        1.43747943810470
C           44.45168598280812        7.54202096067679       -0.82610519916798
C           43.95888892717586        6.71411075468860       -1.83051391513950
C           43.45607967384630        7.30129018850801       -3.12186889288187
C           43.95417930139900        5.33711602885866       -1.63697299702298
H           39.88587222722339        2.53572591853811       -0.24887482215652
H           41.78310584053188        4.41661199475409       -0.42598900975275
H           47.09888319078974        4.39594225138048       -0.33681145618009
H           48.97328622078647        2.49378216278846       -0.09590522305349
H           48.94494182848713       -2.76680587399752        0.35859975953937
H           47.05028333683888       -4.65272054383034        0.56434375555658
H           43.49399321112716       -4.96210364533246        2.57301087544461
H           43.03996007100171       -8.62828347570806        3.04754076649026
H           44.11425297440849       -7.58123340964094        3.98333161262903
H           42.48495782020738       -7.03004252279431        3.58155167058316
H           44.38553614209656       -8.86477742294907        1.04886927390552
H           45.52632127087568       -7.57158033356878       -2.26412291659816
H           44.83871502512547       -8.99257752274528       -1.45485459941167
H           46.46375444889120       -8.43891753767757       -1.04065618283767
H           45.27955917418095       -5.39198383935044       -1.29360439454830
H           41.73071442737982       -4.62444452452899        0.58743340396433
H           39.85453743822224       -2.72260739615211        0.40485919278517
H           45.29456537607592        5.20089472551290        1.47228418020721
H           44.98483243136161        8.88160834331681        1.41672326636276
H           46.54962264109482        8.07194773036454        1.27995237633367
H           45.34659325662474        7.46640552986562        2.42391906992835
H           44.45446853854801        8.61750403828516       -0.97127002792827
H           43.01343940276498        8.28368452680130       -2.95536149552353
H           42.71096378676516        6.65096365211629       -3.58050584818020
H           44.28477930399310        7.41723873903660       -3.82425685523335
H           43.58224172147165        4.68078670183303       -2.41624442118409

          :  Hamiltonian                  GFN1-xTB          :
         :: total energy            -320.605721508221 Eh    ::
         :: gradient norm              0.000525246376 Eh/a0 ::
         :: HOMO-LUMO gap              1.001080405824 eV    ::
         :: SCC energy              -325.751463019362 Eh    ::
         :: repulsion energy           5.327727960027 Eh    ::

    * Orbital Energies and Occupations

         #    Occupation            Energy/Eh            Energy/eV
      -------------------------------------------------------------
         1        2.0000           -0.7543245             -20.5262
       ...           ...                  ...                  ...
       285        2.0000           -0.4151528             -11.2969
       286        2.0000           -0.4150922             -11.2952
       287        2.0000           -0.4150258             -11.2934
       288        2.0000           -0.4149559             -11.2915
       289        2.0000           -0.4148268             -11.2880
       290        2.0000           -0.4147187             -11.2851
       291        2.0000           -0.4125358             -11.2257
       292        2.0000           -0.3879009             -10.5553
       293        2.0000           -0.3876589             -10.5487
       294        2.0000           -0.3875498             -10.5458
       295        2.0000           -0.3838706             -10.4457
       296        2.0000           -0.3767226             -10.2511
       297        2.0000           -0.3686479             -10.0314 (HOMO)
       298                         -0.3318588              -9.0303 (LUMO)
       299                         -0.3224530              -8.7744
       300                         -0.3200997              -8.7104
       301                         -0.3200531              -8.7091
       302                         -0.3199538              -8.7064
       303                         -0.3141601              -8.5487
       304                         -0.2905991              -7.9076
       305                         -0.2849358              -7.7535
       306                         -0.2806030              -7.6356
       307                         -0.2540060              -6.9119
       308                         -0.2539705              -6.9109
       ...                                ...                  ...
       668                          1.3493300              36.7171
      -------------------------------------------------------------
                  HL-Gap            0.0367890 Eh            1.0011 eV

Wiberg/Mayer (AO) data.
largest (>0.10) Wiberg bond orders for each atom

     #   Z sym  total        # sym  WBO       # sym  WBO       # sym  WBO
 ---------------------------------------------------------------------------
     1  30 Zn   2.000 --    32 N    0.460     7 N    0.460    12 N    0.457
                            33 N    0.457
     2   6 C    3.927 --     3 C    1.357    31 C    1.357    42 H    0.972
     3   6 C    3.923 --     2 C    1.357     7 N    1.234     4 C    1.171
     4   6 C    3.960 --     5 C    1.658     3 C    1.171    43 H    0.976
     5   6 C    3.963 --     4 C    1.658     6 C    1.172    44 H    0.974
     6   6 C    3.918 --     8 C    1.317     7 N    1.242     5 C    1.172
     7   7 N    3.293 --     6 C    1.242     3 C    1.234     1 Zn   0.460
     8   6 C    3.933 --     9 C    1.323     6 C    1.317    34 C    1.023
     9   6 C    3.914 --     8 C    1.323    12 N    1.226    10 C    1.180
    10   6 C    3.960 --    11 C    1.644     9 C    1.180    45 H    0.973
    11   6 C    3.962 --    10 C    1.644    13 C    1.187    46 H    0.969
    12   7 N    3.297 --    13 C    1.261     9 C    1.226     1 Zn   0.457
    13   6 C    3.908 --    12 N    1.261    14 C    1.258    11 C    1.187
    14   6 C    3.938 --    15 C    1.259    13 C    1.258   137 C    1.178
    15   6 C    3.908 --    33 N    1.260    14 C    1.259    16 C    1.187
    16   6 C    3.962 --    17 C    1.644    15 C    1.187    47 H    0.970
    17   6 C    3.960 --    16 C    1.644    18 C    1.180    48 H    0.973
    18   6 C    3.914 --    19 C    1.321    33 N    1.227    17 C    1.180
    19   6 C    3.933 --    18 C    1.321    28 C    1.316    20 C    1.026
    20   6 C    3.988 --    21 C    1.402    27 C    1.390    19 C    1.026
                            24 C    0.103
    21   6 C    3.986 --    22 C    1.411    20 C    1.402    49 H    0.972
                            25 C    0.104
    22   6 C    3.988 --    24 C    1.422    21 C    1.411    23 C    1.019
                            27 C    0.103
    23   6 C    3.996 --    22 C    1.019    50 H    0.985    52 H    0.980
                            51 H    0.972
    24   6 C    3.988 --    22 C    1.422    25 C    1.408    53 H    0.972
                            20 C    0.103
    25   6 C    3.988 --    27 C    1.424    24 C    1.408    26 C    1.019
                            21 C    0.104
    26   6 C    3.996 --    25 C    1.019    54 H    0.985    55 H    0.980
                            56 H    0.972
    27   6 C    3.986 --    25 C    1.424    20 C    1.390    57 H    0.971
                            22 C    0.103
    28   6 C    3.918 --    19 C    1.316    32 N    1.243    29 C    1.173
    29   6 C    3.963 --    30 C    1.658    28 C    1.173    58 H    0.973
    30   6 C    3.960 --    29 C    1.658    31 C    1.171    59 H    0.976
    31   6 C    3.923 --     2 C    1.357    32 N    1.234    30 C    1.171
    32   7 N    3.293 --    28 C    1.243    31 C    1.234     1 Zn   0.460
    33   7 N    3.297 --    15 C    1.260    18 C    1.227     1 Zn   0.457
    34   6 C    3.988 --    41 C    1.399    35 C    1.397     8 C    1.023
                            38 C    0.103
    35   6 C    3.987 --    36 C    1.418    34 C    1.397    60 H    0.972
                            39 C    0.104
    36   6 C    3.988 --    35 C    1.418    38 C    1.415    37 C    1.019
                            41 C    0.104
    37   6 C    3.996 --    36 C    1.019    62 H    0.984    61 H    0.982
                            63 H    0.971
    38   6 C    3.989 --    39 C    1.416    36 C    1.415    64 H    0.972
                            34 C    0.103
    39   6 C    3.988 --    38 C    1.416    41 C    1.416    40 C    1.020
                            35 C    0.104
    40   6 C    3.996 --    39 C    1.020    67 H    0.983    66 H    0.983
                            65 H    0.971
    41   6 C    3.987 --    39 C    1.416    34 C    1.399    68 H    0.972
                            36 C    0.104
    42   1 H    1.002 --     2 C    0.972
    43   1 H    0.998 --     4 C    0.976
    44   1 H    1.005 --     5 C    0.974
    45   1 H    1.005 --    10 C    0.973
    46   1 H    1.007 --    11 C    0.969
    47   1 H    1.006 --    16 C    0.970
    48   1 H    1.005 --    17 C    0.973
    49   1 H    1.003 --    21 C    0.972
    50   1 H    1.004 --    23 C    0.985
    51   1 H    1.006 --    23 C    0.972
    52   1 H    1.005 --    23 C    0.980
    53   1 H    1.000 --    24 C    0.972
    54   1 H    1.004 --    26 C    0.985
    55   1 H    1.005 --    26 C    0.980
    56   1 H    1.006 --    26 C    0.972
    57   1 H    1.004 --    27 C    0.971
    58   1 H    1.006 --    29 C    0.973
    59   1 H    0.998 --    30 C    0.976
    60   1 H    1.003 --    35 C    0.972
    61   1 H    1.005 --    37 C    0.982
    62   1 H    1.004 --    37 C    0.984
    63   1 H    1.006 --    37 C    0.971
    64   1 H    1.000 --    38 C    0.972
    65   1 H    1.006 --    40 C    0.971
    66   1 H    1.004 --    40 C    0.983
    67   1 H    1.004 --    40 C    0.983
    68   1 H    1.003 --    41 C    0.972
    69  30 Zn   2.001 --    75 N    0.461   100 N    0.461   101 N    0.457
                            80 N    0.457
    70   6 C    3.931 --    71 C    1.357    99 C    1.357   110 H    0.972
    71   6 C    3.923 --    70 C    1.357    75 N    1.233    72 C    1.171
    72   6 C    3.961 --    73 C    1.659    71 C    1.171   111 H    0.976
    73   6 C    3.963 --    72 C    1.659    74 C    1.172   112 H    0.974
    74   6 C    3.919 --    76 C    1.318    75 N    1.242    73 C    1.172
    75   7 N    3.297 --    74 C    1.242    71 C    1.233    69 Zn   0.461
    76   6 C    3.935 --    77 C    1.322    74 C    1.318   102 C    1.024
    77   6 C    3.915 --    76 C    1.322    80 N    1.230    78 C    1.178
    78   6 C    3.963 --    79 C    1.649    77 C    1.178   113 H    0.973
    79   6 C    3.963 --    78 C    1.649    81 C    1.183   114 H    0.974
    80   7 N    3.298 --    81 C    1.255    77 C    1.230    69 Zn   0.457
    81   6 C    3.913 --    82 C    1.271    80 N    1.255    79 C    1.183
    82   6 C    3.938 --    83 C    1.271    81 C    1.271   140 C    1.152
    83   6 C    3.913 --    82 C    1.271   101 N    1.254    84 C    1.184
    84   6 C    3.963 --    85 C    1.648    83 C    1.184   115 H    0.974
    85   6 C    3.963 --    84 C    1.648    86 C    1.178   116 H    0.974
    86   6 C    3.915 --    87 C    1.320   101 N    1.231    85 C    1.178
    87   6 C    3.935 --    86 C    1.320    96 C    1.317    88 C    1.026
    88   6 C    3.988 --    89 C    1.402    95 C    1.390    87 C    1.026
                            92 C    0.103
    89   6 C    3.986 --    90 C    1.412    88 C    1.402   117 H    0.972
                            93 C    0.104
    90   6 C    3.988 --    92 C    1.422    89 C    1.412    91 C    1.019
                            95 C    0.103
    91   6 C    3.996 --    90 C    1.019   118 H    0.985   120 H    0.980
                           119 H    0.972
    92   6 C    3.988 --    90 C    1.422    93 C    1.409   121 H    0.972
                            88 C    0.103
    93   6 C    3.988 --    95 C    1.424    92 C    1.409    94 C    1.019
                            89 C    0.104
    94   6 C    3.996 --    93 C    1.019   122 H    0.985   123 H    0.980
                           124 H    0.972
    95   6 C    3.986 --    93 C    1.424    88 C    1.390   125 H    0.971
                            90 C    0.103
    96   6 C    3.919 --    87 C    1.317   100 N    1.242    97 C    1.172
    97   6 C    3.963 --    98 C    1.659    96 C    1.172   126 H    0.973
    98   6 C    3.961 --    97 C    1.659    99 C    1.171   127 H    0.976
    99   6 C    3.923 --    70 C    1.357   100 N    1.234    98 C    1.171
   100   7 N    3.296 --    96 C    1.242    99 C    1.234    69 Zn   0.461
   101   7 N    3.299 --    83 C    1.254    86 C    1.231    69 Zn   0.457
   102   6 C    3.988 --   109 C    1.398   103 C    1.396    76 C    1.024
                           106 C    0.103
   103   6 C    3.986 --   104 C    1.418   102 C    1.396   128 H    0.972
                           107 C    0.103
   104   6 C    3.988 --   103 C    1.418   106 C    1.414   105 C    1.019
                           109 C    0.103
   105   6 C    3.996 --   104 C    1.019   130 H    0.984   129 H    0.982
                           131 H    0.971
   106   6 C    3.988 --   107 C    1.416   104 C    1.414   132 H    0.972
                           102 C    0.103
   107   6 C    3.988 --   109 C    1.416   106 C    1.416   108 C    1.019
                           103 C    0.103
   108   6 C    3.996 --   107 C    1.019   135 H    0.983   134 H    0.983
                           133 H    0.971
   109   6 C    3.987 --   107 C    1.416   102 C    1.398   136 H    0.972
                           104 C    0.103
   110   1 H    1.002 --    70 C    0.972
   111   1 H    0.998 --    72 C    0.976
   112   1 H    1.005 --    73 C    0.974
   113   1 H    1.006 --    78 C    0.973
   114   1 H    1.003 --    79 C    0.974
   115   1 H    1.003 --    84 C    0.974
   116   1 H    1.005 --    85 C    0.974
   117   1 H    1.003 --    89 C    0.972
   118   1 H    1.004 --    91 C    0.985
   119   1 H    1.006 --    91 C    0.972
   120   1 H    1.005 --    91 C    0.980
   121   1 H    1.000 --    92 C    0.972
   122   1 H    1.004 --    94 C    0.985
   123   1 H    1.005 --    94 C    0.980
   124   1 H    1.006 --    94 C    0.972
   125   1 H    1.004 --    95 C    0.971
   126   1 H    1.006 --    97 C    0.973
   127   1 H    0.998 --    98 C    0.976
   128   1 H    1.003 --   103 C    0.972
   129   1 H    1.005 --   105 C    0.982
   130   1 H    1.004 --   105 C    0.984
   131   1 H    1.006 --   105 C    0.971
   132   1 H    1.000 --   106 C    0.972
   133   1 H    1.006 --   108 C    0.971
   134   1 H    1.004 --   108 C    0.983
   135   1 H    1.004 --   108 C    0.983
   136   1 H    1.003 --   109 C    0.972
   137   6 C    3.932 --   138 C    2.576    14 C    1.178
   138   6 C    3.933 --   137 C    2.576   142 C    1.179
   139   6 C    3.929 --   140 C    2.593   154 C    1.153
   140   6 C    3.926 --   139 C    2.593    82 C    1.152
   141  30 Zn   1.998 --   147 N    0.459   172 N    0.458   173 N    0.457
                           152 N    0.457
   142   6 C    3.931 --   171 C    1.258   143 C    1.257   138 C    1.179
   143   6 C    3.908 --   147 N    1.261   142 C    1.257   144 C    1.188
   144   6 C    3.961 --   145 C    1.643   143 C    1.188   182 H    0.969
   145   6 C    3.961 --   144 C    1.643   146 C    1.181   183 H    0.973
   146   6 C    3.912 --   148 C    1.322   147 N    1.225   145 C    1.181
   147   7 N    3.294 --   143 C    1.261   146 C    1.225   141 Zn   0.459
   148   6 C    3.929 --   146 C    1.322   149 C    1.319   174 C    1.023
   149   6 C    3.913 --   148 C    1.319   152 N    1.229   150 C    1.180
   150   6 C    3.963 --   151 C    1.646   149 C    1.180   184 H    0.973
   151   6 C    3.961 --   150 C    1.646   153 C    1.185   185 H    0.974
   152   7 N    3.292 --   153 C    1.256   149 C    1.229   141 Zn   0.457
   153   6 C    3.914 --   154 C    1.268   152 N    1.256   151 C    1.185
   154   6 C    3.926 --   155 C    1.269   153 C    1.268   139 C    1.153
   155   6 C    3.914 --   154 C    1.269   173 N    1.255   156 C    1.185
   156   6 C    3.961 --   157 C    1.646   155 C    1.185   186 H    0.974
   157   6 C    3.963 --   156 C    1.646   158 C    1.180   187 H    0.973
   158   6 C    3.913 --   159 C    1.319   173 N    1.229   157 C    1.180
   159   6 C    3.929 --   168 C    1.322   158 C    1.319   160 C    1.024
   160   6 C    3.988 --   161 C    1.401   167 C    1.393   159 C    1.024
                           164 C    0.103
   161   6 C    3.987 --   162 C    1.413   160 C    1.401   188 H    0.972
                           165 C    0.104
   162   6 C    3.988 --   164 C    1.420   161 C    1.413   163 C    1.019
                           167 C    0.103
   163   6 C    3.996 --   162 C    1.019   189 H    0.984   191 H    0.981
                           190 H    0.971
   164   6 C    3.989 --   162 C    1.420   165 C    1.411   192 H    0.972
                           160 C    0.103
   165   6 C    3.988 --   167 C    1.421   164 C    1.411   166 C    1.019
                           161 C    0.104
   166   6 C    3.996 --   165 C    1.019   193 H    0.985   194 H    0.980
                           195 H    0.972
   167   6 C    3.987 --   165 C    1.421   160 C    1.393   196 H    0.972
                           162 C    0.103
   168   6 C    3.912 --   159 C    1.322   172 N    1.225   169 C    1.181
   169   6 C    3.961 --   170 C    1.643   168 C    1.181   197 H    0.973
   170   6 C    3.961 --   169 C    1.643   171 C    1.188   198 H    0.970
   171   6 C    3.908 --   172 N    1.261   142 C    1.258   170 C    1.188
   172   7 N    3.294 --   171 C    1.261   168 C    1.225   141 Zn   0.458
   173   7 N    3.292 --   155 C    1.255   158 C    1.229   141 Zn   0.457
   174   6 C    3.988 --   175 C    1.399   181 C    1.397   148 C    1.023
                           178 C    0.103
   175   6 C    3.987 --   176 C    1.416   174 C    1.399   199 H    0.972
                           179 C    0.104
   176   6 C    3.988 --   178 C    1.416   175 C    1.416   177 C    1.020
                           181 C    0.104
   177   6 C    3.996 --   176 C    1.020   202 H    0.983   200 H    0.983
                           201 H    0.971
   178   6 C    3.989 --   176 C    1.416   179 C    1.415   203 H    0.972
                           174 C    0.103
   179   6 C    3.988 --   181 C    1.418   178 C    1.415   180 C    1.020
                           175 C    0.104
   180   6 C    3.996 --   179 C    1.020   205 H    0.983   204 H    0.982
                           206 H    0.971
   181   6 C    3.987 --   179 C    1.418   174 C    1.397   207 H    0.972
                           176 C    0.104
   182   1 H    1.007 --   144 C    0.969
   183   1 H    1.005 --   145 C    0.973
   184   1 H    1.005 --   150 C    0.973
   185   1 H    1.003 --   151 C    0.974
   186   1 H    1.003 --   156 C    0.974
   187   1 H    1.006 --   157 C    0.973
   188   1 H    1.003 --   161 C    0.972
   189   1 H    1.004 --   163 C    0.984
   190   1 H    1.006 --   163 C    0.971
   191   1 H    1.005 --   163 C    0.981
   192   1 H    1.000 --   164 C    0.972
   193   1 H    1.004 --   166 C    0.985
   194   1 H    1.005 --   166 C    0.980
   195   1 H    1.006 --   166 C    0.972
   196   1 H    1.003 --   167 C    0.972
   197   1 H    1.005 --   169 C    0.973
   198   1 H    1.006 --   170 C    0.970
   199   1 H    1.003 --   175 C    0.972
   200   1 H    1.004 --   177 C    0.983
   201   1 H    1.006 --   177 C    0.971
   202   1 H    1.004 --   177 C    0.983
   203   1 H    1.000 --   178 C    0.972
   204   1 H    1.004 --   180 C    0.982
   205   1 H    1.004 --   180 C    0.983
   206   1 H    1.006 --   180 C    0.971
   207   1 H    1.003 --   181 C    0.972
 ---------------------------------------------------------------------------

           -------------------------------------------------
          | TOTAL ENERGY             -320.605721508221 Eh   |
          | GRADIENT NORM               0.000525246376 Eh/α |
          | HOMO-LUMO GAP               1.001080405824 eV   |
           -------------------------------------------------

 * finished run on 2022/07/30 at 09:24:44.731
