   * xtb version 6.5.1 (b24c23e) compiled by 'conda@728c89f4b128' on 2022-07-12
          program call               : xtb Ni_PhOH_C4_2.xyz --gfn 1 --opt -T 48

   ID    Z sym.   atoms
    1   28 Ni     1, 59
    2    6 C      2-6, 8-12, 14-18, 20-25, 27-31, 33-38, 60-64, 66-70, 72-76,
                  78-83, 85-89, 91-96, 117-120
    3    7 N      7, 19, 26, 39, 65, 77, 84, 97
    4    8 O      13, 32, 71, 90
    5    1 H      40-58, 98-116
########################################################################
[WARNING] Please study the warnings concerning your input carefully
-1- prog_main_parseArguments: Unknown option '-T' provided
########################################################################

          :  Hamiltonian                  GFN1-xTB          :
 * total energy  :  -215.7419827 Eh     change       -0.8619452E-09 Eh
 * total energy  :  -216.5668326 Eh     change       -0.8248499E+00 Eh
 * total energy  :  -216.6727005 Eh     change       -0.1058678E+00 Eh
 * total energy  :  -216.7305003 Eh     change       -0.5779983E-01 Eh
 * total energy  :  -216.7484934 Eh     change       -0.1799307E-01 Eh
 * total energy  :  -216.7582083 Eh     change       -0.9714981E-02 Eh
 * total energy  :  -216.7637231 Eh     change       -0.5514742E-02 Eh
 * total energy  :  -216.7670969 Eh     change       -0.3373843E-02 Eh
 * total energy  :  -216.7694609 Eh     change       -0.2364019E-02 Eh
 * total energy  :  -216.7711514 Eh     change       -0.1690501E-02 Eh
 * total energy  :  -216.7749737 Eh     change       -0.3457543E-04 Eh
 * total energy  :  -216.7749933 Eh     change       -0.1953612E-04 Eh
 * total energy  :  -216.7750173 Eh     change       -0.2409137E-04 Eh
 * total energy  :  -216.7750360 Eh     change       -0.1870106E-04 Eh
 * total energy  :  -216.7750447 Eh     change       -0.8618838E-05 Eh
 * total energy  :  -216.7750521 Eh     change       -0.7470700E-05 Eh
 * total energy  :  -216.7750582 Eh     change       -0.6097370E-05 Eh
 * total energy  :  -216.7750637 Eh     change       -0.5490676E-05 Eh
 * total energy  :  -216.7750677 Eh     change       -0.3970369E-05 Eh
   *** GEOMETRY OPTIMIZATION CONVERGED AFTER 38 ITERATIONS ***

 final structure:
================
120
 xtb: 6.5.1 (b24c23e)
Ni          15.57632343447397       -0.05579367841774       -0.06654119791992
C           12.18848811063642       -0.09311398691120       -0.25607963696251
C           12.84970836902113       -1.30338485552511       -0.25725772325583
C           12.17830476384456       -2.56613922772447       -0.30474446359014
C           13.12998326821478       -3.51694836976399       -0.15662935913646
C           14.38555019685227       -2.83472644049735       -0.04013507847859
N           14.20388790542735       -1.47598101653750       -0.11451811704379
C           15.59684796095980       -3.47612802488939        0.18411664572550
C           15.60743846021343       -4.95397200738858        0.32166692932167
C           15.25684936828218       -5.76992735246222       -0.75354241554669
C           15.26910738983942       -7.15071020879565       -0.62721805119815
C           15.62934417110560       -7.73042632510959        0.58688834215387
O           15.65135373040358       -9.07797040362047        0.75507144030649
C           15.98051869544333       -6.92560460417290        1.66903622153766
C           15.97158344497667       -5.54868227087893        1.53153706856827
C           16.80314608947108       -2.79400213277943        0.26676905138415
C           18.06954639202815       -3.44426655680467        0.41836089537943
C           19.01781067878510       -2.48126079164589        0.32894454356460
N           16.97568078947278       -1.43743580461550        0.10392624055432
C           18.32979251017174       -1.24623088200759        0.12721053605511
C           18.98904360285855       -0.02841825381137       -0.05989463725947
C           18.30900237019108        1.18399208357476       -0.20181717873754
C           18.97552163648495        2.43544506937762       -0.37103325173506
C           18.01435498154364        3.39013862785318       -0.37461271271087
C           16.76204321999705        2.71754662334814       -0.20667355116663
N           16.95366720112563        1.35631509896163       -0.13128739611873
C           15.54063228284195        3.37403408440346       -0.12703713080468
C           15.53050835945888        4.85658697944448       -0.13560796921337
C           16.16937993321345        5.57565704380204        0.87750947495101
C           16.16037337540225        6.95918119218528        0.87828464916833
C           15.51302579374655        7.64671573735413       -0.14672525855182
O           15.52461631988261        9.00423187839568       -0.11658237267327
C           14.87737762253697        6.94316325129128       -1.16710693861095
C           14.88621142440967        5.55694224230183       -1.15582095866994
C           14.32978958485634        2.69636717484610       -0.06236727004563
C           13.05357917550944        3.34479106747256        0.01667884256779
C           12.11436478518316        2.37219602280578       -0.04940286967313
C           12.81707528173629        1.12951342861912       -0.14288185564389
N           14.17387806466563        1.33341717295875       -0.12223458684152
H           11.10656244619594       -0.10471926497794       -0.31895037527216
H           11.11263932462128       -2.68745307773686       -0.41756512512123
H           13.00405001628276       -4.58672832588025       -0.11761302081990
H           14.98814120847345       -5.31991431358877       -1.70277122659045
H           15.00151645648553       -7.78118604214136       -1.46840900942931
H           15.38786092744999       -9.53811834335797       -0.05292906737602
H           16.25628440409216       -7.38994047164930        2.60773706746214
H           16.23565793738188       -4.92179553650796        2.37585984329791
H           18.20577487879663       -4.50461924771739        0.55456023905917
H           20.08956278775002       -2.58258663231643        0.38645284253441
H           20.04265992449569        2.55251816330156       -0.46956666186282
H           18.13213246796997        4.45502812226731       -0.49105042942590
H           16.66321157141376        5.04064109011906        1.68093072053524
H           16.64908095926775        7.51908888204985        1.66601816546959
H           15.04362301285926        9.37735476584045       -0.86743412762314
H           14.38012689973438        7.48245637316253       -1.96622134966654
H           14.40294014912320        5.01078294924452       -1.95829611544536
H           12.90751062419669        4.40836347162623        0.11301768527728
H           11.04027464392321        2.46675152050648       -0.02816439841968
Ni          29.00713114699036        0.04632565925402       -0.07456260516794
C           32.39527254864578        0.05555116351692       -0.26385918433862
C           31.73471285262609        1.25358799701789       -0.43799276143106
C           32.40676348667157        2.49669542165431       -0.66303579490237
C           31.45519205398483        3.45902789275679       -0.65332696497208
C           30.19908074390795        2.80039057783769       -0.44390438290230
N           30.38040643987327        1.44496050994908       -0.32352585831636
C           28.98728377594324        3.46712952806036       -0.31767149062443
C           28.97690699502470        4.94940658356059       -0.39461474237699
C           29.33021618610682        5.60172957067250       -1.57546849029927
C           29.31807122956108        6.98629512709884       -1.64969626747925
C           28.95530989715438        7.73510063774130       -0.53274163307953
O           28.93304901266630        9.09281252705546       -0.56087979161313
C           28.60183153251377        7.09479617990780        0.65350568245538
C           28.61058772135732        5.71244035982581        0.71607444424320
C           27.78068562074923        2.80385425878830       -0.14048979739030
C           26.51417125831763        3.46907321433536       -0.08562402297637
C           25.56599785386224        2.50323045048779       -0.03490287377371
N           27.60823122654793        1.43785734224608       -0.10573391411527
C           26.25414127892163        1.25197218044608       -0.05548211080122
C           25.59425465335601        0.02027599091004       -0.06516860417325
C           26.27373273233576       -1.20029873476503       -0.03235318379144
C           25.60728788007741       -2.46306549270973       -0.02178792304680
C           26.56848432420595       -3.40849760493409        0.11101545708851
C           27.82061346110388       -2.71869253662391        0.18220279452480
N           27.62898420789376       -1.36073215435963        0.06250170435085
C           29.04184995907904       -3.35664499051294        0.35730453247557
C           29.05201304348673       -4.82518891766762        0.56077744627570
C           28.41276382250348       -5.39224969281833        1.66591537363752
C           28.42197303669896       -6.76149552895981        1.86422672958279
C           29.06967574448106       -7.58819884860115        0.94801811169651
O           29.05828413892018       -8.92751590003680        1.17160625650047
C           29.70558667155713       -7.03747435788275       -0.16217254335250
C           29.69677084916373       -5.66383917513458       -0.34880754957876
C           30.25258456715326       -2.67646161125304        0.32674703535531
C           31.52843684197153       -3.30690340714025        0.50045985722037
C           32.46807964936709       -2.35427051155950        0.29566327402198
C           31.76592445956701       -1.13793281032896        0.02297848318379
N           30.40899076166563       -1.33636821400589        0.07125812167098
H           33.47723382700380        0.05749740937676       -0.32702205251199
H           33.47273643346306        2.60061393051189       -0.78953757016133
H           31.58145639344971        4.52353515678544       -0.76598226659022
H           29.60107118436365        5.01953030708953       -2.44921294174958
H           29.58771140430703        7.48885783297767       -2.57242924456244
H           29.19846128629225        9.43158287504901       -1.42622839578960
H           28.32442071672136        7.68965708608911        1.51489712968598
H           28.34466350618576        5.21393565872275        1.64148311509083
H           26.37796329468736        4.53797444910342       -0.10454047524846
H           24.49419675522789        2.61148163501261        0.00695607399508
H           24.54023423156490       -2.59326362007005       -0.10310708297999
H           26.45085949359351       -4.47913970652502        0.14730482043208
H           27.91846694687116       -4.74803436919361        2.38442519945199
H           27.93312374891892       -7.20326665753041        2.72371063584728
H           29.53843078677350       -9.40396131533257        0.48108473343789
H           30.20301128493232       -7.68529153713564       -0.87601442630077
H           30.18040788878456       -5.23760660861171       -1.22071412408263
H           31.67375564508903       -4.34538884216652        0.74991811279188
H           33.54211554119976       -2.44491471389421        0.33182852326447
C           21.61624034052001       -0.01278342877206       -0.09152616749242
C           20.39487280095410       -0.01832343706701       -0.08017755500005
C           22.96689462168377       -0.00114043281945       -0.09161784220654
C           24.18833381561285        0.00832997764597       -0.08317756935363

          :  Hamiltonian                  GFN1-xTB          :
         :: total energy            -216.775067696346 Eh    ::
         :: gradient norm              0.000653485950 Eh/a0 ::
         :: HOMO-LUMO gap              1.190673504316 eV    ::
         :: SCC energy              -220.036788223126 Eh    ::
         :: repulsion energy           3.368784005939 Eh    ::

    * Orbital Energies and Occupations

         #    Occupation            Energy/Eh            Energy/eV
      -------------------------------------------------------------
         1        2.0000           -0.8054196             -21.9166
       ...           ...                  ...                  ...
       185        2.0000           -0.4188787             -11.3983
       186        2.0000           -0.3967224             -10.7954
       187        2.0000           -0.3966501             -10.7934
       188        2.0000           -0.3962820             -10.7834
       189        2.0000           -0.3962681             -10.7830
       190        2.0000           -0.3954120             -10.7597
       191        2.0000           -0.3954078             -10.7596
       192        2.0000           -0.3943673             -10.7313
       193        2.0000           -0.3943586             -10.7310
       194        2.0000           -0.3943211             -10.7300
       195        2.0000           -0.3943208             -10.7300
       196        2.0000           -0.3932316             -10.7004
       197        2.0000           -0.3816991             -10.3866 (HOMO)
       198                         -0.3379427              -9.1959 (LUMO)
       199                         -0.3276109              -8.9147
       200                         -0.3276011              -8.9145
       201                         -0.3262577              -8.8779
       202                         -0.3262473              -8.8776
       203                         -0.3243104              -8.8249
       204                         -0.2964848              -8.0678
       205                         -0.2885576              -7.8521
       206                         -0.2674477              -7.2776
       207                         -0.2674455              -7.2776
       208                         -0.2673199              -7.2741
       ...                                ...                  ...
       414                          1.5197027              41.3532
      -------------------------------------------------------------
                  HL-Gap            0.0437564 Eh            1.1907 eV

Wiberg/Mayer (AO) data.
largest (>0.10) Wiberg bond orders for each atom

     #   Z sym  total        # sym  WBO       # sym  WBO       # sym  WBO
 ---------------------------------------------------------------------------
     1  28 Ni   3.012 --    39 N    0.664     7 N    0.664    19 N    0.662
                            26 N    0.662
     2   6 C    3.933 --     3 C    1.364    38 C    1.362    40 H    0.970
     3   6 C    3.924 --     2 C    1.364     7 N    1.213     4 C    1.175
     4   6 C    3.959 --     5 C    1.648     3 C    1.175    41 H    0.975
     5   6 C    3.963 --     4 C    1.648     6 C    1.178    42 H    0.972
     6   6 C    3.919 --     8 C    1.323     7 N    1.221     5 C    1.178
     7   7 N    3.402 --     6 C    1.221     3 C    1.213     1 Ni   0.664
     8   6 C    3.939 --    16 C    1.331     6 C    1.323     9 C    1.022
     9   6 C    3.989 --    10 C    1.396    15 C    1.386     8 C    1.022
    10   6 C    3.989 --    11 C    1.451     9 C    1.396    43 H    0.973
                            14 C    0.106
    11   6 C    3.988 --    10 C    1.451    12 C    1.373    44 H    0.970
                            15 C    0.103
    12   6 C    3.902 --    11 C    1.373    14 C    1.365    13 O    1.040
    13   8 O    2.043 --    12 C    1.040    45 H    0.865
    14   6 C    3.990 --    15 C    1.465    12 C    1.365    46 H    0.971
                            10 C    0.106
    15   6 C    3.989 --    14 C    1.465     9 C    1.386    47 H    0.973
                            11 C    0.103
    16   6 C    3.914 --     8 C    1.331    19 N    1.205    17 C    1.184
    17   6 C    3.959 --    18 C    1.636    16 C    1.184    48 H    0.973
    18   6 C    3.961 --    17 C    1.636    20 C    1.192    49 H    0.973
    19   7 N    3.407 --    20 C    1.239    16 C    1.205     1 Ni   0.662
    20   6 C    3.905 --    21 C    1.264    19 N    1.239    18 C    1.192
    21   6 C    3.943 --    22 C    1.264    20 C    1.264   118 C    1.181
    22   6 C    3.905 --    21 C    1.264    26 N    1.238    23 C    1.192
    23   6 C    3.961 --    24 C    1.634    22 C    1.192    50 H    0.973
    24   6 C    3.959 --    23 C    1.634    25 C    1.185    51 H    0.973
    25   6 C    3.915 --    27 C    1.327    26 N    1.207    24 C    1.185
    26   7 N    3.407 --    22 C    1.238    25 C    1.207     1 Ni   0.662
    27   6 C    3.939 --    25 C    1.327    35 C    1.323    28 C    1.028
    28   6 C    3.989 --    34 C    1.393    29 C    1.383    27 C    1.028
    29   6 C    3.988 --    30 C    1.467    28 C    1.383    52 H    0.973
                            33 C    0.102
    30   6 C    3.990 --    29 C    1.467    31 C    1.364    53 H    0.971
                            34 C    0.105
    31   6 C    3.901 --    33 C    1.372    30 C    1.364    32 O    1.040
    32   8 O    2.044 --    31 C    1.040    54 H    0.865
    33   6 C    3.988 --    34 C    1.452    31 C    1.372    55 H    0.970
                            29 C    0.102
    34   6 C    3.988 --    33 C    1.452    28 C    1.393    56 H    0.972
                            30 C    0.105
    35   6 C    3.919 --    27 C    1.323    39 N    1.220    36 C    1.178
    36   6 C    3.963 --    37 C    1.647    35 C    1.178    57 H    0.973
    37   6 C    3.959 --    36 C    1.647    38 C    1.176    58 H    0.975
    38   6 C    3.924 --     2 C    1.362    39 N    1.214    37 C    1.176
    39   7 N    3.402 --    35 C    1.220    38 C    1.214     1 Ni   0.664
    40   1 H    1.000 --     2 C    0.970
    41   1 H    0.998 --     4 C    0.975
    42   1 H    1.005 --     5 C    0.972
    43   1 H    1.004 --    10 C    0.973
    44   1 H    0.999 --    11 C    0.970
    45   1 H    0.887 --    13 O    0.865
    46   1 H    0.999 --    14 C    0.971
    47   1 H    1.004 --    15 C    0.973
    48   1 H    1.005 --    17 C    0.973
    49   1 H    1.002 --    18 C    0.973
    50   1 H    1.002 --    23 C    0.973
    51   1 H    1.005 --    24 C    0.973
    52   1 H    1.005 --    29 C    0.973
    53   1 H    0.999 --    30 C    0.971
    54   1 H    0.887 --    32 O    0.865
    55   1 H    0.999 --    33 C    0.970
    56   1 H    1.005 --    34 C    0.972
    57   1 H    1.005 --    36 C    0.973
    58   1 H    0.998 --    37 C    0.975
    59  28 Ni   3.012 --    97 N    0.664    65 N    0.664    77 N    0.663
                            84 N    0.662
    60   6 C    3.933 --    61 C    1.364    96 C    1.362    98 H    0.970
    61   6 C    3.924 --    60 C    1.364    65 N    1.213    62 C    1.175
    62   6 C    3.959 --    63 C    1.648    61 C    1.175    99 H    0.975
    63   6 C    3.963 --    62 C    1.648    64 C    1.178   100 H    0.972
    64   6 C    3.919 --    66 C    1.323    65 N    1.221    63 C    1.178
    65   7 N    3.402 --    64 C    1.221    61 C    1.213    59 Ni   0.664
    66   6 C    3.939 --    74 C    1.331    64 C    1.323    67 C    1.022
    67   6 C    3.989 --    68 C    1.396    73 C    1.386    66 C    1.022
    68   6 C    3.989 --    69 C    1.451    67 C    1.396   101 H    0.973
                            72 C    0.106
    69   6 C    3.988 --    68 C    1.451    70 C    1.373   102 H    0.970
                            73 C    0.103
    70   6 C    3.902 --    69 C    1.373    72 C    1.365    71 O    1.040
    71   8 O    2.043 --    70 C    1.040   103 H    0.865
    72   6 C    3.990 --    73 C    1.465    70 C    1.365   104 H    0.971
                            68 C    0.106
    73   6 C    3.989 --    72 C    1.465    67 C    1.386   105 H    0.973
                            69 C    0.103
    74   6 C    3.914 --    66 C    1.331    77 N    1.205    75 C    1.184
    75   6 C    3.959 --    76 C    1.636    74 C    1.184   106 H    0.973
    76   6 C    3.961 --    75 C    1.636    78 C    1.191   107 H    0.973
    77   7 N    3.407 --    78 C    1.239    74 C    1.205    59 Ni   0.663
    78   6 C    3.905 --    79 C    1.264    77 N    1.239    76 C    1.191
    79   6 C    3.943 --    80 C    1.264    78 C    1.264   120 C    1.181
    80   6 C    3.905 --    79 C    1.264    84 N    1.238    81 C    1.192
    81   6 C    3.961 --    82 C    1.634    80 C    1.192   108 H    0.973
    82   6 C    3.959 --    81 C    1.634    83 C    1.185   109 H    0.973
    83   6 C    3.915 --    85 C    1.327    84 N    1.207    82 C    1.185
    84   7 N    3.407 --    80 C    1.238    83 C    1.207    59 Ni   0.662
    85   6 C    3.939 --    83 C    1.327    93 C    1.323    86 C    1.028
    86   6 C    3.989 --    92 C    1.393    87 C    1.384    85 C    1.028
    87   6 C    3.988 --    88 C    1.467    86 C    1.384   110 H    0.973
                            91 C    0.102
    88   6 C    3.990 --    87 C    1.467    89 C    1.364   111 H    0.971
                            92 C    0.105
    89   6 C    3.901 --    91 C    1.372    88 C    1.364    90 O    1.040
    90   8 O    2.044 --    89 C    1.040   112 H    0.865
    91   6 C    3.988 --    92 C    1.452    89 C    1.372   113 H    0.970
                            87 C    0.102
    92   6 C    3.988 --    91 C    1.452    86 C    1.393   114 H    0.972
                            88 C    0.105
    93   6 C    3.919 --    85 C    1.323    97 N    1.220    94 C    1.178
    94   6 C    3.963 --    95 C    1.647    93 C    1.178   115 H    0.973
    95   6 C    3.959 --    94 C    1.647    96 C    1.176   116 H    0.975
    96   6 C    3.924 --    60 C    1.362    97 N    1.214    95 C    1.176
    97   7 N    3.402 --    93 C    1.220    96 C    1.214    59 Ni   0.664
    98   1 H    1.000 --    60 C    0.970
    99   1 H    0.998 --    62 C    0.975
   100   1 H    1.005 --    63 C    0.972
   101   1 H    1.004 --    68 C    0.973
   102   1 H    0.999 --    69 C    0.970
   103   1 H    0.887 --    71 O    0.865
   104   1 H    0.999 --    72 C    0.971
   105   1 H    1.004 --    73 C    0.973
   106   1 H    1.005 --    75 C    0.973
   107   1 H    1.002 --    76 C    0.973
   108   1 H    1.002 --    81 C    0.973
   109   1 H    1.005 --    82 C    0.973
   110   1 H    1.005 --    87 C    0.973
   111   1 H    0.999 --    88 C    0.971
   112   1 H    0.887 --    90 O    0.865
   113   1 H    0.999 --    91 C    0.970
   114   1 H    1.005 --    92 C    0.972
   115   1 H    1.005 --    94 C    0.973
   116   1 H    0.998 --    95 C    0.975
   117   6 C    3.938 --   118 C    2.485   119 C    1.303
   118   6 C    3.927 --   117 C    2.485    21 C    1.181   120 C    0.200
   119   6 C    3.938 --   120 C    2.485   117 C    1.303
   120   6 C    3.927 --   119 C    2.485    79 C    1.181   118 C    0.200
 ---------------------------------------------------------------------------

           -------------------------------------------------
          | TOTAL ENERGY             -216.775067696346 Eh   |
          | GRADIENT NORM               0.000653485950 Eh/α |
          | HOMO-LUMO GAP               1.190673504316 eV   |
           -------------------------------------------------

 * finished run on 2022/07/30 at 05:58:13.105
