   * xtb version 6.5.1 (b24c23e) compiled by 'conda@728c89f4b128' on 2022-07-12
          program call               : xtb Cu_PhCHO_C4_2.xyz --gfn 1 --opt -T 48

   ID    Z sym.   atoms
    1   29 Cu     1, 61
    2    6 C      2-6, 8-13, 15-19, 21-26, 28-33, 35-40, 62-66, 68-73, 75-79,
                  81-86, 88-93, 95-100, 121-124
    3    7 N      7, 20, 27, 41, 67, 80, 87, 101
    4    8 O      14, 34, 74, 94
    5    1 H      42-60, 102-120
########################################################################
[WARNING] Please study the warnings concerning your input carefully
-1- prog_main_parseArguments: Unknown option '-T' provided
########################################################################

          :  Hamiltonian                  GFN1-xTB          :
 * total energy  :  -225.2265447 Eh     change       -0.7866561E-09 Eh
 * total energy  :  -225.7124914 Eh     change       -0.4859467E+00 Eh
 * total energy  :  -225.7963641 Eh     change       -0.8387277E-01 Eh
 * total energy  :  -225.8322956 Eh     change       -0.3593143E-01 Eh
 * total energy  :  -225.8417425 Eh     change       -0.9446992E-02 Eh
 * total energy  :  -225.8466682 Eh     change       -0.4925614E-02 Eh
 * total energy  :  -225.8491799 Eh     change       -0.2511735E-02 Eh
 * total energy  :  -225.8513663 Eh     change       -0.2186435E-02 Eh
 * total energy  :  -225.8527840 Eh     change       -0.1417647E-02 Eh
 * total energy  :  -225.8539203 Eh     change       -0.1136367E-02 Eh
 * total energy  :  -225.8576181 Eh     change       -0.3398638E-04 Eh
 * total energy  :  -225.8576372 Eh     change       -0.1918314E-04 Eh
 * total energy  :  -225.8576649 Eh     change       -0.2769410E-04 Eh
 * total energy  :  -225.8576866 Eh     change       -0.2161908E-04 Eh
 * total energy  :  -225.8576972 Eh     change       -0.1060351E-04 Eh
 * total energy  :  -225.8577019 Eh     change       -0.4778550E-05 Eh
 * total energy  :  -225.8577040 Eh     change       -0.2024620E-05 Eh
 * total energy  :  -225.8577088 Eh     change       -0.4838187E-05 Eh
 * total energy  :  -225.8577127 Eh     change       -0.3918028E-05 Eh
   *** GEOMETRY OPTIMIZATION CONVERGED AFTER 42 ITERATIONS ***

 final structure:
================
124
 xtb: 6.5.1 (b24c23e)
Cu          15.83407812137683        0.05578598431046       -0.02983565481969
C           12.42840175868977        0.09253924838063       -0.09718813188330
C           13.06216821280169        1.31669402063930        0.05260688521710
C           12.38510743946686        2.57100119278507        0.21882639418452
C           13.34247557467535        3.52101839691921        0.35748356477048
C           14.61438528500278        2.85611249464219        0.26519794217975
N           14.41262653611517        1.51814626612158        0.08785178545808
C           15.85928398102831        3.48121181625571        0.37498198976797
C           15.86893534842695        4.95168786037223        0.56490587293647
C           16.40534770936813        5.51020204321536        1.72909507287803
C           16.40241927128154        6.87959476502670        1.91164800383659
C           15.86870399825901        7.72304370124416        0.93153553239776
C           15.87498135250575        9.18082220632400        1.15050177411929
O           16.31551950848955        9.70749376816707        2.14001624117101
C           15.33796230699404        7.16665957514125       -0.23479771626786
C           15.33596919358519        5.79479448457211       -0.41413275742519
C           17.09351977075077        2.82970343778622        0.32351004438512
C           18.37071124747527        3.48343299954227        0.37816494229119
C           19.31728151249261        2.51665724840621        0.27372840114427
N           17.28268103310124        1.48149682536623        0.17533238734402
C           18.62667539914990        1.26811285542648        0.14871680898577
C           19.26304394233588        0.02206595449458        0.01166854959875
C           18.60584335025586       -1.21256004341009       -0.12999161152612
C           19.27558990148441       -2.46854574579185       -0.29023902547029
C           18.31304921929134       -3.41828655311902       -0.40403047273139
C           17.04679787274231       -2.74823131993473       -0.30669282579681
N           17.25849107062395       -1.40448146952408       -0.14860631668512
C           15.80132267397547       -3.37383884688306       -0.39804016723181
C           15.78576298444243       -4.84876336910424       -0.54819649342838
C           15.23154697106417       -5.43647805070785       -1.68888547576481
C           15.21249314775336       -6.81256913810305       -1.83015382646247
C           15.74362641537511       -7.63012681922676       -0.82954536751358
C           15.72998509473461       -9.09889451336515       -0.95350417828857
O           16.17302279386371       -9.84551643706648       -0.11876471213027
C           16.29772259642387       -7.04254920523842        0.31269836685382
C           16.32090291508283       -5.66812489256251        0.45051945806644
C           14.56736424531111       -2.71912287469546       -0.35885827939273
C           13.28422064839182       -3.36685071884265       -0.40853439884264
C           12.34325116241171       -2.39387240600261       -0.32981481583907
C           13.04160573693644       -1.14505583063894       -0.21984727692487
N           14.38850574540771       -1.37182481930839       -0.23548214479429
H           11.34335881246617        0.10240719161976       -0.10458358643621
H           11.31360518711043        2.69337936713938        0.23445875137329
H           13.20605413972199        4.57785679916918        0.52105731965452
H           16.80792130833982        4.85822089448290        2.49607257859026
H           16.80983934656720        7.32022407680856        2.81526410824772
H           15.43279177707042        9.76857723708122        0.31765615623414
H           14.92619213502358        7.81405189047338       -1.00228454523353
H           14.93341106894432        5.36636384941812       -1.32520398762156
H           18.52001132537420        4.54702898642630        0.46986465882218
H           20.38958554307507        2.62974264807813        0.27502903474273
H           20.34592139597837       -2.59649076954670       -0.31687407009080
H           18.44506471167798       -4.47748030759590       -0.55476925018658
H           14.82934134940179       -4.80432665199463       -2.47262966104416
H           14.78456270994979       -7.25996367307708       -2.72145921771900
H           15.27153186682590       -9.47248484008335       -1.89424377257462
H           16.70494245603235       -7.68518657183940        1.08593652153252
H           16.73903162483647       -5.21628279404880        1.34297223057846
H           13.12968031267532       -4.43141265492052       -0.48011772842890
H           11.26981118970174       -2.49875174141995       -0.33572975437014
Cu          29.29969474489553       -0.05029427234895       -0.03724553031585
C           32.70546517349075       -0.07846945504293       -0.10540572775278
C           32.07119007807432       -1.31108058855316       -0.13736683735603
C           32.74767528551288       -2.57650974538893       -0.15782358103122
C           31.78989158115190       -3.53617256261789       -0.15781670265478
C           30.51831669055112       -2.86436336878412       -0.14876845054388
N           30.72065871831114       -1.51490465406943       -0.12990053450771
C           29.27333639694202       -3.49832670378860       -0.12516099547568
C           29.26369514275612       -4.98097697465384       -0.14736831960447
C           28.73749474398059       -5.70039808573307        0.92984991164372
C           28.74181426021408       -7.08184609560922        0.91498351505550
C           29.26657746085733       -7.77616199379866       -0.18026298913157
C           29.26341411102431       -9.25033248203194       -0.17109014771551
O           28.83158476402838       -9.91335321217211        0.73714050758585
C           29.78640406476714       -7.05842625225854       -1.26016785434555
C           29.78725915986361       -5.67500591116201       -1.24168573129495
C           28.03946197331651       -2.84603617553585       -0.07843499970863
C           26.76204032827678       -3.50078923320777       -0.11060232065961
C           25.81577436445177       -2.52871368367150       -0.07646825113075
N           27.85069528505370       -1.49027864225081       -0.03624587108763
C           26.50682569284165       -1.27497737087366       -0.02922027246367
C           25.87086492281118       -0.02175582049428        0.00695079629468
C           26.52831337590899        1.22037967124868        0.03691808958491
C           25.85899010667216        2.48671276151894        0.04853480206820
C           26.82182706613683        3.44266378110104        0.07097988201964
C           28.08783250063427        2.76516112722171        0.08070310506837
N           27.87574261248426        1.41255638359413        0.04976600134432
C           29.33361301191437        3.39691789688816        0.08576475849465
C           29.34910741451663        4.87807939427481        0.14693864025997
C           29.91441088824058        5.62213967701367       -0.89260700485605
C           29.93223856592856        7.00434958804888       -0.83686365272793
C           29.38841407531343        7.67139710310691        0.26361231216815
C           29.39954219473087        9.14292311133704        0.34924558091436
O           28.94468914837863        9.76327175589860        1.27592213828077
C           28.82347946207307        6.92732116951556        1.30486425381966
C           28.80195039266976        5.54725655980456        1.24609037208050
C           30.56749879036622        2.74253691612194        0.03807095870457
C           31.85085203898267        3.38972605281411        0.08928763754972
C           32.79148438627125        2.41505773606254        0.02969264395109
C           32.09269438208325        1.16399229985633       -0.04651520415883
N           30.74583639501197        1.39144258349909       -0.03423681968140
H           33.79051682493087       -0.08761500531986       -0.11275914871015
H           33.81911847670359       -2.70031677806994       -0.16255205490307
H           31.92574227133039       -4.60565357574681       -0.15136942379722
H           28.34200455914462       -5.16499666756770        1.78563294311900
H           28.34289025747501       -7.64742382617017        1.75022289759862
H           29.69516346335270       -9.71244164965058       -1.08419942930066
H           30.19083558778148       -7.58919370917687       -2.11600675764087
H           30.18183960602205       -5.12036671394170       -2.08568139939725
H           26.61247450321248       -4.56682320727777       -0.16676077363559
H           24.74340859661855       -2.64065781867785       -0.08707995684543
H           24.78877107589298        2.61760803076225        0.03513211034112
H           26.69008833848336        4.51254977964134        0.06674167628905
H           30.32599302715644        5.10797478018044       -1.75392995223650
H           30.36882989016602        7.57395911352751       -1.65092740437396
H           29.86719857713315        9.64652826690206       -0.52397455731361
H           28.40653768223727        7.45346995810974        2.15695416920489
H           28.37550781701477        4.97315927230439        2.06098788647599
H           32.00579574829113        4.45322025897777        0.17448944728373
H           33.86494018361778        2.51899098515654        0.04401165146672
C           21.89173962116344        0.00524296619954        0.00845166294935
C           20.67007245936635        0.01057871204513        0.01019917089881
C           23.24225553200154       -0.00309886412594        0.00734336627398
C           24.46382483969557       -0.00987462073396        0.00738061311402

          :  Hamiltonian                  GFN1-xTB          :
         :: total energy            -225.857712713361 Eh    ::
         :: gradient norm              0.000945420149 Eh/a0 ::
         :: HOMO-LUMO gap              0.000053081079 eV    ::
         :: SCC energy              -229.256566404563 Eh    ::
         :: repulsion energy           3.509585775136 Eh    ::

    * Orbital Energies and Occupations

         #    Occupation            Energy/Eh            Energy/eV
      -------------------------------------------------------------
         1        2.0000           -0.7912144             -21.5300
       ...           ...                  ...                  ...
       194        2.0000           -0.4234074             -11.5215
       195        2.0000           -0.4233961             -11.5212
       196        2.0000           -0.4202719             -11.4362
       197        2.0000           -0.4202663             -11.4360
       198        2.0000           -0.4201177             -11.4320
       199        2.0000           -0.4200535             -11.4302
       200        2.0000           -0.4200484             -11.4301
       201        2.0000           -0.4200230             -11.4294
       202        2.0000           -0.4077472             -11.0954
       203        2.0000           -0.4077433             -11.0953
       204        2.0000           -0.4056688             -11.0388
       205        2.0000           -0.3932355             -10.7005
       206        1.0005           -0.3678031             -10.0084 (HOMO)
       207        0.9995           -0.3678011             -10.0084 (LUMO)
       208                         -0.3499367              -9.5223
       209                         -0.3431416              -9.3374
       210                         -0.3431370              -9.3372
       211                         -0.3360405              -9.1441
       212                         -0.3269634              -8.8971
       213                         -0.3263438              -8.8803
       214                         -0.3216902              -8.7536
       215                         -0.3216754              -8.7532
       216                         -0.3060892              -8.3291
       217                         -0.2986855              -8.1276
       ...                                ...                  ...
       430                          1.5077210              41.0272
      -------------------------------------------------------------
                  HL-Gap            0.0000020 Eh            0.0001 eV

Wiberg/Mayer (AO) data.
largest (>0.10) Wiberg bond orders for each atom

     #   Z sym  total        # sym  WBO       # sym  WBO       # sym  WBO
 ---------------------------------------------------------------------------
     1  29 Cu   2.182 --    41 N    0.504     7 N    0.504    20 N    0.502
                            27 N    0.501
     2   6 C    3.930 --    40 C    1.362     3 C    1.362    42 H    0.971
     3   6 C    3.916 --     2 C    1.362     7 N    1.229     4 C    1.170
     4   6 C    3.955 --     5 C    1.657     3 C    1.170    43 H    0.975
     5   6 C    3.958 --     4 C    1.657     6 C    1.171    44 H    0.973
     6   6 C    3.913 --     8 C    1.317     7 N    1.241     5 C    1.171
     7   7 N    3.243 --     6 C    1.241     3 C    1.229     1 Cu   0.504
     8   6 C    3.933 --    17 C    1.324     6 C    1.317     9 C    1.031
     9   6 C    3.986 --    16 C    1.383    10 C    1.381     8 C    1.031
    10   6 C    3.987 --    11 C    1.471     9 C    1.381    45 H    0.972
    11   6 C    3.988 --    10 C    1.471    12 C    1.370    46 H    0.968
                            16 C    0.100
    12   6 C    3.983 --    15 C    1.378    11 C    1.370    13 C    1.049
    13   6 C    3.864 --    14 O    1.808    12 C    1.049    47 H    0.942
    14   8 O    2.004 --    13 C    1.808
    15   6 C    3.993 --    16 C    1.465    12 C    1.378    48 H    0.971
    16   6 C    3.988 --    15 C    1.465     9 C    1.383    49 H    0.972
                            11 C    0.100
    17   6 C    3.907 --     8 C    1.324    20 N    1.224    18 C    1.178
    18   6 C    3.954 --    19 C    1.644    17 C    1.178    50 H    0.973
    19   6 C    3.956 --    18 C    1.644    21 C    1.186    51 H    0.974
    20   7 N    3.248 --    21 C    1.256    17 C    1.224     1 Cu   0.502
    21   6 C    3.897 --    22 C    1.261    20 N    1.256    19 C    1.186
    22   6 C    3.940 --    23 C    1.262    21 C    1.261   122 C    1.184
    23   6 C    3.897 --    22 C    1.262    27 N    1.256    24 C    1.186
    24   6 C    3.956 --    25 C    1.644    23 C    1.186    52 H    0.974
    25   6 C    3.954 --    24 C    1.644    26 C    1.178    53 H    0.973
    26   6 C    3.907 --    28 C    1.324    27 N    1.224    25 C    1.178
    27   7 N    3.248 --    23 C    1.256    26 C    1.224     1 Cu   0.501
    28   6 C    3.933 --    26 C    1.324    37 C    1.317    29 C    1.032
    29   6 C    3.986 --    30 C    1.383    36 C    1.381    28 C    1.032
    30   6 C    3.987 --    31 C    1.466    29 C    1.383    54 H    0.972
                            35 C    0.100
    31   6 C    3.993 --    30 C    1.466    32 C    1.378    55 H    0.971
    32   6 C    3.983 --    31 C    1.378    35 C    1.370    33 C    1.050
    33   6 C    3.864 --    34 O    1.808    32 C    1.050    56 H    0.942
    34   8 O    2.004 --    33 C    1.808
    35   6 C    3.988 --    36 C    1.471    32 C    1.370    57 H    0.968
                            30 C    0.100
    36   6 C    3.987 --    35 C    1.471    29 C    1.381    58 H    0.972
    37   6 C    3.913 --    28 C    1.317    41 N    1.241    38 C    1.171
    38   6 C    3.958 --    39 C    1.657    37 C    1.171    59 H    0.973
    39   6 C    3.955 --    38 C    1.657    40 C    1.170    60 H    0.975
    40   6 C    3.916 --     2 C    1.362    41 N    1.229    39 C    1.170
    41   7 N    3.243 --    37 C    1.241    40 C    1.229     1 Cu   0.504
    42   1 H    1.001 --     2 C    0.971
    43   1 H    0.997 --     4 C    0.975
    44   1 H    1.004 --     5 C    0.973
    45   1 H    1.004 --    10 C    0.972
    46   1 H    1.005 --    11 C    0.968
    47   1 H    1.010 --    13 C    0.942
    48   1 H    1.000 --    15 C    0.971
    49   1 H    1.004 --    16 C    0.972
    50   1 H    1.004 --    18 C    0.973
    51   1 H    1.002 --    19 C    0.974
    52   1 H    1.002 --    24 C    0.974
    53   1 H    1.004 --    25 C    0.973
    54   1 H    1.004 --    30 C    0.972
    55   1 H    1.000 --    31 C    0.971
    56   1 H    1.010 --    33 C    0.942
    57   1 H    1.005 --    35 C    0.968
    58   1 H    1.004 --    36 C    0.972
    59   1 H    1.004 --    38 C    0.973
    60   1 H    0.997 --    39 C    0.975
    61  29 Cu   2.182 --   101 N    0.504    67 N    0.504    80 N    0.502
                            87 N    0.501
    62   6 C    3.930 --   100 C    1.362    63 C    1.362   102 H    0.971
    63   6 C    3.916 --    62 C    1.362    67 N    1.229    64 C    1.170
    64   6 C    3.955 --    65 C    1.657    63 C    1.170   103 H    0.975
    65   6 C    3.958 --    64 C    1.657    66 C    1.171   104 H    0.973
    66   6 C    3.913 --    68 C    1.317    67 N    1.240    65 C    1.171
    67   7 N    3.243 --    66 C    1.240    63 C    1.229    61 Cu   0.504
    68   6 C    3.933 --    77 C    1.325    66 C    1.317    69 C    1.030
    69   6 C    3.986 --    76 C    1.384    70 C    1.381    68 C    1.030
    70   6 C    3.987 --    71 C    1.471    69 C    1.381   105 H    0.972
    71   6 C    3.988 --    70 C    1.471    72 C    1.370   106 H    0.968
                            76 C    0.100
    72   6 C    3.983 --    75 C    1.378    71 C    1.370    73 C    1.049
    73   6 C    3.864 --    74 O    1.808    72 C    1.049   107 H    0.942
    74   8 O    2.004 --    73 C    1.808
    75   6 C    3.993 --    76 C    1.465    72 C    1.378   108 H    0.971
    76   6 C    3.988 --    75 C    1.465    69 C    1.384   109 H    0.972
                            71 C    0.100
    77   6 C    3.907 --    68 C    1.325    80 N    1.223    78 C    1.178
    78   6 C    3.954 --    79 C    1.644    77 C    1.178   110 H    0.973
    79   6 C    3.956 --    78 C    1.644    81 C    1.186   111 H    0.974
    80   7 N    3.248 --    81 C    1.256    77 C    1.223    61 Cu   0.502
    81   6 C    3.897 --    82 C    1.261    80 N    1.256    79 C    1.186
    82   6 C    3.940 --    83 C    1.262    81 C    1.261   124 C    1.184
    83   6 C    3.897 --    82 C    1.262    87 N    1.256    84 C    1.186
    84   6 C    3.956 --    85 C    1.644    83 C    1.186   112 H    0.974
    85   6 C    3.954 --    84 C    1.644    86 C    1.178   113 H    0.973
    86   6 C    3.907 --    88 C    1.324    87 N    1.224    85 C    1.178
    87   7 N    3.248 --    83 C    1.256    86 C    1.224    61 Cu   0.501
    88   6 C    3.933 --    86 C    1.324    97 C    1.317    89 C    1.032
    89   6 C    3.986 --    90 C    1.383    96 C    1.381    88 C    1.032
    90   6 C    3.987 --    91 C    1.466    89 C    1.383   114 H    0.972
                            95 C    0.100
    91   6 C    3.993 --    90 C    1.466    92 C    1.378   115 H    0.971
    92   6 C    3.983 --    91 C    1.378    95 C    1.369    93 C    1.050
    93   6 C    3.864 --    94 O    1.808    92 C    1.050   116 H    0.942
    94   8 O    2.004 --    93 C    1.808
    95   6 C    3.988 --    96 C    1.471    92 C    1.369   117 H    0.968
                            90 C    0.100
    96   6 C    3.987 --    95 C    1.471    89 C    1.381   118 H    0.972
    97   6 C    3.913 --    88 C    1.317   101 N    1.241    98 C    1.171
    98   6 C    3.958 --    99 C    1.657    97 C    1.171   119 H    0.973
    99   6 C    3.955 --    98 C    1.657   100 C    1.170   120 H    0.975
   100   6 C    3.916 --    62 C    1.362   101 N    1.229    99 C    1.170
   101   7 N    3.243 --    97 C    1.241   100 C    1.229    61 Cu   0.504
   102   1 H    1.001 --    62 C    0.971
   103   1 H    0.997 --    64 C    0.975
   104   1 H    1.004 --    65 C    0.973
   105   1 H    1.004 --    70 C    0.972
   106   1 H    1.005 --    71 C    0.968
   107   1 H    1.010 --    73 C    0.942
   108   1 H    1.000 --    75 C    0.971
   109   1 H    1.004 --    76 C    0.972
   110   1 H    1.004 --    78 C    0.973
   111   1 H    1.002 --    79 C    0.974
   112   1 H    1.002 --    84 C    0.974
   113   1 H    1.004 --    85 C    0.973
   114   1 H    1.004 --    90 C    0.972
   115   1 H    1.000 --    91 C    0.971
   116   1 H    1.010 --    93 C    0.942
   117   1 H    1.005 --    95 C    0.968
   118   1 H    1.004 --    96 C    0.972
   119   1 H    1.004 --    98 C    0.973
   120   1 H    0.997 --    99 C    0.975
   121   6 C    3.937 --   122 C    2.483   123 C    1.304
   122   6 C    3.927 --   121 C    2.483    22 C    1.184   124 C    0.200
   123   6 C    3.937 --   124 C    2.483   121 C    1.304
   124   6 C    3.927 --   123 C    2.483    82 C    1.184   122 C    0.200
 ---------------------------------------------------------------------------

           -------------------------------------------------
          | TOTAL ENERGY             -225.857712713361 Eh   |
          | GRADIENT NORM               0.000945420149 Eh/α |
          | HOMO-LUMO GAP               0.000053081079 eV   |
           -------------------------------------------------

 * finished run on 2022/07/30 at 06:14:38.553
