   * xtb version 6.4.1 (bd6e46d) compiled by 'conda@4901f00b25ba' on 2021-06-10
          program call               : xtb Fe_TPP.xyz --gfn 2 --opt
          number of atoms            :                    77
          number of electrons        :                   232
          charge                     :                     0
          spin                       :                   0.0

   ID    Z sym.   atoms
    1   26 Fe     1
    2    6 C      2-23, 25-34, 36-47
    3    7 N      24, 35, 48, 49
    4    1 H      50-77

          :  Hamiltonian                  GFN2-xTB          :
 * total energy  :  -123.3053385 Eh     change       -0.6012584E-08 Eh
 * total energy  :  -123.3496318 Eh     change       -0.4429337E-01 Eh
 * total energy  :  -123.3719393 Eh     change       -0.2230746E-01 Eh
 * total energy  :  -123.3776432 Eh     change       -0.5703943E-02 Eh
 * total energy  :  -123.3811179 Eh     change       -0.3474712E-02 Eh
 * total energy  :  -123.3823466 Eh     change       -0.1228662E-02 Eh
 * total energy  :  -123.3829138 Eh     change       -0.5671882E-03 Eh
 * total energy  :  -123.3834188 Eh     change       -0.5049991E-03 Eh
 * total energy  :  -123.3839989 Eh     change       -0.5801052E-03 Eh
 * total energy  :  -123.3847151 Eh     change       -0.7161515E-03 Eh
 * total energy  :  -123.3863162 Eh     change       -0.1459124E-04 Eh
 * total energy  :  -123.3863313 Eh     change       -0.1508014E-04 Eh
 * total energy  :  -123.3863386 Eh     change       -0.7281492E-05 Eh
 * total energy  :  -123.3863512 Eh     change       -0.1263360E-04 Eh
 * total energy  :  -123.3863624 Eh     change       -0.1120369E-04 Eh
 * total energy  :  -123.3863749 Eh     change       -0.1241633E-04 Eh
 * total energy  :  -123.3863878 Eh     change       -0.1298994E-04 Eh
 * total energy  :  -123.3863945 Eh     change       -0.6709371E-05 Eh
 * total energy  :  -123.3863966 Eh     change       -0.2081527E-05 Eh
   *** GEOMETRY OPTIMIZATION CONVERGED AFTER 30 ITERATIONS ***

 final structure:
================
77
 xtb: 6.4.1 (bd6e46d)
Fe       -0.09032540513725    0.16927196423313    0.01610331130403
C        -3.37409083753464    0.62198291874681    0.09006448580830
C        -4.84105612041902    0.82336750622515    0.12431753509768
C        -5.47739590589476    1.54744617921781   -0.87887187573719
C        -6.84796577702835    1.73090955265178   -0.84884547298808
C        -7.59874258214485    1.19956725579915    0.18650100148009
C        -6.97250485295232    0.48044305839857    1.19081037433667
C        -5.60291533978003    0.29000722674831    1.15902573908382
C        -2.90970931745332   -0.67836807415580   -0.07432888761830
C        -3.78573589558587   -1.79499950474604   -0.29214030320366
C        -3.01281969447657   -2.90459429890364   -0.31165445060799
C        -1.66544985763825   -2.46540985512501   -0.10377490929071
C        -0.56874731146453   -3.30886868342268    0.02720824427049
C        -0.76938554988582   -4.76890990928847    0.02757618929136
C        -0.14073255034242   -5.56908526828157   -0.92249205740419
C        -0.33296389498408   -6.93850205480668   -0.92385566083840
C        -1.15018880346629   -7.52816977879252    0.02612341080474
C        -1.77679643231601   -6.74025858629259    0.97721952527052
C        -1.59075106634698   -5.37000687901365    0.97740630850076
C         0.71458469404675   -2.79245310274592    0.16107534573520
C         1.89109119481137   -3.57792308040994    0.38538738266325
C         2.93457338178485   -2.71759091170935    0.37778625491348
C         2.39500771662416   -1.40738157397898    0.14546150140777
N         1.02905703413734   -1.46684141328341    0.06250626138794
C         3.19408955709366   -0.28240937715478   -0.02462703073761
C         4.66226051987751   -0.47779382620307   -0.02899615901663
C         5.27690063778662   -1.21178730653463   -1.03830885241767
C         6.64917589313209   -1.38532321788796   -1.04180284419745
C         7.42323114111654   -0.83411948613534   -0.03436544727882
C         6.81861090094017   -0.10520288146025    0.97613672949529
C         5.44740597942429    0.07528901986318    0.97773653777153
C         2.72279149397958    1.01517162633034   -0.19235513419832
C         3.58937764535881    2.12777397679740   -0.46207682837707
C         2.81566817204393    3.23695819805504   -0.47122240478574
N         1.42597919360599    1.44161306226126   -0.08391061676755
C         1.47771686075667    2.80166742044262   -0.20311590863997
C         0.38719347563157    3.64725746297680   -0.03906743888651
C         0.58687589241507    5.10691095097481   -0.07319797493752
C         1.45135328282571    5.72563857013890    0.82572187630659
C         1.63925351509345    7.09515297730607    0.78829053065507
C         0.97096825788527    7.86464375027700   -0.14944443220261
C         0.10943038131341    7.25751431208767   -1.04790995331967
C        -0.08429973687836    5.88890889604725   -1.00929854427212
C        -0.88911791170954    3.13264287568199    0.15549031745956
C        -2.05588841700574    3.92086795794430    0.41715197594054
C        -3.09908081514064    3.06100481699101    0.45756618369939
C        -2.56869583381474    1.74816740043223    0.21909719568740
N        -1.20690344544499    1.80600442705913    0.08476652972497
N        -1.60949201332147   -1.10370546701715   -0.00841010042033
H        -4.88979993934678    1.95869469889629   -1.68682010614005
H        -7.33216715069772    2.29059568142357   -1.63588310069587
H        -8.66862861168548    1.34522795705129    0.21047506127577
H        -7.55364742460896    0.06577454768023    2.00163090162709
H        -5.11177421449586   -0.26888571751211    1.94235273461656
H        -4.84787776306668   -1.72546910537935   -0.42284292888209
H        -3.31229186549151   -3.92313561792353   -0.46260034613430
H         0.48947518172789   -5.10703865951533   -1.66848883087009
H         0.15616382652628   -7.54851991297776   -1.66939712702135
H        -1.29819812129730   -8.59798719580879    0.02531578571904
H        -2.41298782836943   -7.19571948478365    1.72223439357873
H        -2.07185181403330   -4.75541337112386    1.72436482635012
H         1.90277877914797   -4.63906011147266    0.53975575630108
H         3.97428542585975   -2.93631441379067    0.52339256603679
H         4.67138278425458   -1.63805768102161   -1.82496586788770
H         7.11665180000067   -1.95253447515965   -1.83355597863831
H         8.49442435293427   -0.97185940354477   -0.03686444280842
H         7.41782880941446    0.32505925918859    1.76540503325868
H         4.97291653366203    0.64233476942314    1.76546956984811
H         4.64565364062321    2.05582727421384   -0.63283287019820
H         3.10852640046509    4.25258236817663   -0.65178146577422
H         1.96526222984638    5.12567559671449    1.56266378080396
H         2.30976017292067    7.56446306324754    1.49354597803091
H         1.12113103450373    8.93371853672868   -0.18002602085037
H        -0.41258319566509    7.85302220626403   -1.78279188872138
H        -0.74871890764433    5.41285696729584   -1.71571886807455
H        -2.06135116262828    4.98345977992962    0.56153347805846
H        -4.13246242637663    3.28169861744391    0.64045951724109

          :  Hamiltonian                  GFN2-xTB          :
         :: total energy            -123.386396632188 Eh    ::
         :: gradient norm              0.000180496052 Eh/a0 ::
         :: HOMO-LUMO gap              0.218572427439 eV    ::
         :: SCC energy              -125.616813239811 Eh    ::
         :: -> dispersion             -0.112437123745 Eh    ::
         :: repulsion energy           2.230999058800 Eh    ::

    * Orbital Energies and Occupations

         #    Occupation            Energy/Eh            Energy/eV
      -------------------------------------------------------------
         1        2.0000           -0.6624858             -18.0272
       ...           ...                  ...                  ...
       104        2.0000           -0.4032910             -10.9741
       105        2.0000           -0.4019444             -10.9375
       106        2.0000           -0.3953155             -10.7571
       107        2.0000           -0.3945357             -10.7359
       108        2.0000           -0.3944353             -10.7331
       109        2.0000           -0.3930729             -10.6961
       110        2.0000           -0.3930321             -10.6949
       111        2.0000           -0.3923723             -10.6770
       112        2.0000           -0.3587369              -9.7617
       113        2.0000           -0.3519745              -9.5777
       114        2.0000           -0.3339175              -9.0864
       115        2.0000           -0.3321817              -9.0391
       116        1.9712           -0.3240211              -8.8171 (HOMO)
       117        0.0288           -0.3159888              -8.5985 (LUMO)
       118                         -0.2860645              -7.7842
       119                         -0.2849857              -7.7549
       120                         -0.2509712              -6.8293
       121                         -0.2240736              -6.0974
       122                         -0.2228110              -6.0630
       123                         -0.2227733              -6.0620
       124                         -0.2227679              -6.0618
       125                         -0.2226093              -6.0575
       126                         -0.2219688              -6.0401
       127                         -0.2212579              -6.0207
       ...                                ...                  ...
       229                          1.1614422              31.6045
      -------------------------------------------------------------
                  HL-Gap            0.0080324 Eh            0.2186 eV

     #   Z          covCN         q      C6AA      α(0)
     1  26 Fe       3.101     0.548     5.154     7.324
     2   6 C        2.962    -0.018    28.461     8.751
     3   6 C        2.984     0.018    27.612     8.620
     4   6 C        2.924    -0.032    28.791     8.799
     5   6 C        2.919    -0.030    28.739     8.791
     6   6 C        2.920    -0.032    28.788     8.799
     7   6 C        2.919    -0.030    28.739     8.791
     8   6 C        2.924    -0.032    28.792     8.799
     9   6 C        3.158     0.060    26.354     8.393
    10   6 C        3.023    -0.054    29.306     8.880
    11   6 C        3.013    -0.056    29.360     8.888
    12   6 C        3.167     0.065    26.211     8.366
    13   6 C        2.963    -0.016    28.416     8.744
    14   6 C        2.980     0.017    27.633     8.623
    15   6 C        2.925    -0.032    28.793     8.800
    16   6 C        2.919    -0.029    28.736     8.791
    17   6 C        2.920    -0.031    28.780     8.797
    18   6 C        2.919    -0.029    28.736     8.791
    19   6 C        2.925    -0.032    28.794     8.800
    20   6 C        3.167     0.065    26.211     8.366
    21   6 C        3.013    -0.056    29.359     8.888
    22   6 C        3.023    -0.054    29.307     8.880
    23   6 C        3.157     0.060    26.354     8.394
    24   7 N        2.641    -0.217    25.727     7.533
    25   6 C        2.962    -0.018    28.461     8.751
    26   6 C        2.984     0.018    27.612     8.620
    27   6 C        2.924    -0.032    28.792     8.799
    28   6 C        2.919    -0.030    28.739     8.791
    29   6 C        2.920    -0.032    28.788     8.799
    30   6 C        2.919    -0.030    28.738     8.791
    31   6 C        2.925    -0.032    28.791     8.799
    32   6 C        3.158     0.060    26.352     8.393
    33   6 C        3.024    -0.054    29.306     8.880
    34   6 C        3.013    -0.056    29.361     8.888
    35   7 N        2.642    -0.216    25.722     7.532
    36   6 C        3.167     0.065    26.211     8.366
    37   6 C        2.963    -0.016    28.415     8.743
    38   6 C        2.980     0.017    27.633     8.623
    39   6 C        2.925    -0.032    28.794     8.800
    40   6 C        2.919    -0.029    28.736     8.791
    41   6 C        2.920    -0.031    28.780     8.797
    42   6 C        2.919    -0.029    28.736     8.791
    43   6 C        2.925    -0.032    28.793     8.800
    44   6 C        3.167     0.065    26.210     8.366
    45   6 C        3.013    -0.056    29.359     8.888
    46   6 C        3.024    -0.054    29.306     8.880
    47   6 C        3.158     0.060    26.353     8.393
    48   7 N        2.641    -0.216    25.725     7.533
    49   7 N        2.641    -0.216    25.724     7.533
    50   1 H        0.926     0.032     2.553     2.499
    51   1 H        0.926     0.032     2.562     2.503
    52   1 H        0.926     0.031     2.575     2.509
    53   1 H        0.926     0.032     2.562     2.503
    54   1 H        0.926     0.032     2.553     2.499
    55   1 H        0.926     0.029     2.605     2.524
    56   1 H        0.926     0.029     2.596     2.519
    57   1 H        0.926     0.033     2.541     2.493
    58   1 H        0.926     0.032     2.562     2.503
    59   1 H        0.926     0.031     2.573     2.508
    60   1 H        0.926     0.032     2.562     2.503
    61   1 H        0.926     0.033     2.540     2.492
    62   1 H        0.926     0.029     2.597     2.520
    63   1 H        0.926     0.029     2.603     2.523
    64   1 H        0.926     0.032     2.552     2.498
    65   1 H        0.926     0.032     2.562     2.503
    66   1 H        0.926     0.031     2.574     2.509
    67   1 H        0.926     0.032     2.562     2.503
    68   1 H        0.926     0.032     2.554     2.499
    69   1 H        0.926     0.029     2.606     2.524
    70   1 H        0.926     0.029     2.595     2.519
    71   1 H        0.926     0.033     2.539     2.492
    72   1 H        0.926     0.032     2.562     2.503
    73   1 H        0.926     0.031     2.573     2.508
    74   1 H        0.926     0.032     2.562     2.503
    75   1 H        0.926     0.033     2.540     2.492
    76   1 H        0.926     0.029     2.597     2.520
    77   1 H        0.926     0.029     2.604     2.524

Wiberg/Mayer (AO) data.
largest (>0.10) Wiberg bond orders for each atom

     #   Z sym  total        # sym  WBO       # sym  WBO       # sym  WBO
 ---------------------------------------------------------------------------
     1  26 Fe   3.297 --    35 N    0.662    49 N    0.662    48 N    0.662
                            24 N    0.662
     2   6 C    3.941 --    47 C    1.321     9 C    1.320     3 C    1.019
     3   6 C    3.988 --     8 C    1.396     4 C    1.396     2 C    1.019
                             6 C    0.109
     4   6 C    3.985 --     5 C    1.447     3 C    1.396    50 H    0.970
                             7 C    0.110
     5   6 C    3.991 --     4 C    1.447     6 C    1.437    51 H    0.971
                             8 C    0.110
     6   6 C    3.988 --     7 C    1.437     5 C    1.437    52 H    0.972
                             3 C    0.109
     7   6 C    3.991 --     8 C    1.447     6 C    1.437    53 H    0.971
                             4 C    0.110
     8   6 C    3.985 --     7 C    1.447     3 C    1.396    54 H    0.970
                             5 C    0.110
     9   6 C    3.941 --     2 C    1.320    49 N    1.224    10 C    1.173
    10   6 C    3.962 --    11 C    1.648     9 C    1.173    55 H    0.970
    11   6 C    3.963 --    10 C    1.648    12 C    1.175    56 H    0.971
    12   6 C    3.942 --    13 C    1.314    49 N    1.236    11 C    1.175
    13   6 C    3.941 --    12 C    1.314    20 C    1.313    14 C    1.033
    14   6 C    3.988 --    15 C    1.391    19 C    1.391    13 C    1.033
                            17 C    0.107
    15   6 C    3.983 --    16 C    1.449    14 C    1.391    57 H    0.970
                            18 C    0.109
    16   6 C    3.991 --    15 C    1.449    17 C    1.436    58 H    0.970
                            19 C    0.109
    17   6 C    3.985 --    16 C    1.436    18 C    1.435    59 H    0.972
                            14 C    0.107
    18   6 C    3.991 --    19 C    1.449    17 C    1.435    60 H    0.970
                            15 C    0.109
    19   6 C    3.983 --    18 C    1.449    14 C    1.391    61 H    0.970
                            16 C    0.109
    20   6 C    3.942 --    13 C    1.313    24 N    1.237    21 C    1.175
    21   6 C    3.963 --    22 C    1.648    20 C    1.175    62 H    0.971
    22   6 C    3.962 --    21 C    1.648    23 C    1.173    63 H    0.970
    23   6 C    3.941 --    25 C    1.321    24 N    1.224    22 C    1.173
    24   7 N    3.410 --    20 C    1.237    23 C    1.224     1 Fe   0.662
    25   6 C    3.941 --    23 C    1.321    32 C    1.320    26 C    1.019
    26   6 C    3.988 --    27 C    1.396    31 C    1.396    25 C    1.019
                            29 C    0.109
    27   6 C    3.985 --    28 C    1.447    26 C    1.396    64 H    0.970
                            30 C    0.110
    28   6 C    3.991 --    27 C    1.447    29 C    1.437    65 H    0.971
                            31 C    0.110
    29   6 C    3.988 --    28 C    1.437    30 C    1.436    66 H    0.972
                            26 C    0.109
    30   6 C    3.991 --    31 C    1.447    29 C    1.436    67 H    0.970
                            27 C    0.110
    31   6 C    3.985 --    30 C    1.447    26 C    1.396    68 H    0.970
                            28 C    0.110
    32   6 C    3.941 --    25 C    1.320    35 N    1.224    33 C    1.173
    33   6 C    3.962 --    34 C    1.648    32 C    1.173    69 H    0.970
    34   6 C    3.963 --    33 C    1.648    36 C    1.175    70 H    0.970
    35   7 N    3.410 --    36 C    1.236    32 C    1.224     1 Fe   0.662
    36   6 C    3.942 --    37 C    1.314    35 N    1.236    34 C    1.175
    37   6 C    3.941 --    36 C    1.314    44 C    1.313    38 C    1.033
    38   6 C    3.988 --    39 C    1.391    43 C    1.391    37 C    1.033
                            41 C    0.107
    39   6 C    3.983 --    40 C    1.449    38 C    1.391    71 H    0.970
                            42 C    0.109
    40   6 C    3.991 --    39 C    1.449    41 C    1.436    72 H    0.970
                            43 C    0.109
    41   6 C    3.985 --    40 C    1.436    42 C    1.435    73 H    0.972
                            38 C    0.107
    42   6 C    3.991 --    43 C    1.449    41 C    1.435    74 H    0.970
                            39 C    0.109
    43   6 C    3.983 --    42 C    1.449    38 C    1.391    75 H    0.970
                            40 C    0.109
    44   6 C    3.942 --    37 C    1.313    48 N    1.237    45 C    1.175
    45   6 C    3.963 --    46 C    1.648    44 C    1.175    76 H    0.971
    46   6 C    3.962 --    45 C    1.648    47 C    1.173    77 H    0.970
    47   6 C    3.941 --     2 C    1.321    48 N    1.224    46 C    1.173
    48   7 N    3.410 --    44 C    1.237    47 C    1.224     1 Fe   0.662
    49   7 N    3.410 --    12 C    1.236     9 C    1.224     1 Fe   0.662
    50   1 H    0.999 --     4 C    0.970
    51   1 H    0.998 --     5 C    0.971
    52   1 H    0.999 --     6 C    0.972
    53   1 H    0.998 --     7 C    0.971
    54   1 H    0.999 --     8 C    0.970
    55   1 H    0.998 --    10 C    0.970
    56   1 H    0.998 --    11 C    0.971
    57   1 H    0.999 --    15 C    0.970
    58   1 H    0.998 --    16 C    0.970
    59   1 H    0.999 --    17 C    0.972
    60   1 H    0.998 --    18 C    0.970
    61   1 H    0.999 --    19 C    0.970
    62   1 H    0.998 --    21 C    0.971
    63   1 H    0.998 --    22 C    0.970
    64   1 H    0.999 --    27 C    0.970
    65   1 H    0.998 --    28 C    0.971
    66   1 H    0.999 --    29 C    0.972
    67   1 H    0.998 --    30 C    0.970
    68   1 H    0.999 --    31 C    0.970
    69   1 H    0.998 --    33 C    0.970
    70   1 H    0.998 --    34 C    0.970
    71   1 H    0.999 --    39 C    0.970
    72   1 H    0.998 --    40 C    0.970
    73   1 H    0.999 --    41 C    0.972
    74   1 H    0.998 --    42 C    0.970
    75   1 H    0.999 --    43 C    0.970
    76   1 H    0.998 --    45 C    0.971
    77   1 H    0.998 --    46 C    0.970
 ---------------------------------------------------------------------------

molecular dipole:
                 x           y           z       tot (Debye)
 q only:        0.000       0.001       0.000
   full:        0.001       0.001       0.002       0.006

           -------------------------------------------------
          | TOTAL ENERGY             -123.386396632188 Eh   |
          | GRADIENT NORM               0.000180496052 Eh/α |
          | HOMO-LUMO GAP               0.218572427439 eV   |
           -------------------------------------------------

 * finished run on 2022/07/26 at 11:21:39.594
