   * xtb version 6.5.1 (b24c23e) compiled by 'conda@728c89f4b128' on 2022-07-12
          program call               : xtb Zn_H_C6_3.xyz --gfn 1 --opt -T 48

   ID    Z sym.   atoms
    1   30 Zn     1, 37, 85
    2    6 C      2-6, 8-11, 13-18, 20-24, 38-42, 44-47, 49-54, 56-60, 73-84,
                  86-90, 92-95, 97-102, 104-108
    3    7 N      7, 12, 19, 25, 43, 48, 55, 61, 91, 96, 103, 109
    4    1 H      26-36, 62-72, 110-119

          :  Hamiltonian                  GFN1-xTB          :
 * total energy  :  -208.9997677 Eh     change       -0.7192114E-09 Eh
 * total energy  :  -209.2582034 Eh     change       -0.2584356E+00 Eh
 * total energy  :  -209.3463494 Eh     change       -0.8814603E-01 Eh
 * total energy  :  -209.3802429 Eh     change       -0.3389351E-01 Eh
 * total energy  :  -209.3975518 Eh     change       -0.1730885E-01 Eh
 * total energy  :  -209.4177022 Eh     change       -0.2015041E-01 Eh
 * total energy  :  -209.4442047 Eh     change       -0.2650254E-01 Eh
 * total energy  :  -209.4750246 Eh     change       -0.3081990E-01 Eh
 * total energy  :  -209.5104840 Eh     change       -0.3545935E-01 Eh
 * total energy  :  -209.5457679 Eh     change       -0.3528391E-01 Eh
 * total energy  :  -209.8215445 Eh     change       -0.4194646E-04 Eh
 * total energy  :  -209.8215767 Eh     change       -0.3217675E-04 Eh
 * total energy  :  -209.8216016 Eh     change       -0.2483894E-04 Eh
 * total energy  :  -209.8216206 Eh     change       -0.1907545E-04 Eh
 * total energy  :  -209.8216351 Eh     change       -0.1444976E-04 Eh
 * total energy  :  -209.8216461 Eh     change       -0.1097407E-04 Eh
 * total energy  :  -209.8216539 Eh     change       -0.7887442E-05 Eh
 * total energy  :  -209.8216591 Eh     change       -0.5145565E-05 Eh
 * total energy  :  -209.8216595 Eh     change       -0.4116456E-06 Eh
   *** GEOMETRY OPTIMIZATION CONVERGED AFTER 68 ITERATIONS ***

 final structure:
================
119
 xtb: 6.5.1 (b24c23e)
Zn          13.54811612241295       -0.02074510368099       -0.01716834664570
C           10.12017986660353       -0.03669651728368       -0.03725371429715
C           10.75351561301129       -0.91199403862494       -0.91286959495245
C           10.09046192729107       -1.81387346201139       -1.81666665494151
C           11.05784113441861       -2.48690234831059       -2.48881146091261
C           12.32288542016011       -2.00395544039702       -2.00349547337832
N           12.10326202454632       -1.05257446765805       -1.05155456290054
C           13.57206546510800       -2.43718878107359       -2.43519744477198
C           14.81135784305640       -1.99373748572398       -1.98996748460870
C           16.08137696412152       -2.46872019854557       -2.46392238292940
C           17.03919846994002       -1.78863313226790       -1.78327918296236
N           15.02046585967398       -1.03733933910514       -1.03307402416253
C           16.36321695722751       -0.89264094359840       -0.88756646922909
C           17.00191800849704       -0.00302532330541        0.00144805906834
C           16.34475941416500        0.87931613956281        0.88408622768109
C           17.00185933211487        1.78158913500806        1.78748654025078
C           16.02983253763216        2.45112285479504        2.45840899431423
C           14.76989691805695        1.96375795052990        1.97025120420359
N           14.99908794912286        1.01012414730571        1.01522627621466
C           13.52135899558087        2.39480870975172        2.40166915377797
C           12.28140096238127        1.95001330410852        1.95534978286486
C           11.00630961325868        2.42100324811343        2.42592899670507
C           10.05316588348668        1.73949898911569        1.74209002414279
C           10.73510338788112        0.84416242950114        0.84587564485738
N           12.08177403316516        0.99705134830068        1.00058620770291
H            9.03461343020545       -0.04166489090410       -0.04366319437049
H            9.02011892117908       -1.90938586864725       -1.91397125628361
H           10.93957211645711       -3.24479968559259       -3.24764116825418
H           13.58033125236289       -3.20471733463975       -3.20311764776521
H           16.21153313184913       -3.22601334922080       -3.22117564141373
H           18.11040974473521       -1.87801560569968       -1.87200282903623
H           18.07110883922194        1.88174914606159        1.88773699631217
H           16.14403078706924        3.20902205076146        3.21763220849597
H           13.51343151616049        3.16184823794734        3.17008381453427
H           10.87208950974330        3.17742750215869        3.18357351405389
H            8.98091224515496        1.82518002878410        1.82669992770153
Zn          45.72579176052096        0.00335297106993       -0.00961451998072
C           49.15343376779990        0.04018436493264       -0.01225847529915
C           48.51599127367450        1.27527050488536       -0.05851040980850
C           49.17478162286709        2.55339009094105       -0.10719841358939
C           48.20425927863442        3.50075249609384       -0.14019103941182
C           46.94146178605845        2.81243809947958       -0.11196122190990
N           47.16559894459343        1.46820867395517       -0.06331326899952
C           45.69030147010206        3.41960801589978       -0.12956070351791
C           44.45315911835677        2.78743607529241       -0.10298065247736
C           43.18081661848565        3.45395446476158       -0.12180271633778
C           42.22626727168085        2.48927933542458       -0.08675636036107
N           44.24873100493993        1.43480559665218       -0.05635185291195
C           42.90648031080313        1.22513793251811       -0.04642918682593
C           42.27239414676314       -0.03382146558128       -0.00891764026238
C           42.93318065449455       -1.27880829471726        0.02931146705783
C           42.28030299691233       -2.55720256541446        0.07155801911312
C           43.25541245105526       -3.50110138145890        0.10706228605644
C           44.51316361763117       -2.80741773421495        0.08632561417234
N           44.27966279692903       -1.45956282220475        0.03870326796987
C           45.76370340791438       -3.41276068478408        0.11183742508444
C           47.00151171566582       -2.77884240793314        0.09199022130841
C           48.27885698433856       -3.43985650184212        0.11871003112841
C           49.22877120747214       -2.47190585860692        0.08354997632166
C           48.54263693767111       -1.20824937979837        0.03523563781410
N           47.19669466123879       -1.43013391883625        0.04230603475139
H           50.23896798819794        0.05180311709572       -0.01311665202180
H           50.24466398981774        2.69312635380971       -0.11459638195405
H           48.31893962234313        4.57288994391931       -0.18008979431619
H           45.67830724785195        4.50461306218000       -0.16797339756899
H           43.04709729104057        4.52386369308129       -0.15761908793927
H           41.15464234400464        2.61165216734597       -0.08827524800894
H           41.21151668047001       -2.70238184130167        0.07408895162570
H           43.14479176636183       -4.57360085312955        0.14428753639307
H           45.77517067328600       -4.49774226756649        0.15124001187226
H           48.41663772798179       -4.50925307656621        0.15906432748927
H           50.30142113128534       -2.58861793709119        0.08930526675893
C           22.20418354803131        0.01299449462159        0.00913105552577
C           20.97557690590988        0.01212394211148        0.01045127093009
C           19.63111016874393        0.00865993015520        0.00974974009357
C           18.40694667497642        0.00443670889061        0.00737934304435
C           23.54854527495156        0.01154809957762        0.00678178834446
C           24.77285176604632        0.00843222436050        0.00341557681896
C           38.29739216434455       -0.05817022668588       -0.01219237437278
C           37.06915709826595       -0.05819136359386       -0.01313374051469
C           35.72405808779039       -0.05505942082544       -0.01307916280536
C           34.50006588906772       -0.05023401701545       -0.01271068411110
C           39.64263120018574       -0.05396845705839       -0.01057024930280
C           40.86643633987448       -0.04748620452432       -0.00938612814190
Zn          29.63610135701179       -0.01873437713387       -0.00714868215399
C           26.17734845218530        0.00194007755008       -0.00054062878540
C           26.83385791364122        0.94193972989096        0.82128456959943
C           26.17596562903830        1.90435436937118        1.65875141640994
C           27.14764806274603        2.61973037710510        2.28185060882438
C           28.40700274747991        2.09959036227631        1.82967864429902
N           28.17950462882333        1.08129601378496        0.94387379974110
C           29.65585716345247        2.56005629852803        2.22892501875395
C           30.89755948957458        2.08884533123892        1.81981189714858
C           32.16482843249575        2.59861267436784        2.26173120187896
C           33.12547625966838        1.87216581399757        1.63448773116473
N           31.10934074949500        1.06631992883473        0.93520006367532
C           32.45293304871458        0.91296669133331        0.80484032058362
C           33.09468806173659       -0.04151271564200       -0.01133425222920
C           32.43857933141187       -0.98720507447386       -0.82621048528160
C           33.09649668493869       -1.95469629025066       -1.65794513700341
C           32.12488712000470       -2.66784293611390       -2.28357489055882
C           30.86547827121860       -2.14159765966647       -1.83847183424962
N           31.09277922193474       -1.12263242505699       -0.95362403464085
C           29.61667506160435       -2.59615099726999       -2.24481361080623
C           28.37497171960363       -2.12019815997814       -1.84144404047067
C           27.10780183649073       -2.62461091206872       -2.28954937051629
C           26.14710024420942       -1.89844532175625       -1.66193501101277
C           26.81958026488187       -0.94484682190648       -0.82595695591586
N           28.16299046709775       -1.10000809397042       -0.95395244286634
H           25.10663787653117        2.01101638319700        1.75087083773591
H           27.03286362291137        3.42891190983436        2.98602358686950
H           29.66223075679870        3.38013629149506        2.94064662301002
H           32.29197247240948        3.40870736924773        2.96272247404691
H           34.19634378505038        1.96869035982973        1.71956297880697
H           34.16581690979125       -2.06531353781055       -1.74538213747667
H           32.23967340965119       -3.47906846719900       -2.98539454216123
H           29.61046491274492       -3.41564106581251       -2.95721678408166
H           26.98067592001587       -3.43154545440955       -2.99417909936228
H           25.07624953010303       -1.99222125513217       -1.75024535909002

          :  Hamiltonian                  GFN1-xTB          :
         :: total energy            -209.821659505901 Eh    ::
         :: gradient norm              0.000171364412 Eh/a0 ::
         :: HOMO-LUMO gap              1.004302304201 eV    ::
         :: SCC energy              -213.392838460089 Eh    ::
         :: repulsion energy           3.671915768524 Eh    ::

    * Orbital Energies and Occupations

         #    Occupation            Energy/Eh            Energy/eV
      -------------------------------------------------------------
         1        2.0000           -0.7597784             -20.6746
       ...           ...                  ...                  ...
       181        2.0000           -0.4201252             -11.4322
       182        2.0000           -0.4195749             -11.4172
       183        2.0000           -0.4194735             -11.4145
       184        2.0000           -0.4183234             -11.3832
       185        2.0000           -0.4124864             -11.2243
       186        2.0000           -0.4096216             -11.1464
       187        2.0000           -0.4092426             -11.1361
       188        2.0000           -0.3931955             -10.6994
       189        2.0000           -0.3921309             -10.6704
       190        2.0000           -0.3920514             -10.6683
       191        2.0000           -0.3881632             -10.5625
       192        2.0000           -0.3822221             -10.4008
       193        2.0000           -0.3753623             -10.2141 (HOMO)
       194                         -0.3384549              -9.2098 (LUMO)
       195                         -0.3298888              -8.9767
       196                         -0.3253677              -8.8537
       197                         -0.3245459              -8.8313
       198                         -0.3244633              -8.8291
       199                         -0.3244248              -8.8280
       200                         -0.3007969              -8.1851
       201                         -0.2921918              -7.9509
       202                         -0.2891347              -7.8678
       203                         -0.2810675              -7.6482
       204                         -0.2754949              -7.4966
       ...                                ...                  ...
       412                          1.5819644              43.0474
      -------------------------------------------------------------
                  HL-Gap            0.0369074 Eh            1.0043 eV

Wiberg/Mayer (AO) data.
largest (>0.10) Wiberg bond orders for each atom

     #   Z sym  total        # sym  WBO       # sym  WBO       # sym  WBO
 ---------------------------------------------------------------------------
     1  30 Zn   1.997 --    25 N    0.460     7 N    0.460    12 N    0.456
                            19 N    0.456
     2   6 C    3.932 --    24 C    1.358     3 C    1.358    26 H    0.972
     3   6 C    3.922 --     2 C    1.358     7 N    1.238     4 C    1.166
     4   6 C    3.960 --     5 C    1.665     3 C    1.166    27 H    0.976
     5   6 C    3.963 --     4 C    1.665     6 C    1.167    28 H    0.976
     6   6 C    3.919 --     8 C    1.354     7 N    1.239     5 C    1.167
     7   7 N    3.297 --     6 C    1.239     3 C    1.238     1 Zn   0.460
     8   6 C    3.939 --     9 C    1.366     6 C    1.354    29 H    0.971
     9   6 C    3.914 --     8 C    1.366    12 N    1.219    10 C    1.173
    10   6 C    3.959 --    11 C    1.653     9 C    1.173    30 H    0.976
    11   6 C    3.962 --    10 C    1.653    13 C    1.181    31 H    0.974
    12   7 N    3.300 --    13 C    1.269     9 C    1.219     1 Zn   0.456
    13   6 C    3.902 --    12 N    1.269    14 C    1.253    11 C    1.181
    14   6 C    3.943 --    15 C    1.254    13 C    1.253    76 C    1.193
    15   6 C    3.902 --    19 N    1.269    14 C    1.254    16 C    1.181
    16   6 C    3.962 --    17 C    1.653    15 C    1.181    32 H    0.974
    17   6 C    3.959 --    16 C    1.653    18 C    1.173    33 H    0.976
    18   6 C    3.914 --    20 C    1.366    19 N    1.219    17 C    1.173
    19   7 N    3.300 --    15 C    1.269    18 C    1.219     1 Zn   0.456
    20   6 C    3.939 --    18 C    1.366    21 C    1.354    34 H    0.971
    21   6 C    3.919 --    20 C    1.354    25 N    1.239    22 C    1.167
    22   6 C    3.963 --    23 C    1.665    21 C    1.167    35 H    0.976
    23   6 C    3.960 --    22 C    1.665    24 C    1.166    36 H    0.976
    24   6 C    3.922 --     2 C    1.358    25 N    1.238    23 C    1.166
    25   7 N    3.297 --    21 C    1.239    24 C    1.238     1 Zn   0.460
    26   1 H    1.001 --     2 C    0.972
    27   1 H    0.998 --     4 C    0.976
    28   1 H    0.998 --     5 C    0.976
    29   1 H    1.002 --     8 C    0.971
    30   1 H    0.998 --    10 C    0.976
    31   1 H    1.002 --    11 C    0.974
    32   1 H    1.002 --    16 C    0.974
    33   1 H    0.998 --    17 C    0.976
    34   1 H    1.002 --    20 C    0.971
    35   1 H    0.998 --    22 C    0.976
    36   1 H    0.998 --    23 C    0.976
    37  30 Zn   1.997 --    61 N    0.461    43 N    0.460    48 N    0.456
                            55 N    0.456
    38   6 C    3.933 --    60 C    1.358    39 C    1.358    62 H    0.972
    39   6 C    3.922 --    38 C    1.358    43 N    1.238    40 C    1.166
    40   6 C    3.960 --    41 C    1.665    39 C    1.166    63 H    0.976
    41   6 C    3.963 --    40 C    1.665    42 C    1.167    64 H    0.976
    42   6 C    3.919 --    44 C    1.354    43 N    1.239    41 C    1.167
    43   7 N    3.298 --    42 C    1.239    39 C    1.238    37 Zn   0.460
    44   6 C    3.939 --    45 C    1.365    42 C    1.354    65 H    0.971
    45   6 C    3.914 --    44 C    1.365    48 N    1.220    46 C    1.172
    46   6 C    3.959 --    47 C    1.654    45 C    1.172    66 H    0.976
    47   6 C    3.962 --    46 C    1.654    49 C    1.180    67 H    0.974
    48   7 N    3.300 --    49 C    1.268    45 C    1.220    37 Zn   0.456
    49   6 C    3.903 --    48 N    1.268    50 C    1.255    47 C    1.180
    50   6 C    3.944 --    51 C    1.256    49 C    1.255    84 C    1.189
    51   6 C    3.903 --    55 N    1.268    50 C    1.256    52 C    1.180
    52   6 C    3.962 --    53 C    1.654    51 C    1.180    68 H    0.974
    53   6 C    3.959 --    52 C    1.654    54 C    1.172    69 H    0.976
    54   6 C    3.914 --    56 C    1.365    55 N    1.220    53 C    1.172
    55   7 N    3.300 --    51 C    1.268    54 C    1.220    37 Zn   0.456
    56   6 C    3.939 --    54 C    1.365    57 C    1.354    70 H    0.971
    57   6 C    3.919 --    56 C    1.354    61 N    1.239    58 C    1.167
    58   6 C    3.963 --    59 C    1.665    57 C    1.167    71 H    0.976
    59   6 C    3.960 --    58 C    1.665    60 C    1.166    72 H    0.976
    60   6 C    3.922 --    38 C    1.358    61 N    1.238    59 C    1.166
    61   7 N    3.298 --    57 C    1.239    60 C    1.238    37 Zn   0.461
    62   1 H    1.001 --    38 C    0.972
    63   1 H    0.998 --    40 C    0.976
    64   1 H    0.998 --    41 C    0.976
    65   1 H    1.002 --    44 C    0.971
    66   1 H    0.998 --    46 C    0.976
    67   1 H    1.002 --    47 C    0.974
    68   1 H    1.002 --    52 C    0.974
    69   1 H    0.998 --    53 C    0.976
    70   1 H    1.002 --    56 C    0.971
    71   1 H    0.998 --    58 C    0.976
    72   1 H    0.998 --    59 C    0.976
    73   6 C    3.926 --    74 C    2.367    77 C    1.336    76 C    0.190
    74   6 C    3.925 --    73 C    2.367    75 C    1.336    78 C    0.190
    75   6 C    3.935 --    76 C    2.448    74 C    1.336
    76   6 C    3.890 --    75 C    2.448    14 C    1.193    73 C    0.190
    77   6 C    3.932 --    78 C    2.446    73 C    1.336
    78   6 C    3.891 --    77 C    2.446    86 C    1.195    74 C    0.190
    79   6 C    3.923 --    80 C    2.371    83 C    1.332    82 C    0.190
    80   6 C    3.925 --    79 C    2.371    81 C    1.332    84 C    0.190
    81   6 C    3.932 --    82 C    2.450    80 C    1.332
    82   6 C    3.890 --    81 C    2.450    98 C    1.191    79 C    0.190
    83   6 C    3.935 --    84 C    2.452    79 C    1.332
    84   6 C    3.889 --    83 C    2.452    50 C    1.189    80 C    0.190
    85  30 Zn   1.994 --   109 N    0.457    96 N    0.457    91 N    0.457
                           103 N    0.457
    86   6 C    3.932 --    87 C    1.251   108 C    1.251    78 C    1.195
    87   6 C    3.902 --    91 N    1.269    86 C    1.251    88 C    1.183
    88   6 C    3.960 --    89 C    1.650    87 C    1.183   110 H    0.974
    89   6 C    3.959 --    88 C    1.650    90 C    1.176   111 H    0.976
    90   6 C    3.912 --    92 C    1.361    91 N    1.219    89 C    1.176
    91   7 N    3.295 --    87 C    1.269    90 C    1.219    85 Zn   0.457
    92   6 C    3.934 --    90 C    1.361    93 C    1.360   112 H    0.971
    93   6 C    3.912 --    92 C    1.360    96 N    1.220    94 C    1.175
    94   6 C    3.960 --    95 C    1.650    93 C    1.175   113 H    0.976
    95   6 C    3.960 --    94 C    1.650    97 C    1.182   114 H    0.974
    96   7 N    3.295 --    97 C    1.268    93 C    1.220    85 Zn   0.457
    97   6 C    3.903 --    96 N    1.268    98 C    1.253    95 C    1.182
    98   6 C    3.932 --    99 C    1.253    97 C    1.253    82 C    1.191
    99   6 C    3.903 --   103 N    1.268    98 C    1.253   100 C    1.182
   100   6 C    3.960 --   101 C    1.650    99 C    1.182   115 H    0.974
   101   6 C    3.960 --   100 C    1.650   102 C    1.175   116 H    0.976
   102   6 C    3.912 --   104 C    1.360   103 N    1.220   101 C    1.175
   103   7 N    3.294 --    99 C    1.268   102 C    1.220    85 Zn   0.457
   104   6 C    3.934 --   105 C    1.361   102 C    1.360   117 H    0.971
   105   6 C    3.912 --   104 C    1.361   109 N    1.219   106 C    1.176
   106   6 C    3.959 --   107 C    1.650   105 C    1.176   118 H    0.976
   107   6 C    3.960 --   106 C    1.650   108 C    1.183   119 H    0.974
   108   6 C    3.902 --   109 N    1.269    86 C    1.251   107 C    1.183
   109   7 N    3.295 --   108 C    1.269   105 C    1.219    85 Zn   0.457
   110   1 H    1.002 --    88 C    0.974
   111   1 H    0.998 --    89 C    0.976
   112   1 H    1.002 --    92 C    0.971
   113   1 H    0.998 --    94 C    0.976
   114   1 H    1.002 --    95 C    0.974
   115   1 H    1.002 --   100 C    0.974
   116   1 H    0.998 --   101 C    0.976
   117   1 H    1.002 --   104 C    0.971
   118   1 H    0.998 --   106 C    0.976
   119   1 H    1.002 --   107 C    0.974
 ---------------------------------------------------------------------------

           -------------------------------------------------
          | TOTAL ENERGY             -209.821659505901 Eh   |
          | GRADIENT NORM               0.000171364412 Eh/α |
          | HOMO-LUMO GAP               1.004302304201 eV   |
           -------------------------------------------------

 * finished run on 2022/07/30 at 07:01:19.365
