   * xtb version 6.5.1 (b24c23e) compiled by 'conda@728c89f4b128' on 2022-07-12
          program call               : xtb Zn_DHP_C6_3.xyz --gfn 1 --opt -T 48

   ID    Z sym.   atoms
    1   30 Zn     1, 59, 129
    2    6 C      2-6, 8-11, 13-17, 19-24, 26-29, 31-36, 60-64, 66-69, 71-75,
                  77-82, 84-87, 89-94, 117-128, 130-134, 136-139, 141-145,
                  147-152, 154-157, 159-164
    3    7 N      7, 12, 18, 25, 30, 37, 65, 70, 76, 83, 88, 95, 135, 140,
                  146, 153, 158, 165
    4    1 H      38-58, 96-116, 166-185
########################################################################
[WARNING] Please study the warnings concerning your input carefully
-1- prog_main_parseArguments: Unknown option '-T' provided
########################################################################

          :  Hamiltonian                  GFN1-xTB          :
 * total energy  :  -307.6985167 Eh     change       -0.5742322E-09 Eh
 * total energy  :  -307.9163520 Eh     change       -0.2178354E+00 Eh
 * total energy  :  -308.0736670 Eh     change       -0.1573150E+00 Eh
 * total energy  :  -308.1534830 Eh     change       -0.7981598E-01 Eh
 * total energy  :  -308.2073190 Eh     change       -0.5383600E-01 Eh
 * total energy  :  -308.2520178 Eh     change       -0.4469883E-01 Eh
 * total energy  :  -308.2919606 Eh     change       -0.3994282E-01 Eh
 * total energy  :  -308.3208770 Eh     change       -0.2891640E-01 Eh
 * total energy  :  -308.3409629 Eh     change       -0.2008591E-01 Eh
 * total energy  :  -308.3567502 Eh     change       -0.1578723E-01 Eh
 * total energy  :  -308.4481056 Eh     change       -0.2011154E-04 Eh
 * total energy  :  -308.4481218 Eh     change       -0.1624564E-04 Eh
 * total energy  :  -308.4481337 Eh     change       -0.1189483E-04 Eh
 * total energy  :  -308.4481443 Eh     change       -0.1060549E-04 Eh
 * total energy  :  -308.4481532 Eh     change       -0.8867245E-05 Eh
 * total energy  :  -308.4481602 Eh     change       -0.6946306E-05 Eh
 * total energy  :  -308.4481657 Eh     change       -0.5513339E-05 Eh
 * total energy  :  -308.4481729 Eh     change       -0.7279689E-05 Eh
 * total energy  :  -308.4481777 Eh     change       -0.4705434E-05 Eh
   *** GEOMETRY OPTIMIZATION CONVERGED AFTER 89 ITERATIONS ***

 final structure:
================
185
 xtb: 6.5.1 (b24c23e)
Zn          25.25107479941974        0.34119269965372        0.20773509659966
C           21.84400669120987        0.21559538414854        0.12125639123724
C           22.50827676453702       -1.00484200807766        0.08971873272509
C           21.87051422563089       -2.29085622304071        0.05336811406561
C           22.85660412427354       -3.22244572551029        0.03175558851594
C           24.11039442223201       -2.51628005875105        0.04409105264851
N           23.86293715299934       -1.17502306733391        0.08928666576261
C           25.37892875311154       -3.10922591731357        0.03507113329649
C           25.43814792892005       -4.58998806713596       -0.05286905601219
C           24.95333945823830       -5.25170800948057       -1.11409266220408
C           24.98415482520478       -6.75480897235119       -1.21404699251829
N           25.92692446668290       -7.32986523309547       -0.25091785896509
C           26.23988365841764       -6.65771970426770        0.90262589794227
C           26.05600203535914       -5.33253922672720        1.03683390419056
C           26.59734633857624       -2.42429979062521        0.10113665058204
C           27.89565612019635       -3.03774967480037        0.05573221625716
C           28.81351347574496       -2.04045223253032        0.13125892893233
N           26.75170875860368       -1.06627540213284        0.19155326250746
C           28.08690956594402       -0.80761333774177        0.21455191490621
C           28.68110302448326        0.46718129519592        0.30200380729573
C           27.99275400814810        1.69571374967768        0.35178263923794
C           28.62173841150712        2.97862112574366        0.46805517726677
C           27.63070778211556        3.90613619236569        0.48585388280540
C           26.38525095018538        3.19880104766093        0.37338377508379
N           26.64317608612750        1.85579620040754        0.29986246334745
C           25.11783048380941        3.79162085981362        0.37017058727222
C           25.06504412812387        5.27321866883596        0.44870365921427
C           24.48304410236673        5.90369302583238        1.47958922887784
C           24.40357760263845        7.40562618188723        1.57036590833613
N           25.34215105106648        8.04282605748602        0.64294077235307
C           25.76082902167678        7.38814690925571       -0.48625630601300
C           25.68124907990939        6.05211563835201       -0.61619667335550
C           23.89886270590211        3.10621895741758        0.30028651329176
C           22.59764787612535        3.71813656130707        0.24697402587504
C           21.68489300946367        2.71649619975660        0.18146722559971
C           22.41622532407456        1.48081377703827        0.18242925178914
N           23.75311299056677        1.75007190131548        0.24945780840217
H           20.75926652765079        0.17672548292312        0.09432698769425
H           20.80328522022825       -2.44959647065234        0.05324132183675
H           22.74897171684733       -4.29529059618737        0.02062854402183
H           24.49654540914261       -4.73407153010231       -1.94959326383850
H           25.29895775292435       -7.06120904370878       -2.22072577295466
H           23.97180721552953       -7.16947751337829       -1.04847204262879
H           25.87440991937234       -8.33575787291594       -0.18046037331486
H           26.72411350016591       -7.26172219674795        1.66338861192110
H           26.35502129737422       -4.81009784869595        1.93448414468109
H           28.07914943679329       -4.09670128004698       -0.03040039597922
H           29.88878010791842       -2.12353511778203        0.12484853056230
H           29.68599299987035        3.14055377901612        0.53347103151543
H           27.73134406620484        4.97593980480066        0.57469648908508
H           24.02375986585793        5.35870230607944        2.29614564778263
H           24.65399048893619        7.73710047371320        2.58730708310348
H           23.37227679197813        7.74710828547582        1.36087369050474
H           25.22156321627340        9.04197378666519        0.56177151727165
H           26.23631454748090        8.02128369065399       -1.22866161938266
H           26.06236336916127        5.54747191520210       -1.49265343889577
H           22.41136790019071        4.78019866040017        0.24779399485370
H           20.61018733358933        2.79597241469787        0.12821940603380
Zn          57.32359381113406        0.25402912795279        0.20088308168467
C           60.73236060399879        0.32330433971785        0.14053234445262
C           60.09254338972730        1.53976072162589        0.34737705496144
C           60.75639974480322        2.79427524282732        0.56516087568176
C           59.78957533153458        3.73317795488795        0.72160571996170
C           58.52184003338655        3.06532450958442        0.59026234022142
N           58.74162212695806        1.73563110442381        0.37507033969364
C           57.26581971543753        3.67644961512903        0.68702819960616
C           57.23378358563883        5.14651821733195        0.89108754630237
C           57.74078100261868        5.99625981831407       -0.01434827461645
C           57.73150033237754        7.49001145404512        0.18361391922184
N           56.78566724172335        7.87900864251751        1.23300577561903
C           56.44916806527822        6.99812213041783        2.22835179284405
C           56.61362043465461        5.66977931260323        2.10043301931822
C           56.03350760207454        3.01811226816619        0.61049858379874
C           54.74830912288181        3.65726486114966        0.67090344434611
C           53.81010296261518        2.68303823760023        0.55620460368063
N           55.85131740077537        1.67071169639274        0.44595609848750
C           54.51117540309375        1.44051709228626        0.41579385061684
C           53.89169713862807        0.18201330823295        0.27853512905338
C           54.55530092435613       -1.04836889352491        0.10468109065459
C           53.90041945377588       -2.31772714389120       -0.01676829581083
C           54.87203356146870       -3.25099313939218       -0.18391930497319
C           56.13151321202486       -2.55968815171353       -0.17142224139444
N           55.90124268040412       -1.22229646683953        0.01299675299555
C           57.38622585754482       -3.16597254473987       -0.29912021061385
C           57.40940043386858       -4.63516600187232       -0.51139123704188
C           57.98454408138672       -5.46594285732353        0.37066641212282
C           58.03870664178592       -6.95725329260523        0.16224084770608
N           57.08110301609889       -7.38406981929753       -0.86146719808828
C           56.66972081597874       -6.51313723675565       -1.83716881063222
C           56.77372384643567       -5.17925610180357       -1.70321070641675
C           58.61924174891008       -2.50459737027147       -0.24292004405781
C           59.90786743264574       -3.12057554932042       -0.41867813927660
C           60.84100457487682       -2.14416789001465       -0.29010443080964
C           60.13505785997879       -0.91769490235129       -0.04665838997967
N           58.79287125931162       -1.16769850412482       -0.03017909437685
H           61.81777057289452        0.34495792903643        0.12253526932294
H           61.82660437719419        2.92684211131715        0.60051507169638
H           59.91854354788590        4.78514076532019        0.92024387433953
H           58.19943906561598        5.64629002588407       -0.93186117709157
H           57.43208848483857        7.99314123927264       -0.74573611781810
H           58.74728312018306        7.84857034953916        0.43606655213348
H           56.84973989287401        8.85070484161055        1.49993888792356
H           55.96362869185018        7.44788559580487        3.08861447455884
H           56.29596473704323        4.98541045016724        2.87429023677129
H           54.58667434979911        4.71766383329031        0.77982344859059
H           52.73696261491416        2.78973343060287        0.55940978251695
H           52.83315010591406       -2.46733622404919        0.02573018820265
H           54.74996019948065       -4.31609780681693       -0.29887534546018
H           58.45760888738442       -5.10017078114261        1.27460231179224
H           57.79162793779762       -7.47957633907393        1.09639099823356
H           59.06213049433483       -7.26598543503213       -0.12314407063978
H           57.18429377444807       -8.34926540459577       -1.13922726269740
H           56.17873427823625       -6.97989538359580       -2.68518230568738
H           56.39807747268633       -4.50591419789793       -2.46058617066758
H           60.07271134450428       -4.16596721661419       -0.62525453050001
H           61.91393400301878       -2.23383001654474       -0.36054702828481
C           33.87921334246944        0.65058208450659        0.45598295384109
C           32.65214517679368        0.61371603644182        0.42143450263737
C           31.30822043687391        0.56775428215680        0.38076433865785
C           30.08608269076840        0.51821508101506        0.34336412140132
C           35.22356412928860        0.67935944989148        0.49445185932040
C           36.44680619201002        0.69753566923829        0.52822360982830
C           49.91869332304205        0.20273331520484        0.41148172156993
C           48.69249263909131        0.25230000826344        0.45685781230085
C           47.34947436493241        0.31788168836886        0.50035226591253
C           46.12840862427051        0.38944783600966        0.53950045778331
C           51.26300162433378        0.17369718224748        0.36405443181552
C           52.48577609621670        0.16008643225854        0.31974995703586
Zn          41.28973545159817        0.62714318575049        0.59562710325338
C           37.85233638585702        0.69744575696631        0.56067247933164
C           38.52007591035894        1.45729796492435       -0.42094485471418
C           37.86880083575607        2.27416003168323       -1.40165287804780
C           38.84440919326757        2.84138485068967       -2.15688077296228
C           40.10146538186756        2.36317572418426       -1.65336127416667
N           39.86722719717743        1.53243875221436       -0.58975408276031
C           41.35944868652335        2.69814446848640       -2.16459197596734
C           41.40066495085592        3.59912734556051       -3.34415905190176
C           40.86849420975659        3.24418317240353       -4.52303121162792
C           40.94764745894913        4.12318278118828       -5.74367963560008
N           41.29512521953250        5.50036020210439       -5.38376494776488
C           41.97782844453160        5.77064474172063       -4.22644884399944
C           42.03778835326744        4.90049816227018       -3.20301796022527
C           42.58970468569119        2.25446169646659       -1.66704493979461
C           43.87023870921303        2.54967808683419       -2.24569658426019
C           44.80620115107170        1.92082715824369       -1.48904929344842
N           42.76996768427718        1.44643699275478       -0.57653210193111
C           44.10682850221499        1.23425047493446       -0.44355439043717
C           44.72495120704805        0.47026478625760        0.56655197004946
C           44.05925118368624       -0.21225774765917        1.60452192666766
C           44.71467565597310       -0.92188810248450        2.66253095617001
C           43.74154937836484       -1.42595677793188        3.46443285612389
C           42.48076343303203       -1.04296749987844        2.89318539209102
N           42.71181982163227       -0.29473269453764        1.76942649798228
C           41.22248787764962       -1.37514523780913        3.40746989864334
C           41.18411194804529       -2.21771166715244        4.62922482539369
C           41.68320878433067       -3.46234174629946        4.64928988357620
C           41.66983049428915       -4.31838280820050        5.88932440145396
N           40.72083116349581       -3.80227412420339        6.87903311701454
C           40.39320603611916       -2.47048660746217        6.89710117065109
C           40.56495789980410       -1.67199043804809        5.82927377822124
C           39.99080178245699       -0.98345989687332        2.87067027593868
C           38.70595802266979       -1.38997594620076        3.36675292732035
C           37.76881710995925       -0.82176623681600        2.56536795541979
C           38.47112618807940       -0.06378230360517        1.57238290515179
N           39.81092447222909       -0.18256177054422        1.77470926109598
H           36.80135099326275        2.40101794966305       -1.48875193991845
H           38.72598118766615        3.52950167611392       -2.97832914646703
H           40.41574418743684        2.27113946423960       -4.67435544818290
H           41.68910167892846        3.71895222692423       -6.45842777621989
H           39.97789020652565        4.14151496730373       -6.25958871964733
H           41.50801044191856        6.08871164584172       -6.17623576308611
H           42.39321241794259        6.77174058243337       -4.16808123015627
H           42.51551724344564        5.16182076464945       -2.26939712928253
H           44.02995805014065        3.15185238416606       -3.12586769192048
H           45.87628477602579        1.91526643123297       -1.62309834096265
H           45.78345578319604       -1.00885705534094        2.77783479203696
H           43.86619200333030       -1.99823162292592        4.36950667498189
H           42.13968349885141       -3.90911327396892        3.77377199063304
H           42.68397092882977       -4.37104487231472        6.32767248390085
H           41.37175049146279       -5.34470898135490        5.63778245650953
H           40.78660308050534       -4.25543245382827        7.77918079274121
H           39.90632803856557       -2.13441866382017        7.80716034717116
H           40.25247837970777       -0.63738916141632        5.84290558709833
H           38.54383271506369       -2.03601940799108        4.21452601520593
H           36.69575309655387       -0.90492886286024        2.63355787841258

          :  Hamiltonian                  GFN1-xTB          :
         :: total energy            -308.448177659499 Eh    ::
         :: gradient norm              0.000705813848 Eh/a0 ::
         :: HOMO-LUMO gap              0.980940869899 eV    ::
         :: SCC energy              -313.445066371810 Eh    ::
         :: repulsion energy           5.158127689905 Eh    ::

    * Orbital Energies and Occupations

         #    Occupation            Energy/Eh            Energy/eV
      -------------------------------------------------------------
         1        2.0000           -0.7776644             -21.1613
       ...           ...                  ...                  ...
       271        2.0000           -0.3997586             -10.8780
       272        2.0000           -0.3849255             -10.4744
       273        2.0000           -0.3843466             -10.4586
       274        2.0000           -0.3840566             -10.4507
       275        2.0000           -0.3755992             -10.2206
       276        2.0000           -0.3734780             -10.1629
       277        2.0000           -0.3702811             -10.0759
       278        2.0000           -0.3675511             -10.0016
       279        2.0000           -0.3675350             -10.0011
       280        2.0000           -0.3672804              -9.9942
       281        2.0000           -0.3661320              -9.9630
       282        2.0000           -0.3656836              -9.9508
       283        2.0000           -0.3643119              -9.9134 (HOMO)
       284                         -0.3282630              -8.9325 (LUMO)
       285                         -0.3220055              -8.7622
       286                         -0.3194432              -8.6925
       287                         -0.3165574              -8.6140
       288                         -0.3163208              -8.6075
       289                         -0.3160230              -8.5994
       290                         -0.2938644              -7.9965
       291                         -0.2863531              -7.7921
       292                         -0.2856754              -7.7736
       293                         -0.2666682              -7.2564
       294                         -0.2654507              -7.2233
       ...                                ...                  ...
       616                          1.5899678              43.2652
      -------------------------------------------------------------
                  HL-Gap            0.0360489 Eh            0.9809 eV

Wiberg/Mayer (AO) data.
largest (>0.10) Wiberg bond orders for each atom

     #   Z sym  total        # sym  WBO       # sym  WBO       # sym  WBO
 ---------------------------------------------------------------------------
     1  30 Zn   2.001 --    37 N    0.460     7 N    0.459    18 N    0.458
                            25 N    0.457
     2   6 C    3.926 --     3 C    1.357    36 C    1.356    38 H    0.972
     3   6 C    3.924 --     2 C    1.357     7 N    1.234     4 C    1.172
     4   6 C    3.961 --     5 C    1.657     3 C    1.172    39 H    0.976
     5   6 C    3.964 --     4 C    1.657     6 C    1.173    40 H    0.974
     6   6 C    3.918 --     8 C    1.314     7 N    1.243     5 C    1.173
     7   7 N    3.294 --     6 C    1.243     3 C    1.234     1 Zn   0.459
     8   6 C    3.935 --    15 C    1.323     6 C    1.314     9 C    1.025
     9   6 C    3.988 --    10 C    1.769    14 C    1.097     8 C    1.025
    10   6 C    3.971 --     9 C    1.769    11 C    1.012    41 H    0.972
    11   6 C    3.961 --    10 C    1.012    42 H    0.976    43 H    0.967
                            12 N    0.949
    12   7 N    3.246 --    13 C    1.159    11 C    0.949    44 H    0.928
                            14 C    0.127
    13   6 C    3.958 --    14 C    1.693    12 N    1.159    45 H    0.971
    14   6 C    3.968 --    13 C    1.693     9 C    1.097    46 H    0.974
                            12 N    0.127
    15   6 C    3.912 --     8 C    1.323    18 N    1.225    16 C    1.180
    16   6 C    3.961 --    17 C    1.646    15 C    1.180    47 H    0.972
    17   6 C    3.962 --    16 C    1.646    19 C    1.186    48 H    0.974
    18   7 N    3.298 --    19 C    1.261    15 C    1.225     1 Zn   0.458
    19   6 C    3.903 --    18 N    1.261    20 C    1.255    17 C    1.186
    20   6 C    3.939 --    19 C    1.255    21 C    1.255   120 C    1.187
    21   6 C    3.903 --    25 N    1.262    20 C    1.255    22 C    1.186
    22   6 C    3.962 --    23 C    1.646    21 C    1.186    49 H    0.974
    23   6 C    3.961 --    22 C    1.646    24 C    1.180    50 H    0.973
    24   6 C    3.912 --    26 C    1.323    25 N    1.225    23 C    1.180
    25   7 N    3.298 --    21 C    1.262    24 C    1.225     1 Zn   0.457
    26   6 C    3.935 --    24 C    1.323    33 C    1.315    27 C    1.025
    27   6 C    3.988 --    28 C    1.769    32 C    1.098    26 C    1.025
    28   6 C    3.971 --    27 C    1.769    29 C    1.012    51 H    0.972
    29   6 C    3.961 --    28 C    1.012    52 H    0.976    53 H    0.967
                            30 N    0.949
    30   7 N    3.248 --    31 C    1.160    29 C    0.949    54 H    0.928
                            32 C    0.128
    31   6 C    3.958 --    32 C    1.692    30 N    1.160    55 H    0.971
    32   6 C    3.968 --    31 C    1.692    27 C    1.098    56 H    0.974
                            30 N    0.128
    33   6 C    3.918 --    26 C    1.315    37 N    1.243    34 C    1.174
    34   6 C    3.964 --    35 C    1.656    33 C    1.174    57 H    0.974
    35   6 C    3.961 --    34 C    1.656    36 C    1.172    58 H    0.976
    36   6 C    3.924 --     2 C    1.356    37 N    1.233    35 C    1.172
    37   7 N    3.294 --    33 C    1.243    36 C    1.233     1 Zn   0.460
    38   1 H    1.002 --     2 C    0.972
    39   1 H    0.999 --     4 C    0.976
    40   1 H    1.007 --     5 C    0.974
    41   1 H    1.003 --    10 C    0.972
    42   1 H    1.019 --    11 C    0.976
    43   1 H    1.008 --    11 C    0.967
    44   1 H    0.964 --    12 N    0.928
    45   1 H    1.002 --    13 C    0.971
    46   1 H    1.003 --    14 C    0.974
    47   1 H    1.006 --    16 C    0.972
    48   1 H    1.002 --    17 C    0.974
    49   1 H    1.002 --    22 C    0.974
    50   1 H    1.006 --    23 C    0.973
    51   1 H    1.003 --    28 C    0.972
    52   1 H    1.019 --    29 C    0.976
    53   1 H    1.008 --    29 C    0.967
    54   1 H    0.964 --    30 N    0.928
    55   1 H    1.001 --    31 C    0.971
    56   1 H    1.003 --    32 C    0.974
    57   1 H    1.007 --    34 C    0.974
    58   1 H    0.999 --    35 C    0.976
    59  30 Zn   2.001 --    95 N    0.460    65 N    0.460    76 N    0.458
                            83 N    0.457
    60   6 C    3.926 --    94 C    1.357    61 C    1.356    96 H    0.972
    61   6 C    3.924 --    60 C    1.356    65 N    1.234    62 C    1.172
    62   6 C    3.961 --    63 C    1.657    61 C    1.172    97 H    0.976
    63   6 C    3.964 --    62 C    1.657    64 C    1.174    98 H    0.974
    64   6 C    3.918 --    66 C    1.314    65 N    1.243    63 C    1.174
    65   7 N    3.294 --    64 C    1.243    61 C    1.234    59 Zn   0.460
    66   6 C    3.935 --    73 C    1.323    64 C    1.314    67 C    1.025
    67   6 C    3.988 --    68 C    1.769    72 C    1.097    66 C    1.025
    68   6 C    3.971 --    67 C    1.769    69 C    1.012    99 H    0.972
    69   6 C    3.961 --    68 C    1.012   100 H    0.976   101 H    0.967
                            70 N    0.949
    70   7 N    3.247 --    71 C    1.159    69 C    0.949   102 H    0.928
                            72 C    0.127
    71   6 C    3.958 --    72 C    1.693    70 N    1.159   103 H    0.971
    72   6 C    3.968 --    71 C    1.693    67 C    1.097   104 H    0.974
                            70 N    0.127
    73   6 C    3.912 --    66 C    1.323    76 N    1.225    74 C    1.180
    74   6 C    3.961 --    75 C    1.646    73 C    1.180   105 H    0.972
    75   6 C    3.962 --    74 C    1.646    77 C    1.186   106 H    0.974
    76   7 N    3.298 --    77 C    1.261    73 C    1.225    59 Zn   0.458
    77   6 C    3.903 --    76 N    1.261    78 C    1.255    75 C    1.186
    78   6 C    3.939 --    79 C    1.257    77 C    1.255   128 C    1.186
    79   6 C    3.904 --    83 N    1.261    78 C    1.257    80 C    1.186
    80   6 C    3.962 --    81 C    1.646    79 C    1.186   107 H    0.974
    81   6 C    3.961 --    80 C    1.646    82 C    1.180   108 H    0.973
    82   6 C    3.912 --    84 C    1.323    83 N    1.226    81 C    1.180
    83   7 N    3.298 --    79 C    1.261    82 C    1.226    59 Zn   0.457
    84   6 C    3.935 --    82 C    1.323    91 C    1.314    85 C    1.025
    85   6 C    3.988 --    86 C    1.769    90 C    1.097    84 C    1.025
    86   6 C    3.971 --    85 C    1.769    87 C    1.012   109 H    0.972
    87   6 C    3.961 --    86 C    1.012   110 H    0.976   111 H    0.967
                            88 N    0.949
    88   7 N    3.247 --    89 C    1.160    87 C    0.949   112 H    0.928
                            90 C    0.127
    89   6 C    3.958 --    90 C    1.693    88 N    1.160   113 H    0.971
    90   6 C    3.968 --    89 C    1.693    85 C    1.097   114 H    0.974
                            88 N    0.127
    91   6 C    3.918 --    84 C    1.314    95 N    1.243    92 C    1.173
    92   6 C    3.964 --    93 C    1.657    91 C    1.173   115 H    0.974
    93   6 C    3.961 --    92 C    1.657    94 C    1.172   116 H    0.976
    94   6 C    3.924 --    60 C    1.357    95 N    1.233    93 C    1.172
    95   7 N    3.294 --    91 C    1.243    94 C    1.233    59 Zn   0.460
    96   1 H    1.002 --    60 C    0.972
    97   1 H    0.999 --    62 C    0.976
    98   1 H    1.007 --    63 C    0.974
    99   1 H    1.003 --    68 C    0.972
   100   1 H    1.019 --    69 C    0.976
   101   1 H    1.008 --    69 C    0.967
   102   1 H    0.964 --    70 N    0.928
   103   1 H    1.001 --    71 C    0.971
   104   1 H    1.003 --    72 C    0.974
   105   1 H    1.006 --    74 C    0.972
   106   1 H    1.003 --    75 C    0.974
   107   1 H    1.002 --    80 C    0.974
   108   1 H    1.006 --    81 C    0.973
   109   1 H    1.004 --    86 C    0.972
   110   1 H    1.019 --    87 C    0.976
   111   1 H    1.008 --    87 C    0.967
   112   1 H    0.964 --    88 N    0.928
   113   1 H    1.001 --    89 C    0.971
   114   1 H    1.003 --    90 C    0.974
   115   1 H    1.007 --    92 C    0.974
   116   1 H    0.999 --    93 C    0.976
   117   6 C    3.924 --   118 C    2.372   121 C    1.331   120 C    0.189
   118   6 C    3.922 --   117 C    2.372   119 C    1.330   122 C    0.189
   119   6 C    3.933 --   120 C    2.453   118 C    1.330
   120   6 C    3.888 --   119 C    2.453    20 C    1.187   117 C    0.189
   121   6 C    3.931 --   122 C    2.451   117 C    1.331
   122   6 C    3.889 --   121 C    2.451   130 C    1.189   118 C    0.189
   123   6 C    3.922 --   124 C    2.373   127 C    1.329   126 C    0.189
   124   6 C    3.923 --   123 C    2.373   125 C    1.330   128 C    0.189
   125   6 C    3.930 --   126 C    2.451   124 C    1.330
   126   6 C    3.889 --   125 C    2.451   148 C    1.189   123 C    0.189
   127   6 C    3.933 --   128 C    2.454   123 C    1.329
   128   6 C    3.888 --   127 C    2.454    78 C    1.186   124 C    0.189
   129  30 Zn   1.997 --   165 N    0.458   146 N    0.458   135 N    0.456
                           153 N    0.456
   130   6 C    3.927 --   164 C    1.254   131 C    1.252   122 C    1.189
   131   6 C    3.905 --   135 N    1.263   130 C    1.252   132 C    1.188
   132   6 C    3.961 --   133 C    1.643   131 C    1.188   166 H    0.974
   133   6 C    3.961 --   132 C    1.643   134 C    1.182   167 H    0.974
   134   6 C    3.911 --   136 C    1.321   135 N    1.224   133 C    1.182
   135   7 N    3.292 --   131 C    1.263   134 C    1.224   129 Zn   0.456
   136   6 C    3.931 --   134 C    1.321   143 C    1.318   137 C    1.023
   137   6 C    3.988 --   138 C    1.768   142 C    1.099   136 C    1.023
   138   6 C    3.972 --   137 C    1.768   139 C    1.013   168 H    0.972
   139   6 C    3.961 --   138 C    1.013   170 H    0.975   169 H    0.967
                           140 N    0.949
   140   7 N    3.249 --   141 C    1.161   139 C    0.949   171 H    0.928
                           142 C    0.128
   141   6 C    3.958 --   142 C    1.691   140 N    1.161   172 H    0.971
   142   6 C    3.967 --   141 C    1.691   137 C    1.099   173 H    0.973
                           140 N    0.128
   143   6 C    3.910 --   136 C    1.318   146 N    1.225   144 C    1.183
   144   6 C    3.961 --   145 C    1.643   143 C    1.183   174 H    0.973
   145   6 C    3.960 --   144 C    1.643   147 C    1.188   175 H    0.974
   146   7 N    3.293 --   147 C    1.261   143 C    1.225   129 Zn   0.458
   147   6 C    3.904 --   146 N    1.261   148 C    1.254   145 C    1.188
   148   6 C    3.927 --   147 C    1.254   149 C    1.253   126 C    1.189
   149   6 C    3.906 --   153 N    1.262   148 C    1.253   150 C    1.189
   150   6 C    3.961 --   151 C    1.642   149 C    1.189   176 H    0.974
   151   6 C    3.961 --   150 C    1.642   152 C    1.182   177 H    0.974
   152   6 C    3.911 --   154 C    1.320   153 N    1.225   151 C    1.182
   153   7 N    3.292 --   149 C    1.262   152 C    1.225   129 Zn   0.456
   154   6 C    3.931 --   152 C    1.320   161 C    1.319   155 C    1.025
   155   6 C    3.988 --   156 C    1.769   160 C    1.097   154 C    1.025
   156   6 C    3.971 --   155 C    1.769   157 C    1.012   178 H    0.972
   157   6 C    3.961 --   156 C    1.012   180 H    0.976   179 H    0.966
                           158 N    0.949
   158   7 N    3.245 --   159 C    1.159   157 C    0.949   181 H    0.928
                           160 C    0.127
   159   6 C    3.958 --   160 C    1.694   158 N    1.159   182 H    0.971
   160   6 C    3.968 --   159 C    1.694   155 C    1.097   183 H    0.974
                           158 N    0.127
   161   6 C    3.909 --   154 C    1.319   165 N    1.225   162 C    1.182
   162   6 C    3.961 --   163 C    1.644   161 C    1.182   184 H    0.973
   163   6 C    3.960 --   162 C    1.644   164 C    1.187   185 H    0.974
   164   6 C    3.903 --   165 N    1.261   130 C    1.254   163 C    1.187
   165   7 N    3.293 --   164 C    1.261   161 C    1.225   129 Zn   0.458
   166   1 H    1.002 --   132 C    0.974
   167   1 H    1.008 --   133 C    0.974
   168   1 H    1.003 --   138 C    0.972
   169   1 H    1.009 --   139 C    0.967
   170   1 H    1.018 --   139 C    0.975
   171   1 H    0.964 --   140 N    0.928
   172   1 H    1.002 --   141 C    0.971
   173   1 H    1.004 --   142 C    0.973
   174   1 H    1.006 --   144 C    0.973
   175   1 H    1.002 --   145 C    0.974
   176   1 H    1.002 --   150 C    0.974
   177   1 H    1.007 --   151 C    0.974
   178   1 H    1.004 --   156 C    0.972
   179   1 H    1.008 --   157 C    0.966
   180   1 H    1.019 --   157 C    0.976
   181   1 H    0.964 --   158 N    0.928
   182   1 H    1.001 --   159 C    0.971
   183   1 H    1.003 --   160 C    0.974
   184   1 H    1.006 --   162 C    0.973
   185   1 H    1.002 --   163 C    0.974
 ---------------------------------------------------------------------------

           -------------------------------------------------
          | TOTAL ENERGY             -308.448177659499 Eh   |
          | GRADIENT NORM               0.000705813848 Eh/α |
          | HOMO-LUMO GAP               0.980940869899 eV   |
           -------------------------------------------------

 * finished run on 2022/07/30 at 08:16:50.430
