   * xtb version 6.5.1 (b24c23e) compiled by 'conda@728c89f4b128' on 2022-07-12
          program call               : xtb Cu_Ph_C2_2.xyz --gfn 1 --opt -T 48

   ID    Z sym.   atoms
    1   29 Cu     1, 57
    2    6 C      2-6, 8-11, 13-29, 32-37, 58-62, 64-67, 69-85, 88-93, 113,
                  114
    3    7 N      7, 12, 30, 31, 63, 68, 86, 87
    4    1 H      38-56, 94-112
########################################################################
[WARNING] Please study the warnings concerning your input carefully
-1- prog_main_parseArguments: Unknown option '-T' provided
########################################################################

          :  Hamiltonian                  GFN1-xTB          :
 * total energy  :  -194.3637153 Eh     change       -0.7258649E-08 Eh
 * total energy  :  -194.4390338 Eh     change       -0.7531846E-01 Eh
 * total energy  :  -194.4793042 Eh     change       -0.4027045E-01 Eh
 * total energy  :  -194.4870758 Eh     change       -0.7771582E-02 Eh
 * total energy  :  -194.4919464 Eh     change       -0.4870634E-02 Eh
 * total energy  :  -194.4943192 Eh     change       -0.2372791E-02 Eh
 * total energy  :  -194.4956149 Eh     change       -0.1295711E-02 Eh
 * total energy  :  -194.4963394 Eh     change       -0.7244166E-03 Eh
 * total energy  :  -194.4967928 Eh     change       -0.4534243E-03 Eh
 * total energy  :  -194.4971222 Eh     change       -0.3294017E-03 Eh
 * total energy  :  -194.4989528 Eh     change       -0.2487252E-04 Eh
 * total energy  :  -194.4989820 Eh     change       -0.2916255E-04 Eh
 * total energy  :  -194.4990031 Eh     change       -0.2116161E-04 Eh
 * total energy  :  -194.4990147 Eh     change       -0.1157031E-04 Eh
 * total energy  :  -194.4990245 Eh     change       -0.9835510E-05 Eh
 * total energy  :  -194.4990404 Eh     change       -0.1589608E-04 Eh
 * total energy  :  -194.4990537 Eh     change       -0.1322580E-04 Eh
 * total energy  :  -194.4990640 Eh     change       -0.1035540E-04 Eh
 * total energy  :  -194.4990688 Eh     change       -0.4735958E-05 Eh
   *** GEOMETRY OPTIMIZATION CONVERGED AFTER 44 ITERATIONS ***

 final structure:
================
114
 xtb: 6.5.1 (b24c23e)
Cu          15.30288616358006       -0.05127605671730       -0.00261926269462
C           11.89121465173886       -0.08270014013111       -0.00956394630044
C           12.52716652767146       -1.31380946202292       -0.06264190452085
C           11.85406531055192       -2.58093519786698       -0.09283626434261
C           12.81460926208353       -3.53788716439200       -0.11408265314901
C           14.08403211465591       -2.86266454668009       -0.10398036315417
N           13.87805343361517       -1.51390478251489       -0.06888955921193
C           15.32940101972792       -3.49341298729460       -0.08831873199697
C           16.56174685828480       -2.83953091731000       -0.03583165747211
C           17.83529801451219       -3.49991879764750       -0.04134800398889
C           18.78373266960120       -2.53080673266151       -0.00704182730184
N           16.75753707537743       -1.48340074625677       -0.00858327664498
C           18.10364351805572       -1.27179322316441        0.00601490445724
C           18.74768326587870       -0.02062247152105       -0.00074652497369
C           18.08040546716689        1.21853287025001       -0.00955120366208
C           18.73540184963505        2.48925002349710       -0.07099034971167
C           17.76946347276296        3.44131722999109       -0.04272500329627
C           16.51076672017359        2.75802682469161        0.03952356888890
C           15.26687131208761        3.39113679822779        0.08747901265200
C           15.25813122459721        4.87490886753243        0.13890655535042
C           14.66486230021874        5.61789094243857       -0.88243882171119
C           14.66024214406357        7.00379006239548       -0.82982199821484
C           15.24341670556753        7.66399763219039        0.24314150480951
C           15.83442190698463        6.93201347062957        1.26405689038615
C           15.84442841287102        5.54627910668137        1.21287611084271
C           14.03288445790787        2.73766971849454        0.09070216312965
C           12.75195943947306        3.38507718226348        0.17670527075704
C           11.80954380443640        2.41063899600359        0.14022456026420
C           12.50557360875725        1.15946393522947        0.04403786086882
N           13.85212239022766        1.38624486155316        0.02284283082079
N           16.73166142472323        1.40575291782358        0.04250595327665
C           15.34207048892952       -4.97834424077783       -0.13395419524973
C           14.85356572277487       -5.65147393841029       -1.25426309094538
C           14.86671756948173       -7.03748832125201       -1.30070923477758
C           15.36247638486835       -7.76699749434137       -0.22867746053044
C           15.84719516938071       -7.10440591442111        0.89082605391582
C           15.83981017135109       -5.71829065422783        0.93895186803878
H           10.80617003038568       -0.09245138676515        0.00196836668185
H           10.78280305022230       -2.70749557971207       -0.09074620673933
H           12.68322882315387       -4.60800582413186       -0.12317703127499
H           17.98237491982195       -4.56710308310882       -0.07742943097133
H           19.85312356322621       -2.65302793025740        0.00426031000297
H           19.80032268747385        2.63049156971028       -0.13968769418368
H           17.89468278866705        4.51085920423480       -0.09048387688940
H           14.22094075341944        5.10461355823465       -1.72823071275335
H           14.20017397851575        7.57099802057646       -1.63142987400784
H           15.23772710751279        8.74736989086716        0.28352927313985
H           16.28963496844404        7.44268063545807        2.10547864302005
H           16.29604285377537        4.97580004259506        2.01694349360710
H           12.60060177780842        4.44887136589277        0.26522690741862
H           10.73666218300398        2.51484185358583        0.18136785294723
H           14.47652110596982       -5.08250805207936       -2.09688254991666
H           14.48900500891671       -7.55005427284494       -2.17857040203699
H           15.37066369700340       -8.85048259558685       -0.26549690788535
H           16.23274133855863       -7.66990474447489        1.73200550461873
H           16.20850544744303       -5.20262284863013        1.81875474267354
Cu          26.23659912083654        0.05135685445956        0.00079688480920
C           29.64824690322572        0.08390813248181       -0.00475810375737
C           29.01200554629056        1.31601207491638       -0.00474010156380
C           29.68484324638499        2.58340859713480        0.01946336565440
C           28.72409632474473        3.54020381122841        0.03875618201138
C           27.45482278676656        2.86490123018060        0.01984205795622
N           27.66108916370200        1.51590509257959       -0.00277653821870
C           26.20930433132365        3.49403441981492        0.06298780445254
C           24.97713934623636        2.83810650930004        0.08785323694617
C           23.70340633700590        3.49776170335507        0.11140196487104
C           22.75522828761547        2.52782517573873        0.10431046230356
N           24.78168657665877        1.48202349727758        0.05672024078124
C           23.43563151691800        1.26960555077991        0.06277048768119
C           22.79189660414279        0.01973062340188        0.00181293273401
C           23.45941988311995       -1.21772318809037       -0.06065116971494
C           22.80464142228879       -2.48469328627801       -0.17700589737065
C           23.77074005856109       -3.43693090227713       -0.19002663342555
C           25.02934129973880       -2.75762121161787       -0.07859118779648
C           26.27345450631092       -3.39182410869670       -0.05885922881304
C           26.28297567643636       -4.87638405883886       -0.07265540541301
C           26.87692644761997       -5.57340465880455       -1.12555671836968
C           26.88262060761631       -6.96025254566072       -1.13369121782809
C           26.29988944846508       -7.66739614293220       -0.09081065065970
C           25.70857183414346       -6.98134710655997        0.96136254440660
C           25.69713231089431       -5.59469717666208        0.97071797090997
C           27.50726549231837       -2.73867793027433       -0.02765355086886
C           28.78841456398417       -3.38890901330157        0.02903760008391
C           29.73057261687957       -2.41356035238195        0.03513892885974
C           29.03418650485786       -1.15955886038538       -0.00550516822827
N           27.68767806236501       -1.38555183706585       -0.03597067459221
N           24.80820729643597       -1.40676106704993       -0.01699573941996
C           26.19554254645313        4.97951575931002        0.08183404976325
C           26.68309886010724        5.70150847219830       -1.00802250653706
C           26.66720310145334        7.08822692512258       -0.99427514126929
C           26.16965522537887        7.76962007412850        0.10816074862338
C           25.68624296428878        7.05818387337032        1.19786199303436
C           25.69643690838993        5.67132643529379        1.18581668059962
H           30.73328429999887        0.09335787727926        0.00741337132311
H           30.75608871677933        2.70990729137709        0.02728960367477
H           28.85522579409365        4.60977072592289        0.07515490042412
H           23.55595674924302        4.56545223162411        0.12136795420924
H           21.68582614701240        2.64923158796411        0.12152493350537
H           21.73972955730670       -2.62295117001245       -0.25164109976394
H           23.64562114175973       -4.50343161571359       -0.28391739485743
H           27.32094343567713       -5.02320118789203       -1.94772193191467
H           27.34254800254089       -7.49135442454886       -1.95976314144247
H           26.30653229782196       -8.75148481178454       -0.09815504757845
H           25.25456697429988       -7.52876267668268        1.78006969586014
H           25.24496854200166       -5.06033822859907        1.79892412244235
H           28.94018737554456       -4.45551629319980        0.07047093439230
H           30.80350392824353       -2.51925934944234        0.07086618565612
H           27.06129545633433        5.17043227201083       -1.87452148039474
H           27.04397356156100        7.63915215666507       -1.84899843285482
H           26.15901571010011        8.85366425017803        0.11819964603168
H           25.29938535440021        7.58587079565020        2.06267884536317
H           25.32867371501890        5.11720192794165        2.04231927999895
C           20.16068957419830       -0.00687790488036       -0.00894363640119
C           21.37889181872363        0.00606870682890       -0.00729599235872

          :  Hamiltonian                  GFN1-xTB          :
         :: total energy            -194.499068764318 Eh    ::
         :: gradient norm              0.000417904594 Eh/a0 ::
         :: HOMO-LUMO gap              0.002319891759 eV    ::
         :: SCC energy              -197.557853668242 Eh    ::
         :: repulsion energy           3.163477425992 Eh    ::

    * Orbital Energies and Occupations

         #    Occupation            Energy/Eh            Energy/eV
      -------------------------------------------------------------
         1        2.0000           -0.7620276             -20.7358
       ...           ...                  ...                  ...
       170        2.0000           -0.4100269             -11.1574
       171        2.0000           -0.4099950             -11.1565
       172        2.0000           -0.4068674             -11.0714
       173        2.0000           -0.4068578             -11.0712
       174        2.0000           -0.4066104             -11.0644
       175        2.0000           -0.4065696             -11.0633
       176        2.0000           -0.4065673             -11.0633
       177        2.0000           -0.4065030             -11.0615
       178        2.0000           -0.3938516             -10.7172
       179        2.0000           -0.3938372             -10.7169
       180        2.0000           -0.3931678             -10.6986
       181        2.0000           -0.3784240             -10.2974
       182        1.0224           -0.3539802              -9.6323 (HOMO)
       183        0.9776           -0.3538950              -9.6300 (LUMO)
       184                         -0.3364819              -9.1561
       185                         -0.3259453              -8.8694
       186                         -0.3259363              -8.8692
       187                         -0.3192708              -8.6878
       188                         -0.2943642              -8.0101
       189                         -0.2853823              -7.7656
       190                         -0.2632538              -7.1635
       191                         -0.2632513              -7.1634
       192                         -0.2632300              -7.1629
       193                         -0.2632256              -7.1627
       ...                                ...                  ...
       390                          1.3309670              36.2175
      -------------------------------------------------------------
                  HL-Gap            0.0000853 Eh            0.0023 eV

Wiberg/Mayer (AO) data.
largest (>0.10) Wiberg bond orders for each atom

     #   Z sym  total        # sym  WBO       # sym  WBO       # sym  WBO
 ---------------------------------------------------------------------------
     1  29 Cu   2.187 --    30 N    0.505     7 N    0.505    12 N    0.504
                            31 N    0.503
     2   6 C    3.929 --     3 C    1.361    29 C    1.361    38 H    0.971
     3   6 C    3.917 --     2 C    1.361     7 N    1.230     4 C    1.170
     4   6 C    3.955 --     5 C    1.656     3 C    1.170    39 H    0.976
     5   6 C    3.958 --     4 C    1.656     6 C    1.172    40 H    0.973
     6   6 C    3.914 --     8 C    1.321     7 N    1.238     5 C    1.172
     7   7 N    3.243 --     6 C    1.238     3 C    1.230     1 Cu   0.505
     8   6 C    3.934 --     9 C    1.327     6 C    1.321    32 C    1.023
     9   6 C    3.909 --     8 C    1.327    12 N    1.222    10 C    1.180
    10   6 C    3.954 --    11 C    1.641     9 C    1.180    41 H    0.973
    11   6 C    3.957 --    10 C    1.641    13 C    1.188    42 H    0.963
    12   7 N    3.247 --    13 C    1.254     9 C    1.222     1 Cu   0.504
    13   6 C    3.902 --    14 C    1.264    12 N    1.254    11 C    1.188
    14   6 C    3.940 --    13 C    1.264    15 C    1.263   113 C    1.176
    15   6 C    3.902 --    14 C    1.263    31 N    1.254    16 C    1.189
    16   6 C    3.957 --    17 C    1.640    15 C    1.189    43 H    0.963
    17   6 C    3.954 --    16 C    1.640    18 C    1.180    44 H    0.973
    18   6 C    3.909 --    19 C    1.325    31 N    1.223    17 C    1.180
    19   6 C    3.935 --    18 C    1.325    26 C    1.321    20 C    1.027
    20   6 C    3.988 --    21 C    1.396    25 C    1.395    19 C    1.027
                            23 C    0.108
    21   6 C    3.988 --    22 C    1.447    20 C    1.396    45 H    0.973
                            24 C    0.109
    22   6 C    3.995 --    21 C    1.447    23 C    1.438    46 H    0.973
                            25 C    0.110
    23   6 C    3.990 --    22 C    1.438    24 C    1.437    47 H    0.974
                            20 C    0.108
    24   6 C    3.995 --    25 C    1.448    23 C    1.437    48 H    0.973
                            21 C    0.109
    25   6 C    3.988 --    24 C    1.448    20 C    1.395    49 H    0.973
                            22 C    0.110
    26   6 C    3.914 --    19 C    1.321    30 N    1.238    27 C    1.172
    27   6 C    3.958 --    28 C    1.655    26 C    1.172    50 H    0.973
    28   6 C    3.955 --    27 C    1.655    29 C    1.171    51 H    0.976
    29   6 C    3.917 --     2 C    1.361    30 N    1.230    28 C    1.171
    30   7 N    3.243 --    26 C    1.238    29 C    1.230     1 Cu   0.505
    31   7 N    3.247 --    15 C    1.254    18 C    1.223     1 Cu   0.503
    32   6 C    3.988 --    37 C    1.397    33 C    1.397     8 C    1.023
                            35 C    0.108
    33   6 C    3.988 --    34 C    1.447    32 C    1.397    52 H    0.973
                            36 C    0.110
    34   6 C    3.995 --    33 C    1.447    35 C    1.438    53 H    0.973
                            37 C    0.110
    35   6 C    3.991 --    36 C    1.438    34 C    1.438    54 H    0.974
                            32 C    0.108
    36   6 C    3.995 --    37 C    1.447    35 C    1.438    55 H    0.973
                            33 C    0.110
    37   6 C    3.988 --    36 C    1.447    32 C    1.397    56 H    0.973
                            34 C    0.110
    38   1 H    1.002 --     2 C    0.971
    39   1 H    0.998 --     4 C    0.976
    40   1 H    1.005 --     5 C    0.973
    41   1 H    1.005 --    10 C    0.973
    42   1 H    1.008 --    11 C    0.963
    43   1 H    1.008 --    16 C    0.963
    44   1 H    1.005 --    17 C    0.973
    45   1 H    1.005 --    21 C    0.973
    46   1 H    1.003 --    22 C    0.973
    47   1 H    1.003 --    23 C    0.974
    48   1 H    1.003 --    24 C    0.973
    49   1 H    1.005 --    25 C    0.973
    50   1 H    1.005 --    27 C    0.973
    51   1 H    0.998 --    28 C    0.976
    52   1 H    1.005 --    33 C    0.973
    53   1 H    1.003 --    34 C    0.973
    54   1 H    1.003 --    35 C    0.974
    55   1 H    1.003 --    36 C    0.973
    56   1 H    1.005 --    37 C    0.973
    57  29 Cu   2.187 --    86 N    0.505    63 N    0.505    68 N    0.504
                            87 N    0.503
    58   6 C    3.929 --    59 C    1.361    85 C    1.361    94 H    0.971
    59   6 C    3.917 --    58 C    1.361    63 N    1.230    60 C    1.170
    60   6 C    3.955 --    61 C    1.656    59 C    1.170    95 H    0.976
    61   6 C    3.958 --    60 C    1.656    62 C    1.172    96 H    0.973
    62   6 C    3.914 --    64 C    1.321    63 N    1.238    61 C    1.172
    63   7 N    3.243 --    62 C    1.238    59 C    1.230    57 Cu   0.505
    64   6 C    3.934 --    65 C    1.327    62 C    1.321    88 C    1.023
    65   6 C    3.909 --    64 C    1.327    68 N    1.222    66 C    1.180
    66   6 C    3.954 --    67 C    1.641    65 C    1.180    97 H    0.973
    67   6 C    3.957 --    66 C    1.641    69 C    1.188    98 H    0.963
    68   7 N    3.247 --    69 C    1.254    65 C    1.222    57 Cu   0.504
    69   6 C    3.902 --    70 C    1.264    68 N    1.254    67 C    1.188
    70   6 C    3.940 --    69 C    1.264    71 C    1.263   114 C    1.176
    71   6 C    3.902 --    70 C    1.263    87 N    1.254    72 C    1.189
    72   6 C    3.957 --    73 C    1.640    71 C    1.189    99 H    0.963
    73   6 C    3.954 --    72 C    1.640    74 C    1.180   100 H    0.973
    74   6 C    3.909 --    75 C    1.325    87 N    1.223    73 C    1.180
    75   6 C    3.935 --    74 C    1.325    82 C    1.321    76 C    1.027
    76   6 C    3.988 --    77 C    1.396    81 C    1.395    75 C    1.027
                            79 C    0.108
    77   6 C    3.988 --    78 C    1.447    76 C    1.396   101 H    0.973
                            80 C    0.109
    78   6 C    3.995 --    77 C    1.447    79 C    1.438   102 H    0.973
                            81 C    0.110
    79   6 C    3.990 --    78 C    1.438    80 C    1.437   103 H    0.974
                            76 C    0.108
    80   6 C    3.995 --    81 C    1.448    79 C    1.437   104 H    0.973
                            77 C    0.109
    81   6 C    3.988 --    80 C    1.448    76 C    1.395   105 H    0.973
                            78 C    0.110
    82   6 C    3.914 --    75 C    1.321    86 N    1.238    83 C    1.172
    83   6 C    3.958 --    84 C    1.655    82 C    1.172   106 H    0.973
    84   6 C    3.955 --    83 C    1.655    85 C    1.171   107 H    0.976
    85   6 C    3.917 --    58 C    1.361    86 N    1.230    84 C    1.171
    86   7 N    3.243 --    82 C    1.238    85 C    1.230    57 Cu   0.505
    87   7 N    3.247 --    71 C    1.254    74 C    1.223    57 Cu   0.503
    88   6 C    3.988 --    93 C    1.397    89 C    1.397    64 C    1.023
                            91 C    0.108
    89   6 C    3.988 --    90 C    1.447    88 C    1.397   108 H    0.973
                            92 C    0.110
    90   6 C    3.995 --    89 C    1.447    91 C    1.438   109 H    0.973
                            93 C    0.110
    91   6 C    3.991 --    92 C    1.438    90 C    1.438   110 H    0.974
                            88 C    0.108
    92   6 C    3.995 --    93 C    1.447    91 C    1.438   111 H    0.973
                            89 C    0.110
    93   6 C    3.988 --    92 C    1.447    88 C    1.397   112 H    0.973
                            90 C    0.110
    94   1 H    1.002 --    58 C    0.971
    95   1 H    0.998 --    60 C    0.976
    96   1 H    1.005 --    61 C    0.973
    97   1 H    1.005 --    66 C    0.973
    98   1 H    1.008 --    67 C    0.963
    99   1 H    1.008 --    72 C    0.963
   100   1 H    1.005 --    73 C    0.973
   101   1 H    1.005 --    77 C    0.973
   102   1 H    1.003 --    78 C    0.973
   103   1 H    1.003 --    79 C    0.974
   104   1 H    1.003 --    80 C    0.973
   105   1 H    1.005 --    81 C    0.973
   106   1 H    1.005 --    83 C    0.973
   107   1 H    0.998 --    84 C    0.976
   108   1 H    1.005 --    89 C    0.973
   109   1 H    1.003 --    90 C    0.973
   110   1 H    1.003 --    91 C    0.974
   111   1 H    1.003 --    92 C    0.973
   112   1 H    1.005 --    93 C    0.973
   113   6 C    3.936 --   114 C    2.584    14 C    1.176
   114   6 C    3.936 --   113 C    2.584    70 C    1.176
 ---------------------------------------------------------------------------

           -------------------------------------------------
          | TOTAL ENERGY             -194.499068764318 Eh   |
          | GRADIENT NORM               0.000417904594 Eh/α |
          | HOMO-LUMO GAP               0.002319891759 eV   |
           -------------------------------------------------

 * finished run on 2022/07/30 at 08:33:02.907
