   * xtb version 6.5.1 (b24c23e) compiled by 'conda@728c89f4b128' on 2022-07-12
          program call               : xtb Ni_Ph_C2_2.xyz --gfn 1 --opt -T 48

   ID    Z sym.   atoms
    1   28 Ni     1, 57
    2    6 C      2-6, 8-11, 13-29, 32-37, 58-62, 64-67, 69-85, 88-93, 113,
                  114
    3    7 N      7, 12, 30, 31, 63, 68, 86, 87
    4    1 H      38-56, 94-112
########################################################################
[WARNING] Please study the warnings concerning your input carefully
-1- prog_main_parseArguments: Unknown option '-T' provided
########################################################################

          :  Hamiltonian                  GFN1-xTB          :
 * total energy  :  -193.6326112 Eh     change       -0.3188916E-10 Eh
 * total energy  :  -193.7066753 Eh     change       -0.7406407E-01 Eh
 * total energy  :  -193.7477815 Eh     change       -0.4110622E-01 Eh
 * total energy  :  -193.7580125 Eh     change       -0.1023097E-01 Eh
 * total energy  :  -193.7642613 Eh     change       -0.6248859E-02 Eh
 * total energy  :  -193.7670865 Eh     change       -0.2825151E-02 Eh
 * total energy  :  -193.7688556 Eh     change       -0.1769091E-02 Eh
 * total energy  :  -193.7695950 Eh     change       -0.7394385E-03 Eh
 * total energy  :  -193.7701161 Eh     change       -0.5211283E-03 Eh
 * total energy  :  -193.7703590 Eh     change       -0.2428565E-03 Eh
 * total energy  :  -193.7712820 Eh     change       -0.2365993E-04 Eh
 * total energy  :  -193.7713064 Eh     change       -0.2435617E-04 Eh
 * total energy  :  -193.7713160 Eh     change       -0.9620248E-05 Eh
 * total energy  :  -193.7713336 Eh     change       -0.1755153E-04 Eh
 * total energy  :  -193.7713413 Eh     change       -0.7720969E-05 Eh
 * total energy  :  -193.7713563 Eh     change       -0.1497694E-04 Eh
 * total energy  :  -193.7713667 Eh     change       -0.1048113E-04 Eh
 * total energy  :  -193.7713749 Eh     change       -0.8166240E-05 Eh
 * total energy  :  -193.7713784 Eh     change       -0.3453422E-05 Eh
   *** GEOMETRY OPTIMIZATION CONVERGED AFTER 28 ITERATIONS ***

 final structure:
================
114
 xtb: 6.5.1 (b24c23e)
Ni          15.34053329055138       -0.05230445451058       -0.01668369898421
C           11.95002705362893       -0.08534152255381       -0.01665912932104
C           12.61076603549475       -1.27446460516858       -0.24676518191834
C           11.94428870579872       -2.51886548288414       -0.48289454215987
C           12.90488703274215       -3.47133368037572       -0.52960601481300
C           14.15925235156440       -2.80727540315889       -0.32630230645398
N           13.96969199446650       -1.45532797015634       -0.18185182512321
C           15.36936267897536       -3.46892756810225       -0.16655366158758
C           16.56654977567809       -2.80131552268645        0.05303979868431
C           17.82587430614178       -3.45974138211966        0.22318242044444
C           18.77124701655336       -2.49044521746269        0.26637838267639
N           16.74009920022889       -1.43591312762994        0.01617531187061
C           18.09206664766986       -1.24411756558880        0.10947325374279
C           18.75177936093489       -0.02028508698399       -0.03265103266701
C           18.06495347944625        1.18979705219954       -0.16347052749952
C           18.71373206494508        2.44714094674963       -0.35625437439048
C           17.75053555116482        3.39803983774136       -0.29522015891222
C           16.51302954431196        2.71757604821207       -0.06368423241081
C           15.30430564958841        3.36506354991878        0.15803947573034
C           15.29804406445516        4.84483981231591        0.24761084865019
C           14.56500644928808        5.60916043476854       -0.66096856355470
C           14.56464961107159        6.99315835503281       -0.57211682910232
C           15.28996645001134        7.62917934969372        0.42622203554887
C           16.02026603591833        6.87539699120255        1.33500953207995
C           16.02804512681667        5.49165205310727        1.24587661111012
C           14.10454558985969        2.67952493282897        0.29761382072992
C           12.84316424495267        3.30965585877763        0.55677973884391
C           11.90029747048236        2.33996316102555        0.49492999452929
C           12.58727247340792        1.11645501222514        0.21384763682227
N           13.94112206573809        1.32652552129114        0.13408575760415
N           16.71238264085934        1.35601152916180       -0.03411838792629
C           15.38147550020622       -4.95230309528788       -0.23207647803278
C           15.11091494182062       -5.60506258093293       -1.43461822185337
C           15.12226393899618       -6.99057337714120       -1.49658683059921
C           15.39837547774138       -7.73774813515759       -0.35963564978082
C           15.66613096526316       -7.09414937409484        0.84082960495919
C           15.66053184242190       -5.70864177081533        0.90596766792197
H           10.86632970245522       -0.09742968519774       -0.01000109161676
H           10.87632693994600       -2.63057743790052       -0.58284722803569
H           12.78722582596111       -4.53344183369428       -0.67110992826830
H           17.96076135614219       -4.52707266485044        0.28702152874909
H           19.83689865054112       -2.59741350303957        0.38484108882924
H           19.77122952824149        2.57262735154066       -0.52071101737769
H           17.85725912024282        4.46499378318807       -0.40354936568833
H           14.00804853723436        5.11449969380570       -1.44897416539988
H           13.99606001097377        7.57793654732565       -1.28672180191318
H           15.28650589839141        8.71107072560528        0.49572005152754
H           16.58647851977880        7.36734156300885        2.11818849922550
H           16.59016834723314        4.90323502503592        1.96255360230728
H           12.70963456361758        4.36000823462174        0.75884509722869
H           10.83321840740244        2.42573841612990        0.62539888535185
H           14.90431980847850       -5.02147058752314       -2.32485160406600
H           14.91503011175469       -7.48877139802042       -2.43719604137238
H           15.40459373531213       -8.82072815904359       -0.40908070662683
H           15.87937824024480       -7.67378299975658        1.73218380584755
H           15.85959185306255       -5.20671895209244        1.84628290697576
Ni          26.19859105315197        0.05298250953634       -0.01449461437261
C           29.58909786858839        0.08598095233933       -0.01292669378620
C           28.92835539811108        1.28397249896632       -0.19117804829029
C           29.59483374980475        2.53745123987913       -0.37305686987134
C           28.63423706204182        3.49105081547347       -0.37836628574549
C           27.37987148982246        2.81879338620752       -0.20408066322449
N           27.56943010343295        1.46184831108474       -0.11847943099179
C           26.16976001024717        3.47288783531935       -0.01576804663511
C           24.97257011506492        2.79637396822811        0.17463060431574
C           23.71324595860525        3.44679145621165        0.37320073595615
C           22.76787178978282        2.47653422368590        0.37426886696956
N           24.79901880612529        1.43385984126393        0.07852545683683
C           23.44705022303433        1.23819475705593        0.16339527397272
C           22.78734260057541        0.02168405636273       -0.03173609804060
C           23.47417572535624       -1.18157495760866       -0.21496764930247
C           22.82539646082278       -2.42936275324259       -0.46217209749863
C           23.78859389068028       -3.38201254770116       -0.44249472895817
C           25.02610011040475       -2.71224237795191       -0.18162470656322
C           26.23482170229720       -3.36875111087005        0.01177070728961
C           26.24108131106279       -4.85102083100749        0.03699530328100
C           26.97412287997529       -5.57516587175395       -0.90391378355904
C           26.97447979062472       -6.96171648592117       -0.87524327929039
C           26.24915901231178       -7.64048921753435        0.09453270306020
C           25.51885459361835       -6.92688126343084        1.03519151608527
C           25.51107579998943       -5.54057097455955        1.00622951068393
C           27.43458258460019       -2.68992382750226        0.18099448550107
C           28.69596177913972       -3.33071450926872        0.41255898656950
C           29.63882903364570       -2.35925029866740        0.39288097282144
C           28.95185699290748       -1.12469159794595        0.16518416501773
N           27.59800771999004       -1.33110083346424        0.07636277597643
N           24.82674774743884       -1.35324552240962       -0.09295695479450
C           26.15764912161885        4.95770951132015       -0.01682392267583
C           26.42820937067856        5.66206639896049       -1.18988954577436
C           26.41686008159546        7.04896115694864       -1.19164216005023
C           26.14074862399934        7.74606652148261       -0.02332176416055
C           25.87299373295851        7.05095185271974        1.14806721688596
C           25.87859377479969        5.66392268330717        1.15298634085510
H           30.67279521068950        0.09777525008291       -0.00575255030460
H           30.66279583597327        2.65339291724554       -0.46807345457202
H           28.75189646898841        4.55830163652303       -0.47362660905074
H           23.57835889425102        4.51034394684675        0.48332463570761
H           21.70222065195158        2.57826021359199        0.49726528363537
H           21.76790011417679       -2.54758853487038       -0.63192588320930
H           23.68187293178045       -4.44325340960867       -0.59706725757373
H           27.53108398268879       -5.04675411576874       -1.66969417370838
H           27.54307381560104       -7.51491277385973       -1.61456379221495
H           26.25262089466294       -8.72437791615404        0.11698655171854
H           24.95263890607236       -7.45236946935460        1.79626784122883
H           24.94894887350323       -4.98382857508767        1.74777813629702
H           28.82949242816729       -4.38885043705724        0.56882314175469
H           30.70590736610854       -2.45061213330980        0.51950801514588
H           26.63480481383204        5.11767839874299       -2.10462273516073
H           26.62409351893665        7.58752998190418       -2.10973288941137
H           26.13452958629746        8.83017208466417       -0.02569853241190
H           25.65974589450447        7.59133699977097        2.06374811110917
H           25.67953331361274        5.12164575468307        2.07062151135367
C           20.16139102722184       -0.00438629796958       -0.03938219951536
C           21.37773161568123        0.00608084095312       -0.03915618983344

          :  Hamiltonian                  GFN1-xTB          :
         :: total energy            -193.771378361867 Eh    ::
         :: gradient norm              0.000484573913 Eh/a0 ::
         :: HOMO-LUMO gap              1.205953322314 eV    ::
         :: SCC energy              -196.855961348300 Eh    ::
         :: repulsion energy           3.189788952051 Eh    ::

    * Orbital Energies and Occupations

         #    Occupation            Energy/Eh            Energy/eV
      -------------------------------------------------------------
         1        2.0000           -0.7798494             -21.2208
       ...           ...                  ...                  ...
       169        2.0000           -0.4276707             -11.6375
       170        2.0000           -0.3971950             -10.8082
       171        2.0000           -0.3971081             -10.8059
       172        2.0000           -0.3968367             -10.7985
       173        2.0000           -0.3967382             -10.7958
       174        2.0000           -0.3967082             -10.7950
       175        2.0000           -0.3958579             -10.7718
       176        2.0000           -0.3958531             -10.7717
       177        2.0000           -0.3947477             -10.7416
       178        2.0000           -0.3947469             -10.7416
       179        2.0000           -0.3946900             -10.7401
       180        2.0000           -0.3946894             -10.7400
       181        2.0000           -0.3829191             -10.4198 (HOMO)
       182                         -0.3386011              -9.2138 (LUMO)
       183                         -0.3282111              -8.9311
       184                         -0.3281967              -8.9307
       185                         -0.3259224              -8.8688
       186                         -0.3258956              -8.8681
       187                         -0.3220686              -8.7639
       188                         -0.2962506              -8.0614
       189                         -0.2875188              -7.8238
       190                         -0.2651187              -7.2142
       191                         -0.2651165              -7.2142
       192                         -0.2650728              -7.2130
       ...                                ...                  ...
       390                          1.3425463              36.5325
      -------------------------------------------------------------
                  HL-Gap            0.0443180 Eh            1.2060 eV

Wiberg/Mayer (AO) data.
largest (>0.10) Wiberg bond orders for each atom

     #   Z sym  total        # sym  WBO       # sym  WBO       # sym  WBO
 ---------------------------------------------------------------------------
     1  28 Ni   3.024 --     7 N    0.666    30 N    0.665    31 N    0.664
                            12 N    0.664
     2   6 C    3.934 --     3 C    1.364    29 C    1.363    38 H    0.970
     3   6 C    3.924 --     2 C    1.364     7 N    1.213     4 C    1.175
     4   6 C    3.960 --     5 C    1.650     3 C    1.175    39 H    0.975
     5   6 C    3.963 --     4 C    1.650     6 C    1.177    40 H    0.973
     6   6 C    3.920 --     8 C    1.326     7 N    1.219     5 C    1.177
     7   7 N    3.402 --     6 C    1.219     3 C    1.213     1 Ni   0.666
     8   6 C    3.939 --     9 C    1.330     6 C    1.326    32 C    1.018
     9   6 C    3.916 --     8 C    1.330    12 N    1.205    10 C    1.184
    10   6 C    3.959 --    11 C    1.636     9 C    1.184    41 H    0.973
    11   6 C    3.962 --    10 C    1.636    13 C    1.191    42 H    0.969
    12   7 N    3.406 --    13 C    1.236     9 C    1.205     1 Ni   0.664
    13   6 C    3.909 --    14 C    1.268    12 N    1.236    11 C    1.191
    14   6 C    3.944 --    13 C    1.268    15 C    1.268   113 C    1.171
    15   6 C    3.909 --    14 C    1.268    31 N    1.235    16 C    1.192
    16   6 C    3.962 --    17 C    1.634    15 C    1.192    43 H    0.969
    17   6 C    3.959 --    16 C    1.634    18 C    1.185    44 H    0.973
    18   6 C    3.916 --    19 C    1.326    31 N    1.207    17 C    1.185
    19   6 C    3.939 --    18 C    1.326    26 C    1.324    20 C    1.027
    20   6 C    3.989 --    21 C    1.395    25 C    1.395    19 C    1.027
                            23 C    0.108
    21   6 C    3.988 --    22 C    1.447    20 C    1.395    45 H    0.973
                            24 C    0.109
    22   6 C    3.995 --    21 C    1.447    23 C    1.438    46 H    0.973
                            25 C    0.110
    23   6 C    3.990 --    22 C    1.438    24 C    1.437    47 H    0.974
                            20 C    0.108
    24   6 C    3.995 --    25 C    1.448    23 C    1.437    48 H    0.973
                            21 C    0.109
    25   6 C    3.988 --    24 C    1.448    20 C    1.395    49 H    0.973
                            22 C    0.110
    26   6 C    3.920 --    19 C    1.324    30 N    1.220    27 C    1.177
    27   6 C    3.963 --    28 C    1.648    26 C    1.177    50 H    0.973
    28   6 C    3.960 --    27 C    1.648    29 C    1.176    51 H    0.975
    29   6 C    3.924 --     2 C    1.363    30 N    1.213    28 C    1.176
    30   7 N    3.401 --    26 C    1.220    29 C    1.213     1 Ni   0.665
    31   7 N    3.406 --    15 C    1.235    18 C    1.207     1 Ni   0.664
    32   6 C    3.988 --    37 C    1.399    33 C    1.398     8 C    1.018
                            35 C    0.109
    33   6 C    3.989 --    34 C    1.446    32 C    1.398    52 H    0.973
                            36 C    0.110
    34   6 C    3.995 --    33 C    1.446    35 C    1.438    53 H    0.973
                            37 C    0.110
    35   6 C    3.992 --    36 C    1.439    34 C    1.438    54 H    0.974
                            32 C    0.109
    36   6 C    3.995 --    37 C    1.446    35 C    1.439    55 H    0.973
                            33 C    0.110
    37   6 C    3.989 --    36 C    1.446    32 C    1.399    56 H    0.973
                            34 C    0.110
    38   1 H    1.000 --     2 C    0.970
    39   1 H    0.998 --     4 C    0.975
    40   1 H    1.005 --     5 C    0.973
    41   1 H    1.005 --    10 C    0.973
    42   1 H    1.006 --    11 C    0.969
    43   1 H    1.005 --    16 C    0.969
    44   1 H    1.004 --    17 C    0.973
    45   1 H    1.005 --    21 C    0.973
    46   1 H    1.003 --    22 C    0.973
    47   1 H    1.003 --    23 C    0.974
    48   1 H    1.003 --    24 C    0.973
    49   1 H    1.005 --    25 C    0.973
    50   1 H    1.005 --    27 C    0.973
    51   1 H    0.998 --    28 C    0.975
    52   1 H    1.004 --    33 C    0.973
    53   1 H    1.003 --    34 C    0.973
    54   1 H    1.003 --    35 C    0.974
    55   1 H    1.003 --    36 C    0.973
    56   1 H    1.004 --    37 C    0.973
    57  28 Ni   3.024 --    63 N    0.666    86 N    0.665    87 N    0.664
                            68 N    0.664
    58   6 C    3.934 --    59 C    1.364    85 C    1.363    94 H    0.970
    59   6 C    3.924 --    58 C    1.364    63 N    1.213    60 C    1.175
    60   6 C    3.960 --    61 C    1.650    59 C    1.175    95 H    0.975
    61   6 C    3.963 --    60 C    1.650    62 C    1.177    96 H    0.973
    62   6 C    3.920 --    64 C    1.326    63 N    1.219    61 C    1.177
    63   7 N    3.402 --    62 C    1.219    59 C    1.213    57 Ni   0.666
    64   6 C    3.939 --    65 C    1.330    62 C    1.326    88 C    1.018
    65   6 C    3.916 --    64 C    1.330    68 N    1.205    66 C    1.184
    66   6 C    3.959 --    67 C    1.636    65 C    1.184    97 H    0.973
    67   6 C    3.962 --    66 C    1.636    69 C    1.191    98 H    0.969
    68   7 N    3.406 --    69 C    1.236    65 C    1.205    57 Ni   0.664
    69   6 C    3.909 --    70 C    1.268    68 N    1.236    67 C    1.191
    70   6 C    3.944 --    69 C    1.268    71 C    1.268   114 C    1.171
    71   6 C    3.909 --    70 C    1.268    87 N    1.235    72 C    1.192
    72   6 C    3.962 --    73 C    1.634    71 C    1.192    99 H    0.969
    73   6 C    3.959 --    72 C    1.634    74 C    1.185   100 H    0.973
    74   6 C    3.916 --    75 C    1.326    87 N    1.207    73 C    1.185
    75   6 C    3.939 --    74 C    1.326    82 C    1.324    76 C    1.027
    76   6 C    3.989 --    77 C    1.395    81 C    1.395    75 C    1.027
                            79 C    0.108
    77   6 C    3.988 --    78 C    1.447    76 C    1.395   101 H    0.973
                            80 C    0.109
    78   6 C    3.995 --    77 C    1.447    79 C    1.438   102 H    0.973
                            81 C    0.110
    79   6 C    3.990 --    78 C    1.438    80 C    1.437   103 H    0.974
                            76 C    0.108
    80   6 C    3.995 --    81 C    1.448    79 C    1.437   104 H    0.973
                            77 C    0.109
    81   6 C    3.988 --    80 C    1.448    76 C    1.395   105 H    0.973
                            78 C    0.110
    82   6 C    3.920 --    75 C    1.324    86 N    1.220    83 C    1.177
    83   6 C    3.963 --    84 C    1.648    82 C    1.177   106 H    0.973
    84   6 C    3.960 --    83 C    1.648    85 C    1.176   107 H    0.975
    85   6 C    3.924 --    58 C    1.363    86 N    1.213    84 C    1.176
    86   7 N    3.401 --    82 C    1.220    85 C    1.213    57 Ni   0.665
    87   7 N    3.406 --    71 C    1.235    74 C    1.207    57 Ni   0.664
    88   6 C    3.988 --    93 C    1.399    89 C    1.398    64 C    1.018
                            91 C    0.109
    89   6 C    3.989 --    90 C    1.446    88 C    1.398   108 H    0.973
                            92 C    0.110
    90   6 C    3.995 --    89 C    1.446    91 C    1.438   109 H    0.973
                            93 C    0.110
    91   6 C    3.992 --    92 C    1.439    90 C    1.438   110 H    0.974
                            88 C    0.109
    92   6 C    3.995 --    93 C    1.446    91 C    1.439   111 H    0.973
                            89 C    0.110
    93   6 C    3.989 --    92 C    1.446    88 C    1.399   112 H    0.973
                            90 C    0.110
    94   1 H    1.000 --    58 C    0.970
    95   1 H    0.998 --    60 C    0.975
    96   1 H    1.005 --    61 C    0.973
    97   1 H    1.005 --    66 C    0.973
    98   1 H    1.006 --    67 C    0.969
    99   1 H    1.005 --    72 C    0.969
   100   1 H    1.004 --    73 C    0.973
   101   1 H    1.005 --    77 C    0.973
   102   1 H    1.003 --    78 C    0.973
   103   1 H    1.003 --    79 C    0.974
   104   1 H    1.003 --    80 C    0.973
   105   1 H    1.005 --    81 C    0.973
   106   1 H    1.005 --    83 C    0.973
   107   1 H    0.998 --    84 C    0.975
   108   1 H    1.004 --    89 C    0.973
   109   1 H    1.003 --    90 C    0.973
   110   1 H    1.003 --    91 C    0.974
   111   1 H    1.003 --    92 C    0.973
   112   1 H    1.004 --    93 C    0.973
   113   6 C    3.937 --   114 C    2.588    14 C    1.171
   114   6 C    3.937 --   113 C    2.588    70 C    1.171
 ---------------------------------------------------------------------------

           -------------------------------------------------
          | TOTAL ENERGY             -193.771378361867 Eh   |
          | GRADIENT NORM               0.000484573913 Eh/α |
          | HOMO-LUMO GAP               1.205953322314 eV   |
           -------------------------------------------------

 * finished run on 2022/07/30 at 05:22:43.336
