   * xtb version 6.5.1 (b24c23e) compiled by 'conda@728c89f4b128' on 2022-07-12
          program call               : xtb Co_PhCN_C4_2.xyz --gfn 1 --opt -T 48

   ID    Z sym.   atoms
    1   27 Co     1, 59
    2    6 C      2-6, 8-13, 15-19, 21-26, 28-33, 35-40, 60-64, 66-71, 73-77,
                  79-84, 86-91, 93-98, 117-120
    3    7 N      7, 14, 20, 27, 34, 41, 65, 72, 78, 85, 92, 99
    4    1 H      42-58, 100-116
########################################################################
[WARNING] Please study the warnings concerning your input carefully
-1- prog_main_parseArguments: Unknown option '-T' provided
########################################################################

          :  Hamiltonian                  GFN1-xTB          :
 * total energy  :  -215.3751479 Eh     change        0.2389953E-08 Eh
 * total energy  :  -215.5089492 Eh     change       -0.1338013E+00 Eh
 * total energy  :  -215.5488669 Eh     change       -0.3991771E-01 Eh
 * total energy  :  -215.5753509 Eh     change       -0.2648401E-01 Eh
 * total energy  :  -215.5861517 Eh     change       -0.1080077E-01 Eh
 * total energy  :  -215.5921076 Eh     change       -0.5955940E-02 Eh
 * total energy  :  -215.5971098 Eh     change       -0.5002157E-02 Eh
 * total energy  :  -215.5992932 Eh     change       -0.2183444E-02 Eh
 * total energy  :  -215.6012698 Eh     change       -0.1976568E-02 Eh
 * total energy  :  -215.6016980 Eh     change       -0.4281678E-03 Eh
 * total energy  :  -215.6052787 Eh     change       -0.9921470E-05 Eh
 * total energy  :  -215.6052893 Eh     change       -0.1064973E-04 Eh
 * total energy  :  -215.6053050 Eh     change       -0.1565689E-04 Eh
 * total energy  :  -215.6053198 Eh     change       -0.1475980E-04 Eh
 * total energy  :  -215.6053307 Eh     change       -0.1093364E-04 Eh
 * total energy  :  -215.6053381 Eh     change       -0.7443271E-05 Eh
 * total energy  :  -215.6053464 Eh     change       -0.8232720E-05 Eh
 * total energy  :  -215.6053515 Eh     change       -0.5112612E-05 Eh
 * total energy  :  -215.6053544 Eh     change       -0.2893430E-05 Eh
   *** GEOMETRY OPTIMIZATION CONVERGED AFTER 61 ITERATIONS ***

 final structure:
================
120
 xtb: 6.5.1 (b24c23e)
Co          16.91792009162612        0.04535093634072        0.00063061548696
C           13.54700217949258        0.04770283894366        0.13348436973883
C           14.20274939501874        1.25687827296156        0.04261646624670
C           13.54172201421027        2.52286301960745       -0.04860099593432
C           14.50049399619555        3.47126293118502        0.07115340964644
C           15.74466445245574        2.78227704746370        0.25268884022937
N           15.55901984096825        1.42609632031192        0.16641042663716
C           16.93885625099195        3.40081838200281        0.59808201889219
C           16.95085274346733        4.85900562748586        0.84949145769944
C           16.14456027118888        5.41271578350503        1.84684511360659
C           16.16205840009333        6.77390767531697        2.09206105275755
C           16.98645624894738        7.61193011089232        1.33533974739095
C           17.00773385483623        9.01302738173403        1.58636990322517
N           17.02711798722691       10.14495055818953        1.79245684555947
C           17.79123015793503        7.06351346625338        0.33226710896940
C           17.77350721394875        5.70061570096008        0.09685920365732
C           18.12206474690365        2.68717589557845        0.72429862008019
C           19.36622587488404        3.25921918635949        1.14330437514026
C           20.31325998428438        2.30669702306430        0.96717658547704
N           18.29608633045752        1.37013028927038        0.36699014788337
C           19.64424797334390        1.15440963229914        0.45193924924714
C           20.31018667688116        0.02376870600349       -0.02259703963611
C           19.62034401275301       -1.09497983202847       -0.49259608056439
C           20.26122461252718       -2.24278453984375       -1.05096962685118
C           19.29780047593883       -3.17957165653046       -1.22484367074021
C           18.07310516664034       -2.60400560421710       -0.75659936914904
N           18.27401168900746       -1.29939707700214       -0.36910280472195
C           16.88840905074782       -3.30901580602068       -0.60057285740370
C           16.87189903837031       -4.76071120648217       -0.88733968882590
C           16.01710539395831       -5.27884576683267       -1.86322969219592
C           16.00304667928239       -6.63399155077185       -2.14003812889950
C           16.84352615698361       -7.50168363064689       -1.43629018014367
C           16.83131241120379       -8.89724951309996       -1.71712610988713
N           16.82332200477400      -10.02540360498712       -1.94399462337174
C           17.69722510689337       -6.98883714791270       -0.45503776584453
C           17.71114224143985       -5.63162349038153       -0.18836812788942
C           15.71829290067841       -2.69020440055694       -0.18111796429837
C           14.48327264709497       -3.37772702288194        0.05957128481527
C           13.54166551072413       -2.42864822617729        0.27165929962634
C           14.20318786871034       -1.16358241518089        0.16811125767611
N           15.54909695542945       -1.33634980272142       -0.04179560680287
H           12.46417731196601        0.04919367925259        0.17149907271469
H           12.47917468562026        2.64862683877673       -0.18252422037943
H           14.38926395425936        4.54310842598892        0.04407016627104
H           15.51453940807250        4.76454316938944        2.44535913212632
H           15.53966697490703        7.19527692806324        2.87274506607108
H           18.42811682820002        7.71064156813540       -0.25926543046016
H           18.39087251197535        5.28032454408898       -0.68899820253418
H           19.48806927304827        4.26122472567427        1.52109816125582
H           21.37303067041363        2.36529333213959        1.15598012686436
H           21.31442969863949       -2.30854011317342       -1.27158546304469
H           19.39670379015615       -4.17287526285820       -1.63128895050755
H           15.37284831699561       -4.60728999958938       -2.41942378199971
H           15.34257382309290       -7.02756610508222       -2.90378379650665
H           18.34667699216074       -7.65935338743486        0.09548641297413
H           18.36609546957741       -5.23933146391846        0.58138732507760
H           14.36640766267316       -4.44932084358685        0.06153292400172
H           12.48910592534175       -2.55280505790799        0.47027797356958
Co          30.30582507579267       -0.04509781390059        0.00161841111497
C           33.67521779444766       -0.04016029514452        0.13408504223948
C           33.01927700551991       -1.25231667380266        0.09879156485377
C           33.67831026389056       -2.52208326100262        0.06331441044614
C           32.71941294621477       -3.46256095525843        0.23488635838842
C           31.47717368601871       -2.76422889888739        0.39209958166915
N           31.66362997122491       -1.41425611955217        0.23824847021417
C           30.28506791702940       -3.36172269850747        0.78017222013848
C           30.27332026064126       -4.80380612825681        1.11050280143398
C           31.09490544660298       -5.30551454400872        2.12286023400735
C           31.07752450065787       -6.65116353075702        2.44249525698769
C           30.23755115666573       -7.52602681842337        1.74716366173325
C           30.21642238746726       -8.91121175253874        2.07477552148736
N           30.19857214033726      -10.03036683608076        2.34182844424036
C           29.41730084342000       -7.03005511883085        0.72940632300125
C           29.43543072547632       -5.68226983566632        0.41913510014677
C           29.10381646515435       -2.63985823633615        0.87664853470317
C           27.86131749996439       -3.18432234345732        1.33554505559206
C           26.91416163705491       -2.24273712268441        1.10804895892461
N           28.92916632789134       -1.34531411069639        0.44514310974515
C           27.58147261832375       -1.12375012823805        0.52205751726026
C           26.91504088434716       -0.02418455089981       -0.02026549742219
C           27.60524358324222        1.06398345440185       -0.55726071058392
C           26.96661604366560        2.17579426567734       -1.18638518630095
C           27.93036564503321        3.10169543607768       -1.41059860035633
C           29.15285612447917        2.55668246740559       -0.90179190717573
N           28.95074618292197        1.27678268072138       -0.43998442721604
C           30.33534883626092        3.27158649036833       -0.77475115498596
C           30.35205677040382        4.70524022578348       -1.14025270433355
C           31.21983451531937        5.17229315113199       -2.13044016340780
C           31.23295901687177        6.50993872571467       -2.48209751341360
C           30.37825270307421        7.41159992777071       -1.84089676629870
C           30.38975551781735        8.78906911977736       -2.20012028500257
N           30.39831085466942        9.90242933807183       -2.49084871742362
C           29.51170936074398        6.95030348284616       -0.84545979502555
C           29.49910991476057        5.61004811386407       -0.50358795209030
C           31.50292080970166        2.67762258701972       -0.31377815681602
C           32.73588407105774        3.37750099500014       -0.09952620705321
C           33.67770417857150        2.44080524781974        0.16159314386187
C           33.01834737101571        1.17122728014301        0.11475779639379
N           31.67289628031903        1.33251629938778       -0.10705203680212
H           34.75808367366616       -0.03965075781917        0.17084227710174
H           34.73973413466808       -2.65571145641180       -0.07187159559440
H           32.82960138726740       -4.53460911239125        0.25788773462485
H           31.73689920202625       -4.62817457920231        2.67451389706780
H           31.71205699393582       -7.03162442909277        3.23430975172469
H           28.76811923502115       -7.70597071317801        0.18536235186630
H           28.80643077131169       -5.30340393489813       -0.37844444258828
H           27.74023928686660       -4.16195664909765        1.77276132824011
H           25.85530355852852       -2.28888209518615        1.30523538660517
H           25.91457777010572        2.22738590803839       -1.41615295548458
H           27.83280616558402        4.06864488859261       -1.87656574028331
H           31.87487424634893        4.47387847760181       -2.63889964609011
H           31.90351154157094        6.86347730336601       -3.25656243812050
H           28.85114592400421        7.64728408945329       -0.34315702207353
H           28.83413599998789        5.25832958622054        0.27710340062435
H           32.85144221087971        4.44817173554123       -0.14743991558927
H           34.72916429915200        2.57581852824845        0.35893460442172
C           22.93721069829535        0.00504250271178       -0.03735247562320
C           21.71598067169859        0.01355895482131       -0.03301652567819
C           24.28816689906879       -0.00438726291830       -0.03827969092124
C           25.50934109033925       -0.01459196987451       -0.03081460310241

          :  Hamiltonian                  GFN1-xTB          :
         :: total energy            -215.605354368341 Eh    ::
         :: gradient norm              0.000426867137 Eh/a0 ::
         :: HOMO-LUMO gap              0.005946821225 eV    ::
         :: SCC energy              -219.235408867979 Eh    ::
         :: repulsion energy           3.739530089244 Eh    ::

    * Orbital Energies and Occupations

         #    Occupation            Energy/Eh            Energy/eV
      -------------------------------------------------------------
         1        2.0000           -0.7841449             -21.3377
       ...           ...                  ...                  ...
       188        2.0000           -0.4394324             -11.9576
       189        2.0000           -0.4390616             -11.9475
       190        2.0000           -0.4097640             -11.1502
       191        2.0000           -0.4097180             -11.1490
       192        2.0000           -0.4090972             -11.1321
       193        2.0000           -0.4090463             -11.1307
       194        1.9999           -0.4071939             -11.0803
       195        1.9997           -0.4057403             -11.0408
       196        1.9997           -0.4057353             -11.0406
       197        1.9997           -0.4055974             -11.0369
       198        1.9997           -0.4055904             -11.0367
       199        1.9275           -0.4003739             -10.8947
       200        1.0942           -0.3974364             -10.8148 (HOMO)
       201        0.9795           -0.3972179             -10.8088 (LUMO)
       202                         -0.3489400              -9.4951
       203                         -0.3421917              -9.3115
       204                         -0.3420372              -9.3073
       205                         -0.3398075              -9.2466
       206                         -0.3158485              -8.5947
       207                         -0.3139875              -8.5440
       208                         -0.3067871              -8.3481
       209                         -0.3064239              -8.3382
       210                         -0.3050630              -8.3012
       211                         -0.3050583              -8.3011
       ...                                ...                  ...
       422                          1.5049643              40.9522
      -------------------------------------------------------------
                  HL-Gap            0.0002185 Eh            0.0059 eV

Wiberg/Mayer (AO) data.
largest (>0.10) Wiberg bond orders for each atom

     #   Z sym  total        # sym  WBO       # sym  WBO       # sym  WBO
 ---------------------------------------------------------------------------
     1  27 Co   3.059 --    41 N    0.644     7 N    0.640    20 N    0.639
                            27 N    0.636
     2   6 C    3.933 --    40 C    1.367     3 C    1.364    42 H    0.969
     3   6 C    3.923 --     2 C    1.364     7 N    1.200     4 C    1.175
     4   6 C    3.958 --     5 C    1.648     3 C    1.175    43 H    0.975
     5   6 C    3.963 --     4 C    1.648     6 C    1.176    44 H    0.973
     6   6 C    3.920 --     8 C    1.319     7 N    1.211     5 C    1.176
     7   7 N    3.349 --     6 C    1.211     3 C    1.200     1 Co   0.640
     8   6 C    3.935 --    17 C    1.327     6 C    1.319     9 C    1.033
     9   6 C    3.963 --    10 C    1.384    16 C    1.384     8 C    1.033
    10   6 C    3.987 --    11 C    1.464     9 C    1.384    45 H    0.971
                            15 C    0.102
    11   6 C    3.993 --    10 C    1.464    12 C    1.364    46 H    0.972
                            16 C    0.102
    12   6 C    3.984 --    11 C    1.364    15 C    1.364    13 C    1.098
    13   6 C    3.958 --    14 N    2.820    12 C    1.098
    14   7 N    2.973 --    13 C    2.820
    15   6 C    3.993 --    16 C    1.464    12 C    1.364    47 H    0.972
                            10 C    0.102
    16   6 C    3.986 --    15 C    1.464     9 C    1.384    48 H    0.971
                            11 C    0.102
    17   6 C    3.916 --     8 C    1.327    20 N    1.196    18 C    1.181
    18   6 C    3.959 --    19 C    1.638    17 C    1.181    49 H    0.973
    19   6 C    3.961 --    18 C    1.638    21 C    1.189    50 H    0.973
    20   7 N    3.350 --    21 C    1.224    17 C    1.196     1 Co   0.639
    21   6 C    3.905 --    22 C    1.268    20 N    1.224    19 C    1.189
    22   6 C    3.938 --    21 C    1.268    23 C    1.265   118 C    1.178
    23   6 C    3.905 --    22 C    1.265    27 N    1.225    24 C    1.190
    24   6 C    3.961 --    25 C    1.636    23 C    1.190    51 H    0.973
    25   6 C    3.959 --    24 C    1.636    26 C    1.182    52 H    0.973
    26   6 C    3.916 --    28 C    1.328    27 N    1.195    25 C    1.182
    27   7 N    3.351 --    23 C    1.225    26 C    1.195     1 Co   0.636
    28   6 C    3.935 --    26 C    1.328    37 C    1.319    29 C    1.033
    29   6 C    3.963 --    36 C    1.384    30 C    1.384    28 C    1.033
    30   6 C    3.987 --    31 C    1.464    29 C    1.384    53 H    0.971
                            35 C    0.102
    31   6 C    3.993 --    30 C    1.464    32 C    1.364    54 H    0.972
                            36 C    0.102
    32   6 C    3.984 --    31 C    1.364    35 C    1.364    33 C    1.098
    33   6 C    3.958 --    34 N    2.820    32 C    1.098
    34   7 N    2.973 --    33 C    2.820
    35   6 C    3.993 --    36 C    1.464    32 C    1.364    55 H    0.972
                            30 C    0.102
    36   6 C    3.987 --    35 C    1.464    29 C    1.384    56 H    0.971
                            31 C    0.102
    37   6 C    3.920 --    28 C    1.319    41 N    1.212    38 C    1.176
    38   6 C    3.963 --    39 C    1.650    37 C    1.176    57 H    0.973
    39   6 C    3.960 --    38 C    1.650    40 C    1.174    58 H    0.975
    40   6 C    3.923 --     2 C    1.367    41 N    1.198    39 C    1.174
    41   7 N    3.348 --    37 C    1.212    40 C    1.198     1 Co   0.644
    42   1 H    0.999 --     2 C    0.969
    43   1 H    0.997 --     4 C    0.975
    44   1 H    1.003 --     5 C    0.973
    45   1 H    1.004 --    10 C    0.971
    46   1 H    1.000 --    11 C    0.972
    47   1 H    1.000 --    15 C    0.972
    48   1 H    1.004 --    16 C    0.971
    49   1 H    1.003 --    18 C    0.973
    50   1 H    1.001 --    19 C    0.973
    51   1 H    1.001 --    24 C    0.973
    52   1 H    1.003 --    25 C    0.973
    53   1 H    1.003 --    30 C    0.971
    54   1 H    1.000 --    31 C    0.972
    55   1 H    1.000 --    35 C    0.972
    56   1 H    1.004 --    36 C    0.971
    57   1 H    1.003 --    38 C    0.973
    58   1 H    0.997 --    39 C    0.975
    59  27 Co   3.066 --    99 N    0.645    65 N    0.641    78 N    0.640
                            85 N    0.636
    60   6 C    3.933 --    98 C    1.367    61 C    1.363   100 H    0.969
    61   6 C    3.923 --    60 C    1.363    65 N    1.200    62 C    1.175
    62   6 C    3.958 --    63 C    1.648    61 C    1.175   101 H    0.975
    63   6 C    3.963 --    62 C    1.648    64 C    1.176   102 H    0.973
    64   6 C    3.920 --    66 C    1.318    65 N    1.211    63 C    1.176
    65   7 N    3.349 --    64 C    1.211    61 C    1.200    59 Co   0.641
    66   6 C    3.935 --    75 C    1.327    64 C    1.318    67 C    1.034
    67   6 C    3.963 --    68 C    1.384    74 C    1.384    66 C    1.034
    68   6 C    3.987 --    69 C    1.464    67 C    1.384   103 H    0.971
                            73 C    0.102
    69   6 C    3.993 --    68 C    1.464    70 C    1.364   104 H    0.972
                            74 C    0.102
    70   6 C    3.984 --    69 C    1.364    73 C    1.364    71 C    1.098
    71   6 C    3.958 --    72 N    2.820    70 C    1.098
    72   7 N    2.973 --    71 C    2.820
    73   6 C    3.993 --    74 C    1.464    70 C    1.364   105 H    0.972
                            68 C    0.102
    74   6 C    3.986 --    73 C    1.464    67 C    1.384   106 H    0.971
                            69 C    0.102
    75   6 C    3.916 --    66 C    1.327    78 N    1.196    76 C    1.181
    76   6 C    3.959 --    77 C    1.638    75 C    1.181   107 H    0.973
    77   6 C    3.961 --    76 C    1.638    79 C    1.189   108 H    0.973
    78   7 N    3.349 --    79 C    1.223    75 C    1.196    59 Co   0.640
    79   6 C    3.905 --    80 C    1.268    78 N    1.223    77 C    1.189
    80   6 C    3.938 --    79 C    1.268    81 C    1.264   120 C    1.178
    81   6 C    3.905 --    80 C    1.264    85 N    1.225    82 C    1.191
    82   6 C    3.961 --    83 C    1.636    81 C    1.191   109 H    0.973
    83   6 C    3.959 --    82 C    1.636    84 C    1.182   110 H    0.973
    84   6 C    3.916 --    86 C    1.327    85 N    1.195    83 C    1.182
    85   7 N    3.351 --    81 C    1.225    84 C    1.195    59 Co   0.636
    86   6 C    3.935 --    84 C    1.327    95 C    1.319    87 C    1.034
    87   6 C    3.963 --    94 C    1.384    88 C    1.384    86 C    1.034
    88   6 C    3.987 --    89 C    1.464    87 C    1.384   111 H    0.971
                            93 C    0.102
    89   6 C    3.993 --    88 C    1.464    90 C    1.364   112 H    0.972
                            94 C    0.102
    90   6 C    3.984 --    93 C    1.364    89 C    1.364    91 C    1.098
    91   6 C    3.958 --    92 N    2.820    90 C    1.098
    92   7 N    2.973 --    91 C    2.820
    93   6 C    3.993 --    94 C    1.464    90 C    1.364   113 H    0.972
                            88 C    0.102
    94   6 C    3.987 --    93 C    1.464    87 C    1.384   114 H    0.971
                            89 C    0.102
    95   6 C    3.920 --    86 C    1.319    99 N    1.212    96 C    1.176
    96   6 C    3.963 --    97 C    1.650    95 C    1.176   115 H    0.973
    97   6 C    3.960 --    96 C    1.650    98 C    1.174   116 H    0.975
    98   6 C    3.923 --    60 C    1.367    99 N    1.197    97 C    1.174
    99   7 N    3.348 --    95 C    1.212    98 C    1.197    59 Co   0.645
   100   1 H    0.999 --    60 C    0.969
   101   1 H    0.997 --    62 C    0.975
   102   1 H    1.003 --    63 C    0.973
   103   1 H    1.004 --    68 C    0.971
   104   1 H    1.000 --    69 C    0.972
   105   1 H    1.000 --    73 C    0.972
   106   1 H    1.004 --    74 C    0.971
   107   1 H    1.003 --    76 C    0.973
   108   1 H    1.001 --    77 C    0.973
   109   1 H    1.001 --    82 C    0.973
   110   1 H    1.003 --    83 C    0.973
   111   1 H    1.004 --    88 C    0.971
   112   1 H    1.000 --    89 C    0.972
   113   1 H    1.000 --    93 C    0.972
   114   1 H    1.004 --    94 C    0.971
   115   1 H    1.003 --    96 C    0.973
   116   1 H    0.997 --    97 C    0.975
   117   6 C    3.932 --   118 C    2.484   119 C    1.300
   118   6 C    3.919 --   117 C    2.484    22 C    1.178   120 C    0.197
   119   6 C    3.931 --   120 C    2.484   117 C    1.300
   120   6 C    3.919 --   119 C    2.484    80 C    1.178   118 C    0.197
 ---------------------------------------------------------------------------

           -------------------------------------------------
          | TOTAL ENERGY             -215.605354368341 Eh   |
          | GRADIENT NORM               0.000426867137 Eh/α |
          | HOMO-LUMO GAP               0.005946821225 eV   |
           -------------------------------------------------

 * finished run on 2022/07/30 at 08:27:57.002
