   * xtb version 6.5.1 (b24c23e) compiled by 'conda@728c89f4b128' on 2022-07-12
          program call               : xtb Fe_PhNO2_C6_2.xyz --gfn 1 --opt -T 48

   ID    Z sym.   atoms
    1   26 Fe     1, 61
    2    6 C      2-6, 8-12, 16-20, 22-27, 29-33, 37-42, 62-66, 68-72, 76-80,
                  82-87, 89-93, 97-102, 121-126
    3    7 N      7, 13, 21, 28, 34, 43, 67, 73, 81, 88, 94, 103
    4    8 O      14, 15, 35, 36, 74, 75, 95, 96
    5    1 H      44-60, 104-120
########################################################################
[WARNING] Please study the warnings concerning your input carefully
-1- prog_main_parseArguments: Unknown option '-T' provided
########################################################################

          :  Hamiltonian                  GFN1-xTB          :
 * total energy  :  -247.3324199 Eh     change       -0.5873602E-08 Eh
 * total energy  :  -247.4795480 Eh     change       -0.1471281E+00 Eh
 * total energy  :  -247.5462665 Eh     change       -0.6671858E-01 Eh
 * total energy  :  -247.5650741 Eh     change       -0.1880757E-01 Eh
 * total energy  :  -247.5768260 Eh     change       -0.1175191E-01 Eh
 * total energy  :  -247.5822719 Eh     change       -0.5445927E-02 Eh
 * total energy  :  -247.5875132 Eh     change       -0.5241254E-02 Eh
 * total energy  :  -247.5903687 Eh     change       -0.2855475E-02 Eh
 * total energy  :  -247.5922641 Eh     change       -0.1895392E-02 Eh
 * total energy  :  -247.5934311 Eh     change       -0.1167028E-02 Eh
 * total energy  :  -247.5962341 Eh     change       -0.2052402E-04 Eh
 * total energy  :  -247.5962543 Eh     change       -0.2019323E-04 Eh
 * total energy  :  -247.5962625 Eh     change       -0.8234162E-05 Eh
 * total energy  :  -247.5962767 Eh     change       -0.1421526E-04 Eh
 * total energy  :  -247.5962863 Eh     change       -0.9601703E-05 Eh
 * total energy  :  -247.5962951 Eh     change       -0.8794879E-05 Eh
 * total energy  :  -247.5962983 Eh     change       -0.3166987E-05 Eh
 * total energy  :  -247.5963044 Eh     change       -0.6102531E-05 Eh
 * total energy  :  -247.5963088 Eh     change       -0.4377877E-05 Eh
   *** GEOMETRY OPTIMIZATION CONVERGED AFTER 36 ITERATIONS ***

 final structure:
================
126
 xtb: 6.5.1 (b24c23e)
Fe          14.67342576475470       -0.03348692613542        0.00297444110672
C           11.28834297480814       -0.04313301749623       -0.16304926468305
C           11.93992456650589       -1.25858267469723       -0.20038132666391
C           11.26495888857237       -2.51976913469830       -0.26405318911855
C           12.22413534084264       -3.46731686794384       -0.38391409021384
C           13.48386720475317       -2.78089838685394       -0.40673463682530
N           13.29790858321432       -1.43373785714909       -0.25604150672317
C           14.70930909019699       -3.40809904427461       -0.60558934149281
C           14.72428162618044       -4.86569441715992       -0.86484131249882
C           15.38727298528466       -5.73271823377382        0.00882084202934
C           15.40540127680445       -7.09445814415639       -0.23248280516345
C           14.75920691126374       -7.59252706296977       -1.36026830592272
N           14.77865596320949       -9.02153913831030       -1.62093930844795
O           14.19829819238064       -9.41761960454273       -2.59889802955656
O           15.37554816796925       -9.72172509889605       -0.84368994233898
C           14.09503652101961       -6.74598393115849       -2.24333048892024
C           14.07820474410093       -5.38652775930502       -1.99002183250869
C           15.91931611273951       -2.72802675299283       -0.58067983454285
C           17.18852433602780       -3.34082366658811       -0.83909602002458
C           18.12943174496217       -2.38637595501694       -0.64276145892283
N           16.08439969570043       -1.39834243734905       -0.27630466254088
C           17.43236148073316       -1.19384891038746       -0.27545903627434
C           18.08244583539952       -0.01063445583551        0.09602418216359
C           17.39584227990130        1.16275193353577        0.43081206523213
C           18.05216463743333        2.35860483901678        0.85732597128264
C           17.08906892660867        3.30121243810199        0.99611303808744
C           15.84811812054188        2.67823015045416        0.64231227983201
N           16.04977052409746        1.35485219633862        0.33220482110200
C           14.63228770526375        3.34552562252405        0.58410044156386
C           14.60998623259076        4.80093942477573        0.85635306537469
C           13.88003555014111        5.30336416691873        1.93767855330913
C           13.85679528104386        6.66117180367818        2.19932349104646
C           14.56460549831862        7.52457670103576        1.36808902706796
N           14.53961145758531        8.95226944776018        1.63564627307408
O           13.88931560249526        9.33188407052039        2.57533074029903
O           15.17052807218371        9.66809925091077        0.90113532457363
C           15.29509700138155        7.04474104674833        0.28483478396424
C           15.31719698935164        5.68441933728232        0.03568621125962
C           13.43238073904235        2.70905339096342        0.28417416919460
C           12.17232665529913        3.38527732408215        0.16634358185427
C           11.23543747828553        2.43180159603644       -0.04585875863829
C           11.92475990636602        1.17683930346503       -0.06669597806611
N           13.27278585157057        1.36317346899658        0.09677560958635
H           10.20525585527097       -0.04729228888952       -0.20864290886831
H           10.19482212898213       -2.64419314035928       -0.22014732242303
H           12.10251147206231       -4.53645927425407       -0.44680870062429
H           15.87726759269983       -5.33300685329752        0.88897467874635
H           15.91174344962969       -7.77542355445171        0.44105179355694
H           13.60356609711767       -7.15857853504753       -3.11621153893619
H           13.57535214817565       -4.71480961235308       -2.67591235647514
H           17.33192456817803       -4.36653999161983       -1.13699832640469
H           19.20035185471211       -2.46845377752608       -0.73389913529047
H           19.11304887563803        2.44930822705577        1.02575336154205
H           17.19884792961232        4.32491987787175        1.31470436468441
H           13.34174716359894        4.61894322470346        2.58286387175187
H           13.29952066891605        7.05980174527312        3.03848790213803
H           15.83417445787163        7.73848880876594       -0.34905441120484
H           15.87312330674903        5.29873712685153       -0.81086751535804
H           12.03597071781110        4.45236304610712        0.23367887184269
H           10.17137465620152        2.54742396700267       -0.17629074025362
Fe          30.65432142272576        0.02945504063468        0.01496940753170
C           34.03937650800398        0.10104040380413       -0.13883280878861
C           33.38804952155253        1.24118151111205        0.28447195753850
C           34.06304446188304        2.43362604797287        0.70004988849023
C           33.10387926990947        3.35669487844769        0.94543398593337
C           31.84416995422848        2.72927866808853        0.66606305501996
N           32.03006336290907        1.42442958297059        0.29876258388204
C           30.61888959204175        3.38545398182773        0.71711879528837
C           30.60431003219438        4.83383015394325        1.02413453197212
C           29.94501693807044        5.30909274579944        2.16160960485855
C           29.92706134431610        6.66187054605992        2.44903918293607
C           30.56928982653336        7.54716948735137        1.58806190420406
N           30.54918963319004        8.96965042720337        1.88237949402227
O           31.12581235983825        9.70410865819917        1.12194471110282
O           29.95627765098586        9.32670508037949        2.86788984055024
C           31.22974035950393        7.09433728192692        0.44955279367873
C           31.24688666098361        5.73913925332588        0.17437663929980
C           29.40875088494182        2.74629498992754        0.48447342482510
C           28.13970300507800        3.41159239685225        0.47555698011789
C           27.19856914800453        2.45353900687347        0.29881721269041
N           29.24337678806210        1.39975021985484        0.26671611386201
C           27.89536850206323        1.21021094211574        0.19100543725523
C           27.24509439388276       -0.02583861920070        0.09143488528093
C           27.93166424302152       -1.23923248523676       -0.03789829774568
C           27.27537315961667       -2.50782783721105       -0.08996991089370
C           28.23846991584939       -3.43383120939815       -0.31419370399745
C           29.47936338004941       -2.72364565566202       -0.40933374795289
N           29.27767327690872       -1.38036641721693       -0.20170389481211
C           30.69508206591841       -3.32045928453150       -0.71374106095269
C           30.71749693248869       -4.77207675093244       -1.00565444817354
C           31.44702954855055       -5.64233731566119       -0.19023811370821
C           31.47047253714252       -6.99947515872020       -0.45532149265509
C           30.76349199290159       -7.48935670279449       -1.54966206442855
N           30.78924316003218       -8.91345272160527       -1.83577212837065
O           31.43752312474992       -9.61715393041064       -1.10462075284168
O           30.16045546856461       -9.30249289683739       -2.78614836418099
C           30.03336267214912       -6.63931057900950       -2.37527242305832
C           30.01087601204414       -5.28453644114039       -2.09753456895279
C           31.89486739753812       -2.61786088285319       -0.75469694232203
C           33.15455649370813       -3.20056017803717       -1.11872780055834
C           34.09148825634629       -2.23684905889582       -0.95956970938095
C           33.40258838043339       -1.06565228076360       -0.50758827321217
N           32.05462784882267       -1.29972062414696       -0.42466790720744
H           35.12243034162044        0.12200385775626       -0.18035689733061
H           35.13318021177861        2.53226188503854        0.78776176908218
H           33.22530656775043        4.37100647926363        1.28931729871369
H           29.45770037110373        4.60792298229034        2.82899568229124
H           29.42373070008411        7.03995237133007        3.33074983251746
H           31.71825062614218        7.80472189048588       -0.20650960091218
H           31.74710975144680        5.37411401698745       -0.71501546631936
H           27.99667084971556        4.47408346096144        0.58543673442235
H           26.12764767683752        2.56402729920605        0.24548196294005
H           26.21452678304219       -2.65503580816682        0.03251401830892
H           28.12879964631429       -4.50238532117312       -0.40191773942153
H           31.98483163010610       -5.24876553554529        0.66434823105818
H           32.02738933269431       -7.68298168403372        0.17421445442580
H           29.49486848497007       -7.04568186276400       -3.22296864293080
H           29.45515121038099       -4.61026785776270       -2.73861926056723
H           33.29061559857509       -4.21521832795353       -1.45601570520605
H           35.15535873177893       -2.29503109876584       -1.12511380780997
C           23.27887273353312       -0.03872230543115        0.15369470285491
C           22.04875243748583       -0.02332793861429        0.15623086856130
C           20.70798143921198       -0.01396195004679        0.14777340833985
C           19.48246762313038       -0.00435560248266        0.13163786219778
C           24.61962409459932       -0.04373893883084        0.14183508637641
C           25.84509020963521       -0.04515931743622        0.12208652091097

          :  Hamiltonian                  GFN1-xTB          :
         :: total energy            -247.596308754012 Eh    ::
         :: gradient norm              0.000733906093 Eh/a0 ::
         :: HOMO-LUMO gap              0.083495753422 eV    ::
         :: SCC energy              -251.089235224771 Eh    ::
         :: repulsion energy           3.605940771542 Eh    ::

    * Orbital Energies and Occupations

         #    Occupation            Energy/Eh            Energy/eV
      -------------------------------------------------------------
         1        2.0000           -0.9243053             -25.1516
       ...           ...                  ...                  ...
       207        2.0000           -0.4513642             -12.2822
       208        2.0000           -0.4475605             -12.1787
       209        2.0000           -0.4404810             -11.9861
       210        2.0000           -0.4216532             -11.4738
       211        2.0000           -0.4215199             -11.4701
       212        2.0000           -0.4214985             -11.4696
       213        1.9923           -0.4145183             -11.2796
       214        1.9922           -0.4145156             -11.2795
       215        1.9440           -0.4126137             -11.2278
       216        1.9426           -0.4125897             -11.2271
       217        1.9346           -0.4124617             -11.2237
       218        1.9345           -0.4124608             -11.2236
       219        1.6563           -0.4107383             -11.1768 (HOMO)
       220        0.3203           -0.4076698             -11.0933 (LUMO)
       221        0.2832           -0.4075322             -11.0895
       222                         -0.3640199              -9.9055
       223                         -0.3589591              -9.7678
       224                         -0.3589412              -9.7673
       225                         -0.3512362              -9.5576
       226                         -0.3511258              -9.5546
       227                         -0.3511083              -9.5541
       228                         -0.3444137              -9.3720
       229                         -0.3443602              -9.3705
       230                         -0.3264223              -8.8824
       ...                                ...                  ...
       446                          1.5510283              42.2056
      -------------------------------------------------------------
                  HL-Gap            0.0030684 Eh            0.0835 eV

Wiberg/Mayer (AO) data.
largest (>0.10) Wiberg bond orders for each atom

     #   Z sym  total        # sym  WBO       # sym  WBO       # sym  WBO
 ---------------------------------------------------------------------------
     1  26 Fe   3.122 --    43 N    0.670     7 N    0.666    21 N    0.661
                            28 N    0.658
     2   6 C    3.921 --    42 C    1.364     3 C    1.363    44 H    0.970
     3   6 C    3.921 --     2 C    1.363     7 N    1.208     4 C    1.172
     4   6 C    3.958 --     5 C    1.651     3 C    1.172    45 H    0.974
     5   6 C    3.961 --     4 C    1.651     6 C    1.173    46 H    0.973
     6   6 C    3.920 --     8 C    1.312     7 N    1.225     5 C    1.173
     7   7 N    3.380 --     6 C    1.225     3 C    1.208     1 Fe   0.666
     8   6 C    3.922 --    18 C    1.330     6 C    1.312     9 C    1.032
     9   6 C    3.985 --    10 C    1.384    17 C    1.384     8 C    1.032
    10   6 C    3.986 --    11 C    1.463     9 C    1.384    47 H    0.971
                            16 C    0.102
    11   6 C    3.987 --    10 C    1.463    12 C    1.388    48 H    0.964
                            17 C    0.102
    12   6 C    3.942 --    11 C    1.388    16 C    1.388    13 N    0.920
    13   7 N    3.866 --    14 O    1.455    15 O    1.455    12 C    0.920
    14   8 O    1.830 --    13 N    1.455    15 O    0.252
    15   8 O    1.830 --    13 N    1.455    14 O    0.252
    16   6 C    3.987 --    17 C    1.463    12 C    1.388    49 H    0.964
                            10 C    0.102
    17   6 C    3.986 --    16 C    1.463     9 C    1.384    50 H    0.971
                            11 C    0.102
    18   6 C    3.916 --     8 C    1.330    21 N    1.202    19 C    1.178
    19   6 C    3.955 --    20 C    1.638    18 C    1.178    51 H    0.973
    20   6 C    3.959 --    19 C    1.638    22 C    1.188    52 H    0.973
    21   7 N    3.381 --    22 C    1.244    18 C    1.202     1 Fe   0.661
    22   6 C    3.900 --    23 C    1.250    21 N    1.244    20 C    1.188
    23   6 C    3.922 --    22 C    1.250    24 C    1.250   124 C    1.205
    24   6 C    3.901 --    23 C    1.250    28 N    1.244    25 C    1.188
    25   6 C    3.959 --    26 C    1.638    24 C    1.188    53 H    0.973
    26   6 C    3.955 --    25 C    1.638    27 C    1.179    54 H    0.973
    27   6 C    3.916 --    29 C    1.331    28 N    1.202    26 C    1.179
    28   7 N    3.379 --    24 C    1.244    27 C    1.202     1 Fe   0.658
    29   6 C    3.922 --    27 C    1.331    39 C    1.312    30 C    1.032
    30   6 C    3.985 --    38 C    1.385    31 C    1.384    29 C    1.032
    31   6 C    3.986 --    32 C    1.463    30 C    1.384    55 H    0.971
                            37 C    0.102
    32   6 C    3.987 --    31 C    1.463    33 C    1.388    56 H    0.964
                            38 C    0.102
    33   6 C    3.942 --    37 C    1.388    32 C    1.388    34 N    0.920
    34   7 N    3.866 --    36 O    1.455    35 O    1.455    33 C    0.920
    35   8 O    1.830 --    34 N    1.455    36 O    0.252
    36   8 O    1.830 --    34 N    1.455    35 O    0.252
    37   6 C    3.987 --    38 C    1.463    33 C    1.388    57 H    0.964
                            31 C    0.102
    38   6 C    3.986 --    37 C    1.463    30 C    1.385    58 H    0.971
                            32 C    0.102
    39   6 C    3.920 --    29 C    1.312    43 N    1.225    40 C    1.173
    40   6 C    3.961 --    41 C    1.651    39 C    1.173    59 H    0.973
    41   6 C    3.958 --    40 C    1.651    42 C    1.171    60 H    0.974
    42   6 C    3.921 --     2 C    1.364    43 N    1.207    41 C    1.171
    43   7 N    3.381 --    39 C    1.225    42 C    1.207     1 Fe   0.670
    44   1 H    1.000 --     2 C    0.970
    45   1 H    0.997 --     4 C    0.974
    46   1 H    1.003 --     5 C    0.973
    47   1 H    1.003 --    10 C    0.971
    48   1 H    1.006 --    11 C    0.964
    49   1 H    1.006 --    16 C    0.964
    50   1 H    1.003 --    17 C    0.971
    51   1 H    1.003 --    19 C    0.973
    52   1 H    1.001 --    20 C    0.973
    53   1 H    1.001 --    25 C    0.973
    54   1 H    1.003 --    26 C    0.973
    55   1 H    1.003 --    31 C    0.971
    56   1 H    1.006 --    32 C    0.964
    57   1 H    1.006 --    37 C    0.964
    58   1 H    1.003 --    38 C    0.971
    59   1 H    1.003 --    40 C    0.973
    60   1 H    0.997 --    41 C    0.974
    61  26 Fe   3.126 --   103 N    0.671    67 N    0.667    81 N    0.662
                            88 N    0.658
    62   6 C    3.922 --   102 C    1.364    63 C    1.363   104 H    0.970
    63   6 C    3.921 --    62 C    1.363    67 N    1.208    64 C    1.172
    64   6 C    3.958 --    65 C    1.651    63 C    1.172   105 H    0.974
    65   6 C    3.961 --    64 C    1.651    66 C    1.173   106 H    0.973
    66   6 C    3.921 --    68 C    1.312    67 N    1.225    65 C    1.173
    67   7 N    3.380 --    66 C    1.225    63 C    1.208    61 Fe   0.667
    68   6 C    3.922 --    78 C    1.330    66 C    1.312    69 C    1.032
    69   6 C    3.985 --    70 C    1.384    77 C    1.384    68 C    1.032
    70   6 C    3.986 --    71 C    1.463    69 C    1.384   107 H    0.971
                            76 C    0.102
    71   6 C    3.987 --    70 C    1.463    72 C    1.388   108 H    0.964
                            77 C    0.102
    72   6 C    3.942 --    71 C    1.388    76 C    1.388    73 N    0.920
    73   7 N    3.866 --    74 O    1.455    75 O    1.455    72 C    0.920
    74   8 O    1.830 --    73 N    1.455    75 O    0.252
    75   8 O    1.830 --    73 N    1.455    74 O    0.252
    76   6 C    3.987 --    77 C    1.463    72 C    1.388   109 H    0.964
                            70 C    0.102
    77   6 C    3.986 --    76 C    1.463    69 C    1.384   110 H    0.971
                            71 C    0.102
    78   6 C    3.916 --    68 C    1.330    81 N    1.202    79 C    1.178
    79   6 C    3.955 --    80 C    1.639    78 C    1.178   111 H    0.973
    80   6 C    3.959 --    79 C    1.639    82 C    1.188   112 H    0.973
    81   7 N    3.381 --    82 C    1.244    78 C    1.202    61 Fe   0.662
    82   6 C    3.900 --    83 C    1.250    81 N    1.244    80 C    1.188
    83   6 C    3.922 --    82 C    1.250    84 C    1.250   126 C    1.205
    84   6 C    3.901 --    83 C    1.250    88 N    1.244    85 C    1.188
    85   6 C    3.959 --    86 C    1.638    84 C    1.188   113 H    0.973
    86   6 C    3.955 --    85 C    1.638    87 C    1.179   114 H    0.973
    87   6 C    3.916 --    89 C    1.331    88 N    1.202    86 C    1.179
    88   7 N    3.379 --    84 C    1.244    87 C    1.202    61 Fe   0.658
    89   6 C    3.922 --    87 C    1.331    99 C    1.312    90 C    1.031
    90   6 C    3.985 --    98 C    1.385    91 C    1.384    89 C    1.031
    91   6 C    3.986 --    92 C    1.463    90 C    1.384   115 H    0.971
                            97 C    0.102
    92   6 C    3.987 --    91 C    1.463    93 C    1.388   116 H    0.964
                            98 C    0.102
    93   6 C    3.942 --    97 C    1.388    92 C    1.388    94 N    0.920
    94   7 N    3.866 --    96 O    1.455    95 O    1.455    93 C    0.920
    95   8 O    1.830 --    94 N    1.455    96 O    0.252
    96   8 O    1.830 --    94 N    1.455    95 O    0.252
    97   6 C    3.987 --    98 C    1.463    93 C    1.388   117 H    0.964
                            91 C    0.102
    98   6 C    3.986 --    97 C    1.463    90 C    1.385   118 H    0.971
                            92 C    0.102
    99   6 C    3.920 --    89 C    1.312   103 N    1.225   100 C    1.173
   100   6 C    3.961 --   101 C    1.651    99 C    1.173   119 H    0.973
   101   6 C    3.958 --   100 C    1.651   102 C    1.171   120 H    0.974
   102   6 C    3.921 --    62 C    1.364   103 N    1.207   101 C    1.171
   103   7 N    3.382 --    99 C    1.225   102 C    1.207    61 Fe   0.671
   104   1 H    1.000 --    62 C    0.970
   105   1 H    0.997 --    64 C    0.974
   106   1 H    1.003 --    65 C    0.973
   107   1 H    1.003 --    70 C    0.971
   108   1 H    1.006 --    71 C    0.964
   109   1 H    1.006 --    76 C    0.964
   110   1 H    1.003 --    77 C    0.971
   111   1 H    1.003 --    79 C    0.973
   112   1 H    1.001 --    80 C    0.973
   113   1 H    1.001 --    85 C    0.973
   114   1 H    1.003 --    86 C    0.973
   115   1 H    1.003 --    91 C    0.971
   116   1 H    1.006 --    92 C    0.964
   117   1 H    1.006 --    97 C    0.964
   118   1 H    1.003 --    98 C    0.971
   119   1 H    1.003 --   100 C    0.973
   120   1 H    0.997 --   101 C    0.974
   121   6 C    3.913 --   122 C    2.338   125 C    1.353   124 C    0.186
   122   6 C    3.913 --   121 C    2.338   123 C    1.353   126 C    0.186
   123   6 C    3.922 --   124 C    2.422   122 C    1.353
   124   6 C    3.877 --   123 C    2.422    23 C    1.205   121 C    0.186
   125   6 C    3.922 --   126 C    2.422   121 C    1.353
   126   6 C    3.877 --   125 C    2.422    83 C    1.205   122 C    0.186
 ---------------------------------------------------------------------------

           -------------------------------------------------
          | TOTAL ENERGY             -247.596308754012 Eh   |
          | GRADIENT NORM               0.000733906093 Eh/α |
          | HOMO-LUMO GAP               0.083495753422 eV   |
           -------------------------------------------------

 * finished run on 2022/07/29 at 20:51:29.689
