   * xtb version 6.5.1 (b24c23e) compiled by 'conda@728c89f4b128' on 2022-07-12
          program call               : xtb Fe_Py_C6_2.xyz --gfn 1 --opt -T 48

   ID    Z sym.   atoms
    1   26 Fe     1, 55
    2    6 C      2-6, 8-11, 13-17, 19-24, 26-29, 31-36, 56-60, 62-65, 67-71,
                  73-78, 80-83, 85-90, 109-114
    3    7 N      7, 12, 18, 25, 30, 37, 61, 66, 72, 79, 84, 91
    4    1 H      38-54, 92-108
########################################################################
[WARNING] Please study the warnings concerning your input carefully
-1- prog_main_parseArguments: Unknown option '-T' provided
########################################################################

          :  Hamiltonian                  GFN1-xTB          :
 * total energy  :  -201.5014655 Eh     change       -0.8038512E-09 Eh
 * total energy  :  -201.8150923 Eh     change       -0.3136269E+00 Eh
 * total energy  :  -201.8841285 Eh     change       -0.6903614E-01 Eh
 * total energy  :  -201.9149157 Eh     change       -0.3078720E-01 Eh
 * total energy  :  -201.9251242 Eh     change       -0.1020855E-01 Eh
 * total energy  :  -201.9306634 Eh     change       -0.5539182E-02 Eh
 * total energy  :  -201.9334153 Eh     change       -0.2751938E-02 Eh
 * total energy  :  -201.9349509 Eh     change       -0.1535573E-02 Eh
 * total energy  :  -201.9359918 Eh     change       -0.1040888E-02 Eh
 * total energy  :  -201.9367104 Eh     change       -0.7186205E-03 Eh
 * total energy  :  -201.9388493 Eh     change       -0.1082784E-04 Eh
 * total energy  :  -201.9388609 Eh     change       -0.1154539E-04 Eh
 * total energy  :  -201.9388729 Eh     change       -0.1206582E-04 Eh
 * total energy  :  -201.9388854 Eh     change       -0.1245125E-04 Eh
 * total energy  :  -201.9388974 Eh     change       -0.1205379E-04 Eh
 * total energy  :  -201.9389079 Eh     change       -0.1044879E-04 Eh
 * total energy  :  -201.9389162 Eh     change       -0.8334010E-05 Eh
 * total energy  :  -201.9389229 Eh     change       -0.6674097E-05 Eh
 * total energy  :  -201.9389241 Eh     change       -0.1197981E-05 Eh
   *** GEOMETRY OPTIMIZATION CONVERGED AFTER 44 ITERATIONS ***

 final structure:
================
114
 xtb: 6.5.1 (b24c23e)
Fe          11.10273881983164       -0.05808880264074       -0.06343742222348
C            7.71224541444553       -0.07230188733632       -0.12409931722014
C            8.36010571203839       -1.28886896316350       -0.07006263727890
C            7.67591330212686       -2.54630946182531       -0.03790663758432
C            8.62460347684791       -3.49979180705942        0.11261263596485
C            9.88890274540467       -2.82332270449101        0.15697143820928
N            9.71362543508875       -1.47100644027609        0.04095655651264
C           11.10519823573450       -3.46540017714626        0.36070098284325
C           11.10545047714968       -4.93712924260323        0.53739998463676
C           11.48294397808141       -5.51950314538482        1.74614370597400
C           11.46027150210690       -6.90033106577151        1.86555118812343
N           11.09885458319024       -7.70721262261177        0.87329877339903
C           10.74235798611268       -7.15935791666936       -0.28390194984937
C           10.72682210466763       -5.79004211618025       -0.49814391684367
C           12.31933630068038       -2.79543902536978        0.38877850577381
C           13.58546788556137       -3.45101842315211        0.53030368702423
C           14.53662952487236       -2.49623490850595        0.39581647546102
N           12.49910572930235       -1.44690343361719        0.18874577425497
C           13.84960663525572       -1.26232433510089        0.17508813466249
C           14.51281456707201       -0.05041668350396       -0.05371298553183
C           13.84115598116675        1.16376431980467       -0.24242027382514
C           14.51889594857801        2.40050906335448       -0.47542073414305
C           13.56562163403253        3.36140127916381       -0.52693268216780
C           12.30779650985629        2.70634316368372       -0.32406022283580
N           12.49284959294190        1.35291892223138       -0.17169001518057
C           11.08899720162388        3.36885014894977       -0.29033649991923
C           11.08465983802097        4.84534928262121       -0.40719341331435
C           10.47084396605635        5.48327630136962       -1.48448239902083
C           10.49687556512698        6.86719186694883       -1.55385288397405
N           11.07918721069530        7.62759144446775       -0.63234726855680
C           11.66497456900436        7.02727891361440        0.39861255531417
C           11.69695468690432        5.65015125321385        0.55255713136229
C            9.87132829272334        2.70713742407877       -0.17756119371480
C            8.60026192207436        3.37114170305322       -0.13799853879599
C            7.65448420114656        2.40325878730237       -0.11080598474769
C            8.34903574132714        1.15122631250817       -0.11466242664916
N            9.70491136494061        1.34948894375144       -0.12483046989750
H            6.62860299103052       -0.07781999877401       -0.15925014970540
H            6.60618568113025       -2.66241689341243       -0.10950465784304
H            8.49246148615439       -4.56616477487758        0.19673273778958
H           11.77583748753114       -4.89948107334300        2.58494202615644
H           11.74450301503487       -7.37814231545474        2.79852201027900
H           10.45551715481307       -7.84489953141831       -1.07592252772805
H           10.43829795053279       -5.38748802904882       -1.46174255653109
H           13.71846815072789       -4.50824063798868        0.69180472442879
H           15.60871718334315       -2.60314676607944        0.43319384005003
H           15.58646581975038        2.50419709218708       -0.58329662264321
H           13.69137930136516        4.41795119911299       -0.69822258223000
H            9.99420433732943        4.90276750048456       -2.26530944438110
H           10.02927984561273        7.38662580962252       -2.38516237450335
H           12.13103573392413        7.67563946589167        1.13478297205540
H           12.17817423471307        5.20447601726443        1.41490658005548
H            8.46264519259380        4.44011779037859       -0.12979289302303
H            6.58140141614134        2.50712232845731       -0.08540270957933
Fe          27.08743782633722        0.03676885181284       -0.07623674075519
C           30.47807041006639        0.03250783536505       -0.13748983043140
C           29.83039477031027        1.21220761827303       -0.43996992851193
C           30.51470487763101        2.42472998688461       -0.77438686761512
C           29.56602235613233        3.38070564523131       -0.90825389787638
C           28.30161610562781        2.74625100158617       -0.66995477756300
N           28.47681725809826        1.41865967597312       -0.38764340546827
C           27.08528826981057        3.41974258682738       -0.66266931135175
C           27.08503001223312        4.87915145395719       -0.92228919238588
C           26.70779245350422        5.78833723524447        0.06452510964849
C           26.72997418374823        7.14404533984023       -0.22356458541260
N           27.09069633555970        7.62690170448414       -1.40804580347777
C           27.44713466980922        6.76575891872780       -2.35552129107409
C           27.46314516954733        5.39342584926596       -2.16151496353153
C           25.87108833467338        2.78705834702562       -0.44089062515894
C           24.60505178872113        3.45569403976993       -0.49567519231699
C           23.65378433789584        2.50333822529980       -0.34569303326121
N           25.69114138049248        1.43872295365507       -0.23965421018854
C           24.34060896123942        1.25841117646506       -0.19829234304243
C           23.67716764555503        0.03241687162506       -0.06531505590826
C           24.34865988982925       -1.18432990845014        0.10666630753158
C           23.67085551119920       -2.43544312275690        0.24247496716866
C           24.62412532774137       -3.37004703969328        0.47159510108778
C           25.88196015145361       -2.68432803907213        0.47582266854569
N           25.69694277809793       -1.34488536402630        0.22905509548801
C           27.10066547862371       -3.30831773321092        0.70126081451688
C           27.10505469737621       -4.75518391553766        1.01799172877118
C           27.71933551067153       -5.67815229461810        0.17239642631812
C           27.69356883685408       -7.02263265937389        0.50769256749416
N           27.11094556785451       -7.48297323613146        1.61001690812154
C           26.52467552256562       -6.60942155457673        2.42217918673711
C           26.49252424463062       -5.24689452220709        2.16982677136186
C           28.31830251369661       -2.64216839760275        0.61836993914505
C           29.58914298967945       -3.26589118951366        0.85073113830626
C           30.53515926885795       -2.33197308721175        0.59600313348093
C           29.84095919336292       -1.13525973425055        0.22726063190640
N           28.48504293352920       -1.32791623801109        0.27395104140179
H           31.56172804810048        0.02745820183643       -0.17218509361842
H           31.58450395193128        2.51509724590837       -0.87584746018207
H           29.69817297196140        4.42551327654653       -1.13763493304432
H           26.41539654620718        5.43948315840004        1.04768307816084
H           26.44584972810452        7.87288285110934        0.52982312537361
H           27.73334161568838        7.19087174999594       -3.31307509249713
H           27.75161519102390        4.72767042646776       -2.96611076947391
H           24.47220037698113        4.51417152222200       -0.64887407378681
H           22.58172606646161        2.61672196532298       -0.34020767282307
H           22.60325952708161       -2.56590799189734        0.16954572140726
H           24.49835144567998       -4.43087182170821        0.61402093961853
H           28.19610400794080       -5.34911762515083       -0.74318969878347
H           28.16110843569396       -7.76094340239842       -0.13715785653339
H           26.05876314127189       -7.01629067897457        3.31487600025824
H           26.01107693758314       -4.57018199161958        2.86560969372553
H           29.72638559258165       -4.28618590786251        1.16991500675481
H           31.60818640491344       -2.42391053618879        0.65165533285921
C           19.71011408224129       -0.00719838786588       -0.10829357106680
C           18.47989745206275       -0.02694285621775       -0.10448508784373
C           17.13884505457597       -0.03575403110838       -0.09567283020481
C           15.91325682720648       -0.04800164155822       -0.08003371810789
C           21.05114002229652        0.00717152064041       -0.10330796764667
C           22.27673738610732        0.02229552232511       -0.09084358309757

          :  Hamiltonian                  GFN1-xTB          :
         :: total energy            -201.938924088648 Eh    ::
         :: gradient norm              0.000573938440 Eh/a0 ::
         :: HOMO-LUMO gap              0.093516732231 eV    ::
         :: SCC energy              -205.187460701415 Eh    ::
         :: repulsion energy           3.351485798598 Eh    ::

    * Orbital Energies and Occupations

         #    Occupation            Energy/Eh            Energy/eV
      -------------------------------------------------------------
         1        2.0000           -0.7761025             -21.1188
       ...           ...                  ...                  ...
       175        2.0000           -0.4223176             -11.4918
       176        2.0000           -0.4222772             -11.4907
       177        2.0000           -0.4220467             -11.4845
       178        2.0000           -0.4037670             -10.9871
       179        2.0000           -0.4037464             -10.9865
       180        2.0000           -0.4035239             -10.9804
       181        1.9917           -0.3960740             -10.7777
       182        1.9908           -0.3959713             -10.7749
       183        1.9459           -0.3942663             -10.7285
       184        1.9447           -0.3942450             -10.7280
       185        1.9397           -0.3941603             -10.7256
       186        1.9396           -0.3941592             -10.7256
       187        1.7330           -0.3926401             -10.6843 (HOMO)
       188        0.2968           -0.3892034             -10.5908 (LUMO)
       189        0.2179           -0.3888669             -10.5816
       190                         -0.3465320              -9.4296
       191                         -0.3353744              -9.1260
       192                         -0.3353476              -9.1253
       193                         -0.3336977              -9.0804
       194                         -0.3089517              -8.4070
       195                         -0.3089304              -8.4064
       196                         -0.3080298              -8.3819
       197                         -0.3010216              -8.1912
       198                         -0.2971469              -8.0858
       ...                                ...                  ...
       398                          1.5660841              42.6153
      -------------------------------------------------------------
                  HL-Gap            0.0034367 Eh            0.0935 eV

Wiberg/Mayer (AO) data.
largest (>0.10) Wiberg bond orders for each atom

     #   Z sym  total        # sym  WBO       # sym  WBO       # sym  WBO
 ---------------------------------------------------------------------------
     1  26 Fe   3.156 --    37 N    0.671     7 N    0.667    18 N    0.664
                            25 N    0.661
     2   6 C    3.925 --     3 C    1.363    36 C    1.363    38 H    0.970
     3   6 C    3.924 --     2 C    1.363     7 N    1.210     4 C    1.172
     4   6 C    3.959 --     5 C    1.651     3 C    1.172    39 H    0.975
     5   6 C    3.961 --     4 C    1.651     6 C    1.175    40 H    0.972
     6   6 C    3.921 --     8 C    1.313     7 N    1.225     5 C    1.175
     7   7 N    3.381 --     6 C    1.225     3 C    1.210     1 Fe   0.667
     8   6 C    3.928 --    15 C    1.336     6 C    1.313     9 C    1.023
     9   6 C    3.986 --    10 C    1.395    14 C    1.394     8 C    1.023
                            12 N    0.107
    10   6 C    3.987 --    11 C    1.441     9 C    1.395    41 H    0.973
                            13 C    0.109
    11   6 C    3.972 --    10 C    1.441    12 N    1.416    42 H    0.972
                            14 C    0.109
    12   7 N    3.031 --    11 C    1.416    13 C    1.416     9 C    0.107
    13   6 C    3.972 --    14 C    1.441    12 N    1.416    43 H    0.972
                            10 C    0.109
    14   6 C    3.987 --    13 C    1.441     9 C    1.394    44 H    0.973
                            11 C    0.109
    15   6 C    3.917 --     8 C    1.336    18 N    1.199    16 C    1.179
    16   6 C    3.956 --    17 C    1.639    15 C    1.179    45 H    0.973
    17   6 C    3.960 --    16 C    1.639    19 C    1.188    46 H    0.973
    18   7 N    3.382 --    19 C    1.247    15 C    1.199     1 Fe   0.664
    19   6 C    3.903 --    20 C    1.250    18 N    1.247    17 C    1.188
    20   6 C    3.925 --    19 C    1.250    21 C    1.250   112 C    1.205
    21   6 C    3.903 --    20 C    1.250    25 N    1.245    22 C    1.188
    22   6 C    3.960 --    23 C    1.638    21 C    1.188    47 H    0.973
    23   6 C    3.957 --    22 C    1.638    24 C    1.180    48 H    0.973
    24   6 C    3.917 --    26 C    1.332    25 N    1.201    23 C    1.180
    25   7 N    3.381 --    21 C    1.245    24 C    1.201     1 Fe   0.661
    26   6 C    3.928 --    24 C    1.332    33 C    1.314    27 C    1.028
    27   6 C    3.986 --    32 C    1.393    28 C    1.392    26 C    1.028
                            30 N    0.107
    28   6 C    3.986 --    29 C    1.442    27 C    1.392    49 H    0.973
                            31 C    0.109
    29   6 C    3.972 --    28 C    1.442    30 N    1.416    50 H    0.972
                            32 C    0.109
    30   7 N    3.030 --    31 C    1.416    29 C    1.416    27 C    0.107
    31   6 C    3.972 --    32 C    1.441    30 N    1.416    51 H    0.972
                            28 C    0.109
    32   6 C    3.987 --    31 C    1.441    27 C    1.393    52 H    0.973
                            29 C    0.109
    33   6 C    3.921 --    26 C    1.314    37 N    1.225    34 C    1.174
    34   6 C    3.961 --    35 C    1.650    33 C    1.174    53 H    0.972
    35   6 C    3.959 --    34 C    1.650    36 C    1.173    54 H    0.975
    36   6 C    3.924 --     2 C    1.363    37 N    1.210    35 C    1.173
    37   7 N    3.383 --    33 C    1.225    36 C    1.210     1 Fe   0.671
    38   1 H    1.000 --     2 C    0.970
    39   1 H    0.997 --     4 C    0.975
    40   1 H    1.004 --     5 C    0.972
    41   1 H    1.003 --    10 C    0.973
    42   1 H    1.013 --    11 C    0.972
    43   1 H    1.013 --    13 C    0.972
    44   1 H    1.003 --    14 C    0.973
    45   1 H    1.004 --    16 C    0.973
    46   1 H    1.001 --    17 C    0.973
    47   1 H    1.002 --    22 C    0.973
    48   1 H    1.004 --    23 C    0.973
    49   1 H    1.004 --    28 C    0.973
    50   1 H    1.013 --    29 C    0.972
    51   1 H    1.013 --    31 C    0.972
    52   1 H    1.003 --    32 C    0.973
    53   1 H    1.004 --    34 C    0.972
    54   1 H    0.997 --    35 C    0.975
    55  26 Fe   3.154 --    91 N    0.671    61 N    0.667    72 N    0.664
                            79 N    0.661
    56   6 C    3.925 --    57 C    1.363    90 C    1.363    92 H    0.970
    57   6 C    3.924 --    56 C    1.363    61 N    1.210    58 C    1.172
    58   6 C    3.959 --    59 C    1.651    57 C    1.172    93 H    0.975
    59   6 C    3.961 --    58 C    1.651    60 C    1.175    94 H    0.972
    60   6 C    3.921 --    62 C    1.313    61 N    1.225    59 C    1.175
    61   7 N    3.381 --    60 C    1.225    57 C    1.210    55 Fe   0.667
    62   6 C    3.927 --    69 C    1.336    60 C    1.313    63 C    1.023
    63   6 C    3.986 --    64 C    1.395    68 C    1.394    62 C    1.023
                            66 N    0.107
    64   6 C    3.987 --    65 C    1.441    63 C    1.395    95 H    0.973
                            67 C    0.109
    65   6 C    3.972 --    64 C    1.441    66 N    1.416    96 H    0.972
                            68 C    0.109
    66   7 N    3.031 --    65 C    1.416    67 C    1.416    63 C    0.107
    67   6 C    3.972 --    68 C    1.441    66 N    1.416    97 H    0.972
                            64 C    0.109
    68   6 C    3.987 --    67 C    1.441    63 C    1.394    98 H    0.973
                            65 C    0.109
    69   6 C    3.917 --    62 C    1.336    72 N    1.199    70 C    1.179
    70   6 C    3.956 --    71 C    1.639    69 C    1.179    99 H    0.973
    71   6 C    3.960 --    70 C    1.639    73 C    1.188   100 H    0.973
    72   7 N    3.382 --    73 C    1.247    69 C    1.199    55 Fe   0.664
    73   6 C    3.903 --    74 C    1.250    72 N    1.247    71 C    1.188
    74   6 C    3.925 --    73 C    1.250    75 C    1.250   114 C    1.205
    75   6 C    3.903 --    74 C    1.250    79 N    1.245    76 C    1.188
    76   6 C    3.960 --    77 C    1.638    75 C    1.188   101 H    0.973
    77   6 C    3.957 --    76 C    1.638    78 C    1.180   102 H    0.973
    78   6 C    3.917 --    80 C    1.332    79 N    1.201    77 C    1.180
    79   7 N    3.381 --    75 C    1.245    78 C    1.201    55 Fe   0.661
    80   6 C    3.928 --    78 C    1.332    87 C    1.314    81 C    1.028
    81   6 C    3.986 --    86 C    1.393    82 C    1.392    80 C    1.028
                            84 N    0.107
    82   6 C    3.986 --    83 C    1.442    81 C    1.392   103 H    0.973
                            85 C    0.109
    83   6 C    3.972 --    82 C    1.442    84 N    1.416   104 H    0.972
                            86 C    0.109
    84   7 N    3.030 --    85 C    1.416    83 C    1.416    81 C    0.107
    85   6 C    3.972 --    86 C    1.441    84 N    1.416   105 H    0.972
                            82 C    0.109
    86   6 C    3.987 --    85 C    1.441    81 C    1.393   106 H    0.973
                            83 C    0.109
    87   6 C    3.921 --    80 C    1.314    91 N    1.225    88 C    1.174
    88   6 C    3.961 --    89 C    1.650    87 C    1.174   107 H    0.973
    89   6 C    3.959 --    88 C    1.650    90 C    1.173   108 H    0.975
    90   6 C    3.924 --    56 C    1.363    91 N    1.210    89 C    1.173
    91   7 N    3.383 --    87 C    1.225    90 C    1.210    55 Fe   0.671
    92   1 H    1.000 --    56 C    0.970
    93   1 H    0.997 --    58 C    0.975
    94   1 H    1.004 --    59 C    0.972
    95   1 H    1.003 --    64 C    0.973
    96   1 H    1.013 --    65 C    0.972
    97   1 H    1.013 --    67 C    0.972
    98   1 H    1.003 --    68 C    0.973
    99   1 H    1.004 --    70 C    0.973
   100   1 H    1.001 --    71 C    0.973
   101   1 H    1.002 --    76 C    0.973
   102   1 H    1.004 --    77 C    0.973
   103   1 H    1.004 --    82 C    0.973
   104   1 H    1.013 --    83 C    0.972
   105   1 H    1.013 --    85 C    0.972
   106   1 H    1.003 --    86 C    0.973
   107   1 H    1.004 --    88 C    0.973
   108   1 H    0.997 --    89 C    0.975
   109   6 C    3.914 --   110 C    2.339   113 C    1.353   112 C    0.186
   110   6 C    3.914 --   109 C    2.339   111 C    1.353   114 C    0.186
   111   6 C    3.922 --   112 C    2.422   110 C    1.353
   112   6 C    3.879 --   111 C    2.422    20 C    1.205   109 C    0.186
   113   6 C    3.922 --   114 C    2.422   109 C    1.353
   114   6 C    3.879 --   113 C    2.422    74 C    1.205   110 C    0.186
 ---------------------------------------------------------------------------

           -------------------------------------------------
          | TOTAL ENERGY             -201.938924088648 Eh   |
          | GRADIENT NORM               0.000573938440 Eh/α |
          | HOMO-LUMO GAP               0.093516732231 eV   |
           -------------------------------------------------

 * finished run on 2022/07/29 at 17:09:36.444
