   * xtb version 6.5.1 (b24c23e) compiled by 'conda@728c89f4b128' on 2022-07-12
          program call               : xtb Co_DHP_C2_2.xyz --gfn 1 --opt -T 48

   ID    Z sym.   atoms
    1   27 Co     1, 59
    2    6 C      2-6, 8-11, 13-17, 19-24, 26-29, 31-36, 60-64, 66-69, 71-75,
                  77-82, 84-87, 89-94, 117, 118
    3    7 N      7, 12, 18, 25, 30, 37, 65, 70, 76, 83, 88, 95
    4    1 H      38-58, 96-116
########################################################################
[WARNING] Please study the warnings concerning your input carefully
-1- prog_main_parseArguments: Unknown option '-T' provided
########################################################################

          :  Hamiltonian                  GFN1-xTB          :
 * total energy  :  -198.7451468 Eh     change        0.2414993E-09 Eh
 * total energy  :  -198.8316482 Eh     change       -0.8650142E-01 Eh
 * total energy  :  -198.8826148 Eh     change       -0.5096664E-01 Eh
 * total energy  :  -198.8959979 Eh     change       -0.1338303E-01 Eh
 * total energy  :  -198.9039061 Eh     change       -0.7908211E-02 Eh
 * total energy  :  -198.9079076 Eh     change       -0.4001529E-02 Eh
 * total energy  :  -198.9099445 Eh     change       -0.2036927E-02 Eh
 * total energy  :  -198.9110627 Eh     change       -0.1118186E-02 Eh
 * total energy  :  -198.9117534 Eh     change       -0.6907005E-03 Eh
 * total energy  :  -198.9122237 Eh     change       -0.4702578E-03 Eh
 * total energy  :  -198.9143138 Eh     change       -0.2852435E-04 Eh
 * total energy  :  -198.9143380 Eh     change       -0.2424199E-04 Eh
 * total energy  :  -198.9143592 Eh     change       -0.2120832E-04 Eh
 * total energy  :  -198.9143789 Eh     change       -0.1973702E-04 Eh
 * total energy  :  -198.9143975 Eh     change       -0.1856296E-04 Eh
 * total energy  :  -198.9144143 Eh     change       -0.1677957E-04 Eh
 * total energy  :  -198.9144274 Eh     change       -0.1314730E-04 Eh
 * total energy  :  -198.9144363 Eh     change       -0.8843702E-05 Eh
 * total energy  :  -198.9144374 Eh     change       -0.1150968E-05 Eh
   *** GEOMETRY OPTIMIZATION CONVERGED AFTER 44 ITERATIONS ***

 final structure:
================
118
 xtb: 6.5.1 (b24c23e)
Co          15.23809000112621       -0.04720166248009       -0.04446648458956
C           11.86674083802760       -0.06854703201418       -0.14859472559748
C           12.52331428378094       -1.25850373612306        0.08367557533175
C           11.86149076013342       -2.50407690655704        0.32606976138514
C           12.82095480682982       -3.45969057810004        0.32640544661233
C           14.06587485969058       -2.79793937250477        0.06410711230531
N           13.87991716299786       -1.44062547932238       -0.01212254675914
C           15.25961539648263       -3.45331169546820       -0.20678557409627
C           15.27532758651329       -4.93152548725302       -0.28241202574616
C           14.50255259428222       -5.60031653841920       -1.15364689034102
C           14.49096693618080       -7.10278942070811       -1.24359892196898
N           15.63171319449482       -7.68837774391968       -0.53689046429865
C           16.27966175651278       -7.00166635318973        0.45276331670974
C           16.16811841174348       -5.66815389720171        0.59806819869101
C           16.44125139066148       -2.75743627577993       -0.42204760134424
C           17.68240053284127       -3.37374724176050       -0.78213772359284
C           18.62778434109801       -2.40397935741072       -0.73848886835504
N           16.61637685867592       -1.40781812148346       -0.22382362438359
C           17.96218314632335       -1.19967935136253       -0.35430278843641
C           18.62934872139409       -0.02103849623602       -0.01749572262175
C           17.93973884348604        1.14248642816001        0.32781616090236
C           18.57995875186715        2.34664396143974        0.75302762829699
C           17.61583502175690        3.29628477063234        0.82210748257154
C           16.39037322385995        2.67017576333508        0.42658723931141
N           16.59212844781776        1.32997685125419        0.18998414082846
C           15.20439049760280        3.35373345701204        0.19871768804823
C           15.18845097836598        4.82832446611495        0.32797580921450
C           14.37120664151081        5.44752228781333        1.19518903767827
C           14.32556057902532        6.94451776404995        1.34442243876116
N           15.46950055913538        7.58216039685598        0.68962222069909
C           16.16549307762057        6.94580400518887       -0.30081270862071
C           16.09264866388871        5.61578311630268       -0.49480328283682
C           14.03521879463572        2.69053134240993       -0.15021226565672
C           12.79976711910389        3.34397194732975       -0.47091815700768
C           11.85873782196402        2.37551701072669       -0.57218049973975
C           12.52176602157262        1.13193734893687       -0.32199749740764
N           13.86612245231865        1.32955336086927       -0.12847358373006
H           10.78370143751709       -0.07568023636011       -0.18694820886862
H           10.79831171959477       -2.61345723261175        0.47128862412777
H           12.70852183362111       -4.52005357244031        0.48507568900790
H           13.83539983723365       -5.08585798434612       -1.83533959311300
H           14.54089936988538       -7.42010698423468       -2.29452748041545
H           13.54648816223723       -7.50163407241582       -0.82891451967292
H           15.59303776021924       -8.69259984703498       -0.44450592899550
H           16.94710713512401       -7.60289359642988        1.06174715964023
H           16.72403700759765       -5.13773798192516        1.35797881498297
H           17.80357651688496       -4.41525174355103       -1.03238418671769
H           19.68415926558009       -2.48341605802066       -0.93854899152831
H           19.63277759678905        2.43891756972668        0.96593373011059
H           17.71540744070374        4.33090862720118        1.10782288220611
H           13.69072831940104        4.89354270489047        1.83126097802736
H           14.34378840421521        7.21983303135905        2.40828473858722
H           13.38284598051002        7.34048720075182        0.92336484005567
H           15.40777537490958        8.58766717308006        0.62966064800032
H           16.83603609965303        7.58390862785398       -0.86747011716009
H           16.68502379972194        5.12605704031890       -1.25449574708266
H           12.68145440875116        4.40783222016882       -0.59918870999675
H           10.80627966067041        2.47499752870624       -0.78623884120514
Co          26.05229162799871        0.05564846628557       -0.03331591393560
C           29.42363841712069        0.09884445639694       -0.13041336895716
C           28.76706234608765        1.21120593266507        0.35186814205181
C           29.42888189436683        2.37571505908766        0.85598274128035
C           28.46941751712201        3.30898478944436        1.06142080888149
C           27.22449842380797        2.71896076140659        0.66318588609227
N           27.41046014930298        1.40964910648503        0.29737892242720
C           26.03075924675617        3.41720643423003        0.53926592205608
C           26.01504138193428        4.87720131229486        0.78267236546390
C           26.78783900248580        5.71740159047408        0.07530847806499
C           26.79944491957124        7.20416460624998        0.30994831773067
N           25.65869781615972        7.62442199631875        1.12587301581355
C           25.01071436402430        6.74130092942611        1.94504102035955
C           25.12224529864108        5.40768097401826        1.80073243703431
C           24.84912723026349        2.78375591797577        0.17964102149946
C           23.60798273963088        3.46299168219017       -0.03979564489740
C           22.66259960106403        2.50645589485822       -0.20531568988193
N           24.67400467841699        1.42304699309708        0.08355632041300
C           23.32819885722937        1.24776356028646       -0.08855521469425
C           22.66103550503564        0.02430021039283       -0.01256423191084
C           23.35064889101744       -1.18622159512174        0.07496900471183
C           22.71043405910705       -2.45358213485918        0.23182378809328
C           23.67455712728829       -3.39591565473501        0.09545150282083
C           24.90001678264809       -2.69950384492650       -0.15647206722871
N           24.69825732939973       -1.33975584318172       -0.09991628855569
C           26.08599500869949       -3.31821772030862       -0.52576982533727
C           26.10193158616890       -4.78618376333163       -0.71603263897149
C           26.91919814240455       -5.57708479239003       -0.00195589053358
C           26.96483601101694       -7.07122220612445       -0.17750955518268
N           25.82084381349526       -7.55345987075726       -0.95383202352317
C           25.12482246929144       -6.71935983421141       -1.78458171152112
C           25.19769338472735       -5.37869671458035       -1.68861205290810
C           27.25516223654387       -2.59557416248986       -0.72423340946509
C           28.49060955497721       -3.16493930049562       -1.17774285378175
C           29.43163912557831       -2.19732154449067       -1.06876791482887
C           28.76861442367318       -1.03643484897264       -0.55746752345474
N           27.42425800646085       -1.27098378427550       -0.41087647860672
H           30.50667771569050        0.11404702900183       -0.16634353373560
H           30.49205912516843        2.45137324509743        1.02130716446304
H           28.58184867526514        4.31057186244448        1.44400176289009
H           27.45501848873023        5.36124220312488       -0.70089686164591
H           26.74951892845595        7.73965370652552       -0.64838287688666
H           27.74392415620227        7.50470356598769        0.80058231162172
H           25.69736642085610        8.58541179172652        1.43164147183099
H           24.34325104411203        7.19780928722765        2.66886056972501
H           24.56630512579688        4.72652477236898        2.42906873331843
H           23.48680705156807        4.53393505548307       -0.06066902405154
H           21.60622612885943        2.62698130742140       -0.38367115596828
H           21.65761820114876       -2.58940492572111        0.41997779353935
H           23.57498687153019       -4.46775138703528        0.15244643725581
H           27.59970063857784       -5.17253877851308        0.73817286408704
H           26.94666604271544       -7.56845827340689        0.80246923863500
H           27.90752089889527       -7.36759362220767       -0.67379782441751
H           25.88252900430368       -8.52267263904508       -1.22818341121743
H           24.45425156364668       -7.22097113111231       -2.47496138939131
H           24.60530771458619       -4.73733103572650       -2.32547976476005
H           28.60892084665467       -4.17646728561739       -1.53138560010127
H           30.48409582709126       -2.24853410214517       -1.29919660211217
C           20.03717423206388       -0.00715151475061       -0.01602447661392
C           21.25321012248017        0.01041786467949       -0.01410930329112

          :  Hamiltonian                  GFN1-xTB          :
         :: total energy            -198.914437423186 Eh    ::
         :: gradient norm              0.000220921097 Eh/a0 ::
         :: HOMO-LUMO gap              0.000172595265 eV    ::
         :: SCC energy              -201.908049641332 Eh    ::
         :: repulsion energy           3.098857700762 Eh    ::

    * Orbital Energies and Occupations

         #    Occupation            Energy/Eh            Energy/eV
      -------------------------------------------------------------
         1        2.0000           -0.7848404             -21.3566
       ...           ...                  ...                  ...
       172        2.0000           -0.3836632             -10.4400
       173        2.0000           -0.3794064             -10.3242
       174        2.0000           -0.3793627             -10.3230
       175        1.9999           -0.3765175             -10.2456
       176        1.9999           -0.3764836             -10.2446
       177        1.9999           -0.3763952             -10.2422
       178        1.9999           -0.3763920             -10.2421
       179        1.9996           -0.3752698             -10.2116
       180        1.9864           -0.3719233             -10.1205
       181        1.9864           -0.3719198             -10.1205
       182        1.9663           -0.3710483             -10.0967
       183        1.7307           -0.3689534             -10.0397
       184        1.1671           -0.3675064             -10.0004 (HOMO)
       185        1.1639           -0.3675000             -10.0002 (LUMO)
       186                         -0.3249024              -8.8410
       187                         -0.3147992              -8.5661
       188                         -0.3147833              -8.5657
       189                         -0.3086518              -8.3988
       190                         -0.2856681              -7.7734
       191                         -0.2791298              -7.5955
       192                         -0.2776982              -7.5566
       193                         -0.2773567              -7.5473
       194                         -0.2667463              -7.2585
       195                         -0.2667349              -7.2582
       ...                                ...                  ...
       398                          1.3575467              36.9407
      -------------------------------------------------------------
                  HL-Gap            0.0000063 Eh            0.0002 eV

Wiberg/Mayer (AO) data.
largest (>0.10) Wiberg bond orders for each atom

     #   Z sym  total        # sym  WBO       # sym  WBO       # sym  WBO
 ---------------------------------------------------------------------------
     1  27 Co   3.029 --    37 N    0.634     7 N    0.634    18 N    0.632
                            25 N    0.632
     2   6 C    3.930 --    36 C    1.365     3 C    1.364    38 H    0.970
     3   6 C    3.927 --     2 C    1.364     7 N    1.203     4 C    1.176
     4   6 C    3.960 --     5 C    1.647     3 C    1.176    39 H    0.975
     5   6 C    3.963 --     4 C    1.647     6 C    1.176    40 H    0.973
     6   6 C    3.923 --     8 C    1.321     7 N    1.212     5 C    1.176
     7   7 N    3.343 --     6 C    1.212     3 C    1.203     1 Co   0.634
     8   6 C    3.936 --    15 C    1.325     6 C    1.321     9 C    1.030
     9   6 C    3.984 --    10 C    1.752    14 C    1.104     8 C    1.030
    10   6 C    3.949 --     9 C    1.752    11 C    1.015    41 H    0.971
    11   6 C    3.958 --    10 C    1.015    42 H    0.974    43 H    0.964
                            12 N    0.948
    12   7 N    3.243 --    13 C    1.169    11 C    0.948    44 H    0.926
                            14 C    0.121
    13   6 C    3.949 --    14 C    1.678    12 N    1.169    45 H    0.970
    14   6 C    3.948 --    13 C    1.678     9 C    1.104    46 H    0.973
                            12 N    0.121
    15   6 C    3.918 --     8 C    1.325    18 N    1.199    16 C    1.183
    16   6 C    3.960 --    17 C    1.636    15 C    1.183    47 H    0.973
    17   6 C    3.963 --    16 C    1.636    19 C    1.190    48 H    0.971
    18   7 N    3.348 --    19 C    1.225    15 C    1.199     1 Co   0.632
    19   6 C    3.910 --    20 C    1.269    18 N    1.225    17 C    1.190
    20   6 C    3.938 --    19 C    1.269    21 C    1.267   117 C    1.173
    21   6 C    3.910 --    20 C    1.267    25 N    1.227    22 C    1.190
    22   6 C    3.963 --    23 C    1.635    21 C    1.190    49 H    0.971
    23   6 C    3.959 --    22 C    1.635    24 C    1.183    50 H    0.973
    24   6 C    3.918 --    26 C    1.327    25 N    1.197    23 C    1.183
    25   7 N    3.348 --    21 C    1.227    24 C    1.197     1 Co   0.632
    26   6 C    3.936 --    24 C    1.327    33 C    1.319    27 C    1.030
    27   6 C    3.984 --    28 C    1.752    32 C    1.104    26 C    1.030
    28   6 C    3.949 --    27 C    1.752    29 C    1.015    51 H    0.971
    29   6 C    3.958 --    28 C    1.015    52 H    0.974    53 H    0.964
                            30 N    0.947
    30   7 N    3.243 --    31 C    1.170    29 C    0.947    54 H    0.926
                            32 C    0.121
    31   6 C    3.949 --    32 C    1.677    30 N    1.170    55 H    0.970
    32   6 C    3.948 --    31 C    1.677    27 C    1.104    56 H    0.973
                            30 N    0.121
    33   6 C    3.923 --    26 C    1.319    37 N    1.213    34 C    1.177
    34   6 C    3.964 --    35 C    1.647    33 C    1.177    57 H    0.974
    35   6 C    3.959 --    34 C    1.647    36 C    1.175    58 H    0.975
    36   6 C    3.927 --     2 C    1.365    37 N    1.201    35 C    1.175
    37   7 N    3.343 --    33 C    1.213    36 C    1.201     1 Co   0.634
    38   1 H    1.000 --     2 C    0.970
    39   1 H    0.998 --     4 C    0.975
    40   1 H    1.006 --     5 C    0.973
    41   1 H    1.004 --    10 C    0.971
    42   1 H    1.015 --    11 C    0.974
    43   1 H    1.003 --    11 C    0.964
    44   1 H    0.962 --    12 N    0.926
    45   1 H    1.001 --    13 C    0.970
    46   1 H    1.003 --    14 C    0.973
    47   1 H    1.005 --    16 C    0.973
    48   1 H    1.004 --    17 C    0.971
    49   1 H    1.004 --    22 C    0.971
    50   1 H    1.005 --    23 C    0.973
    51   1 H    1.004 --    28 C    0.971
    52   1 H    1.015 --    29 C    0.974
    53   1 H    1.003 --    29 C    0.964
    54   1 H    0.962 --    30 N    0.926
    55   1 H    1.001 --    31 C    0.970
    56   1 H    1.003 --    32 C    0.973
    57   1 H    1.006 --    34 C    0.974
    58   1 H    0.998 --    35 C    0.975
    59  27 Co   3.029 --    95 N    0.634    65 N    0.634    76 N    0.632
                            83 N    0.632
    60   6 C    3.930 --    94 C    1.365    61 C    1.364    96 H    0.970
    61   6 C    3.927 --    60 C    1.364    65 N    1.203    62 C    1.176
    62   6 C    3.960 --    63 C    1.647    61 C    1.176    97 H    0.975
    63   6 C    3.963 --    62 C    1.647    64 C    1.176    98 H    0.973
    64   6 C    3.923 --    66 C    1.321    65 N    1.212    63 C    1.176
    65   7 N    3.343 --    64 C    1.212    61 C    1.203    59 Co   0.634
    66   6 C    3.936 --    73 C    1.325    64 C    1.321    67 C    1.030
    67   6 C    3.984 --    68 C    1.752    72 C    1.104    66 C    1.030
    68   6 C    3.949 --    67 C    1.752    69 C    1.015    99 H    0.971
    69   6 C    3.958 --    68 C    1.015   100 H    0.974   101 H    0.964
                            70 N    0.948
    70   7 N    3.243 --    71 C    1.169    69 C    0.948   102 H    0.926
                            72 C    0.121
    71   6 C    3.949 --    72 C    1.678    70 N    1.169   103 H    0.970
    72   6 C    3.948 --    71 C    1.678    67 C    1.104   104 H    0.973
                            70 N    0.121
    73   6 C    3.918 --    66 C    1.325    76 N    1.199    74 C    1.183
    74   6 C    3.960 --    75 C    1.636    73 C    1.183   105 H    0.973
    75   6 C    3.963 --    74 C    1.636    77 C    1.190   106 H    0.971
    76   7 N    3.348 --    77 C    1.225    73 C    1.199    59 Co   0.632
    77   6 C    3.910 --    78 C    1.269    76 N    1.225    75 C    1.190
    78   6 C    3.938 --    77 C    1.269    79 C    1.267   118 C    1.173
    79   6 C    3.910 --    78 C    1.267    83 N    1.227    80 C    1.190
    80   6 C    3.963 --    81 C    1.635    79 C    1.190   107 H    0.971
    81   6 C    3.959 --    80 C    1.635    82 C    1.183   108 H    0.973
    82   6 C    3.918 --    84 C    1.327    83 N    1.197    81 C    1.183
    83   7 N    3.348 --    79 C    1.227    82 C    1.197    59 Co   0.632
    84   6 C    3.936 --    82 C    1.327    91 C    1.319    85 C    1.030
    85   6 C    3.984 --    86 C    1.752    90 C    1.104    84 C    1.030
    86   6 C    3.949 --    85 C    1.752    87 C    1.015   109 H    0.971
    87   6 C    3.958 --    86 C    1.015   110 H    0.974   111 H    0.964
                            88 N    0.947
    88   7 N    3.243 --    89 C    1.170    87 C    0.947   112 H    0.926
                            90 C    0.121
    89   6 C    3.949 --    90 C    1.677    88 N    1.170   113 H    0.970
    90   6 C    3.948 --    89 C    1.677    85 C    1.104   114 H    0.973
                            88 N    0.121
    91   6 C    3.923 --    84 C    1.319    95 N    1.213    92 C    1.177
    92   6 C    3.964 --    93 C    1.647    91 C    1.177   115 H    0.974
    93   6 C    3.959 --    92 C    1.647    94 C    1.175   116 H    0.975
    94   6 C    3.927 --    60 C    1.365    95 N    1.201    93 C    1.175
    95   7 N    3.343 --    91 C    1.213    94 C    1.201    59 Co   0.634
    96   1 H    1.000 --    60 C    0.970
    97   1 H    0.998 --    62 C    0.975
    98   1 H    1.006 --    63 C    0.973
    99   1 H    1.004 --    68 C    0.971
   100   1 H    1.015 --    69 C    0.974
   101   1 H    1.003 --    69 C    0.964
   102   1 H    0.962 --    70 N    0.926
   103   1 H    1.001 --    71 C    0.970
   104   1 H    1.003 --    72 C    0.973
   105   1 H    1.005 --    74 C    0.973
   106   1 H    1.004 --    75 C    0.971
   107   1 H    1.004 --    80 C    0.971
   108   1 H    1.005 --    81 C    0.973
   109   1 H    1.004 --    86 C    0.971
   110   1 H    1.015 --    87 C    0.974
   111   1 H    1.003 --    87 C    0.964
   112   1 H    0.962 --    88 N    0.926
   113   1 H    1.001 --    89 C    0.970
   114   1 H    1.003 --    90 C    0.973
   115   1 H    1.006 --    92 C    0.974
   116   1 H    0.998 --    93 C    0.975
   117   6 C    3.933 --   118 C    2.583    20 C    1.173
   118   6 C    3.933 --   117 C    2.583    78 C    1.173
 ---------------------------------------------------------------------------

           -------------------------------------------------
          | TOTAL ENERGY             -198.914437423186 Eh   |
          | GRADIENT NORM               0.000220921097 Eh/α |
          | HOMO-LUMO GAP               0.000172595265 eV   |
           -------------------------------------------------

 * finished run on 2022/07/29 at 23:26:49.055
