   * xtb version 6.5.1 (b24c23e) compiled by 'conda@728c89f4b128' on 2022-07-12
          program call               : xtb Co_PhOH_C6_2.xyz --gfn 1 --opt -T 48

   ID    Z sym.   atoms
    1   27 Co     1, 59
    2    6 C      2-6, 8-12, 14-18, 20-25, 27-31, 33-38, 60-64, 66-70, 72-76,
                  78-83, 85-89, 91-96, 117-122
    3    7 N      7, 19, 26, 39, 65, 77, 84, 97
    4    8 O      13, 32, 71, 90
    5    1 H      40-58, 98-116
########################################################################
[WARNING] Please study the warnings concerning your input carefully
-1- prog_main_parseArguments: Unknown option '-T' provided
########################################################################

          :  Hamiltonian                  GFN1-xTB          :
 * total energy  :  -219.4878597 Eh     change       -0.1139097E-07 Eh
 * total energy  :  -219.5955622 Eh     change       -0.1077026E+00 Eh
 * total energy  :  -219.6489607 Eh     change       -0.5339849E-01 Eh
 * total energy  :  -219.6638438 Eh     change       -0.1488304E-01 Eh
 * total energy  :  -219.6711079 Eh     change       -0.7264108E-02 Eh
 * total energy  :  -219.6749173 Eh     change       -0.3809444E-02 Eh
 * total energy  :  -219.6765955 Eh     change       -0.1678225E-02 Eh
 * total energy  :  -219.6771419 Eh     change       -0.5463447E-03 Eh
 * total energy  :  -219.6776126 Eh     change       -0.4707501E-03 Eh
 * total energy  :  -219.6778586 Eh     change       -0.2459476E-03 Eh
 * total energy  :  -219.6795479 Eh     change       -0.2618967E-04 Eh
 * total energy  :  -219.6795842 Eh     change       -0.3634730E-04 Eh
 * total energy  :  -219.6796178 Eh     change       -0.3363575E-04 Eh
 * total energy  :  -219.6796354 Eh     change       -0.1753890E-04 Eh
 * total energy  :  -219.6796453 Eh     change       -0.9916505E-05 Eh
 * total energy  :  -219.6796538 Eh     change       -0.8539016E-05 Eh
 * total energy  :  -219.6796615 Eh     change       -0.7642483E-05 Eh
 * total energy  :  -219.6796676 Eh     change       -0.6100906E-05 Eh
 * total energy  :  -219.6796715 Eh     change       -0.3905902E-05 Eh
   *** GEOMETRY OPTIMIZATION CONVERGED AFTER 43 ITERATIONS ***

 final structure:
================
122
 xtb: 6.5.1 (b24c23e)
Co          14.31594466028520       -0.05591216581621       -0.08507186008649
C           10.95785229910033       -0.08870537257470       -0.41362539276243
C           11.63752247885630       -1.28232426064455       -0.52320316230721
C           10.99170994209769       -2.54331289857064       -0.72629209961564
C           11.93169538782646       -3.49644710610153       -0.52618701133743
C           13.15787179178310       -2.81620218077572       -0.22750077383565
N           12.97567109621678       -1.45753562236366       -0.27010352552236
C           14.32511294701905       -3.45307877179228        0.17505491822285
C           14.32237515815414       -4.92690423098611        0.34037810739062
C           14.12587006473967       -5.76487679358575       -0.75698587277806
C           14.12311831046830       -7.14276485044135       -0.60288228050081
C           14.31277063136621       -7.69728044985564        0.66069120309249
O           14.31230647508124       -9.04086282290988        0.85720236721415
C           14.51072258615410       -6.87008717379218        1.76484907256284
C           14.51854812445034       -5.49624663608739        1.60037043454293
C           15.50121976876801       -2.75505066483250        0.40259434305094
C           16.74913136886116       -3.38061526778196        0.72345571691169
C           17.70462599777451       -2.42637193699153        0.61601513024094
N           15.68953237213449       -1.41414578291360        0.15019177721273
C           17.03817189411814       -1.22011054744740        0.24103185657733
C           17.71010094719737       -0.03880111672410       -0.08649369115227
C           17.02492867822596        1.14950672851062       -0.35190520302837
C           17.67935756455652        2.38422601028109       -0.64774751564555
C           16.72279520079686        3.34370941100439       -0.63084597624010
C           15.48605195707581        2.68928878138359       -0.32786304739773
N           15.67667777664621        1.33094116888941       -0.21888741849202
C           14.28720036764147        3.35358415806858       -0.11088760203295
C           14.28403341744480        4.83358808387079       -0.08812564905665
C           15.07083269505980        5.52882788628126        0.83407417121421
C           15.07393717960485        6.91176090919643        0.86289689011031
C           14.29116342580494        7.62392912194542       -0.04426792007544
O           14.32090848018395        8.98008058976625        0.00855012399586
C           13.50718968984740        6.94476659696224       -0.97415835119787
C           13.50412507995406        5.55881382840504       -0.98993535427196
C           13.09070779900751        2.66657388112314        0.04992747230889
C           11.81953243620057        3.29791710780046        0.25200911675731
C           10.87814861979187        2.33299156746378        0.12220260034365
C           11.57675849525732        1.10922102773746       -0.12472150652716
N           12.93285223903968        1.31343976481387       -0.11379319660803
H            9.87944092098840       -0.09901704016383       -0.51993954617745
H            9.94549426028760       -2.66327078718939       -0.95889710939484
H           11.81356424743679       -4.56732686870847       -0.55906534358494
H           13.99222144946812       -5.33485516772113       -1.74339775504611
H           13.97564473565575       -7.79060822217077       -1.46038489602472
H           14.16615043616382       -9.51806333476039        0.02933577842145
H           14.65520804092946       -7.31522054199900        2.74150680589607
H           14.66203683552032       -4.85184082395119        2.46046992262745
H           16.87071529936430       -4.42306091830624        0.96877528513202
H           18.76865209113866       -2.51679429696953        0.76430679003348
H           18.73707677669513        2.48838432960043       -0.82839970788469
H           16.83273555602744        4.40047105015027       -0.81193289834455
H           15.67138299078960        4.97475471965802        1.54674743650814
H           15.67664665507053        7.45294019415759        1.58170910725091
H           13.74315164304820        9.37183127618088       -0.66007802368073
H           12.90503376459605        7.50304570166913       -1.68294637366912
H           12.90590213503183        5.03240657846672       -1.72534048490956
H           11.67839291149268        4.34620311158577        0.45987928535860
H            9.80549550104699        2.42111373359160        0.19104193564413
Co          30.27173881742840        0.04295803015305       -0.08934785816133
C           33.62947460460775        0.02846145879178       -0.41833206741588
C           32.94933965206846        1.19258359839324       -0.70293683848791
C           33.59400523726593        2.41033078697382       -1.09011953725429
C           32.65368315904691        3.38215910467978       -1.03075241034130
C           31.42851618883154        2.75280651038119       -0.63290153880634
N           31.61128435530773        1.40250900286504       -0.47708988846366
C           30.26256354499742        3.44135368956315       -0.32205720058905
C           30.26540219304118        4.92363705729622       -0.37051889346469
C           30.45535890243340        5.59486379155809       -1.57812525372884
C           30.45777020601418        6.98058452270429       -1.62404038482703
C           30.27457093401824        7.71123911109590       -0.45246901464108
O           30.27491121491946        9.06911412390065       -0.45146919755501
C           30.08346592753697        7.05162614636051        0.76036330863240
C           30.07575789233499        5.66841334677074        0.79544005991655
C           29.08760835801854        2.78344090139755        0.00804472238069
C           27.84047555053667        3.44829704879379        0.24081085154407
C           26.88473162464573        2.48868485499159        0.27114551603279
N           28.89870156482187        1.42038674090504       -0.05161216454244
C           27.55030322008249        1.24143078627787        0.06815099327383
C           26.87802123714762        0.02602697750776       -0.09073746315608
C           27.56313824941885       -1.18788592067005       -0.18619074211514
C           26.90923293350908       -2.45217098671870       -0.30580649414762
C           27.86569426262168       -3.39945309391204       -0.15145227776364
C           29.10187992309646       -2.70855792340490        0.05861230883390
N           28.91117549952830       -1.34853606500046       -0.02669296046541
C           30.30010632840882       -3.33470535872851        0.37161519971298
C           30.30324057818865       -4.79619500247923        0.60555917918061
C           29.51158040500051       -5.35344680852400        1.61337507290437
C           29.50848178616072       -6.71810548663935        1.83926143283955
C           30.29626309946955       -7.55177787311617        1.04725440877364
O           30.26644939579687       -8.88650569745128        1.29297778722638
C           31.08514228164759       -7.01157621447846        0.03411665526701
C           31.08807539657167       -5.64208367186392       -0.17933373444014
C           31.49613872204028       -2.63113221391380        0.43620954013263
C           32.76680498577162       -3.22577404196899        0.73135502145006
C           33.70845958637661       -2.28917879397811        0.46611495841357
C           33.01046983834385       -1.11451950263029        0.04228699266813
N           31.65440040938311       -1.31580968685181        0.07912547260312
H           34.70799983846881        0.02359778022621       -0.52390639022697
H           34.63976372961852        2.49524055542266       -1.33958829455062
H           32.77095156455367        4.43660062574837       -1.22105698573385
H           30.58392720825659        5.02728652811888       -2.49307323885558
H           30.59995474554011        7.49823169315778       -2.56667991107847
H           30.41609885263325        9.42218250697133       -1.34020003443484
H           29.94412665379118        7.63273487043312        1.66355415325636
H           29.93746035203207        5.15455177883557        1.74011493576521
H           27.71950997569395        4.51491764282328        0.33733331394728
H           25.82103011098670        2.59937059275379        0.40762614291890
H           25.85189086289662       -2.58113207921972       -0.47206071022090
H           27.75590603310771       -4.47122127888384       -0.18142930921611
H           28.90719853222899       -4.70390625682783        2.23659063353783
H           28.90192975011621       -7.15168439998325        2.62472067552157
H           30.84825358941107       -9.36912448842080        0.69056700395137
H           31.69122826776858       -7.66475307558531       -0.58449601690206
H           31.69011151813681       -5.22554724757763       -0.97924632427667
H           32.90753614944211       -4.23286138730461        1.08917459584444
H           34.78090604595781       -2.36583833239331        0.55019483942939
C           22.90861065321938       -0.00659562782065       -0.14219834148853
C           21.67958520849276       -0.01904713835495       -0.13973440416546
C           20.33650559026918       -0.03051283272052       -0.12750897293575
C           19.11212815251900       -0.03523832767733       -0.11199532084369
C           24.25170054429648        0.00742392284738       -0.13420486623362
C           25.47602634878517        0.01923306269580       -0.11580483379681

          :  Hamiltonian                  GFN1-xTB          :
         :: total energy            -219.679671478824 Eh    ::
         :: gradient norm              0.000454189276 Eh/a0 ::
         :: HOMO-LUMO gap              0.006668873897 eV    ::
         :: SCC energy              -223.087339343721 Eh    ::
         :: repulsion energy           3.514685680540 Eh    ::

    * Orbital Energies and Occupations

         #    Occupation            Energy/Eh            Energy/eV
      -------------------------------------------------------------
         1        2.0000           -0.8064462             -21.9445
       ...           ...                  ...                  ...
       188        2.0000           -0.4182110             -11.3801
       189        2.0000           -0.4150909             -11.2952
       190        2.0000           -0.3957407             -10.7687
       191        2.0000           -0.3957098             -10.7678
       192        2.0000           -0.3948051             -10.7432
       193        2.0000           -0.3938756             -10.7179
       194        2.0000           -0.3921419             -10.6707
       195        1.9998           -0.3904645             -10.6251
       196        1.9998           -0.3904619             -10.6250
       197        1.9998           -0.3904195             -10.6239
       198        1.9998           -0.3904184             -10.6238
       199        1.8569           -0.3840057             -10.4493
       200        1.1360           -0.3818307             -10.3901 (HOMO)
       201        1.0079           -0.3815856             -10.3835 (LUMO)
       202                         -0.3378348              -9.1930
       203                         -0.3263720              -8.8810
       204                         -0.3261829              -8.8759
       205                         -0.3261381              -8.8747
       206                         -0.2990917              -8.1387
       207                         -0.2923548              -7.9554
       208                         -0.2919641              -7.9447
       209                         -0.2918574              -7.9418
       210                         -0.2851242              -7.7586
       211                         -0.2682851              -7.3004
       ...                                ...                  ...
       422                          1.5771784              42.9172
      -------------------------------------------------------------
                  HL-Gap            0.0002451 Eh            0.0067 eV

Wiberg/Mayer (AO) data.
largest (>0.10) Wiberg bond orders for each atom

     #   Z sym  total        # sym  WBO       # sym  WBO       # sym  WBO
 ---------------------------------------------------------------------------
     1  27 Co   3.040 --     7 N    0.639    39 N    0.635    26 N    0.634
                            19 N    0.632
     2   6 C    3.926 --     3 C    1.368    38 C    1.360    40 H    0.970
     3   6 C    3.925 --     2 C    1.368     7 N    1.199     4 C    1.174
     4   6 C    3.959 --     5 C    1.649     3 C    1.174    41 H    0.975
     5   6 C    3.963 --     4 C    1.649     6 C    1.178    42 H    0.972
     6   6 C    3.919 --     8 C    1.317     7 N    1.215     5 C    1.178
     7   7 N    3.344 --     6 C    1.215     3 C    1.199     1 Co   0.639
     8   6 C    3.931 --    16 C    1.336     6 C    1.317     9 C    1.023
     9   6 C    3.988 --    10 C    1.395    15 C    1.385     8 C    1.023
    10   6 C    3.988 --    11 C    1.451     9 C    1.395    43 H    0.973
                            14 C    0.105
    11   6 C    3.988 --    10 C    1.451    12 C    1.372    44 H    0.970
                            15 C    0.103
    12   6 C    3.902 --    11 C    1.372    14 C    1.364    13 O    1.041
    13   8 O    2.044 --    12 C    1.041    45 H    0.865
    14   6 C    3.990 --    15 C    1.466    12 C    1.364    46 H    0.971
                            10 C    0.105
    15   6 C    3.988 --    14 C    1.466     9 C    1.385    47 H    0.973
                            11 C    0.103
    16   6 C    3.916 --     8 C    1.336    19 N    1.190    17 C    1.181
    17   6 C    3.958 --    18 C    1.637    16 C    1.181    48 H    0.973
    18   6 C    3.962 --    17 C    1.637    20 C    1.191    49 H    0.973
    19   7 N    3.348 --    20 C    1.235    16 C    1.190     1 Co   0.632
    20   6 C    3.904 --    21 C    1.255    19 N    1.235    18 C    1.191
    21   6 C    3.932 --    22 C    1.259    20 C    1.255   120 C    1.194
    22   6 C    3.904 --    21 C    1.259    26 N    1.229    23 C    1.191
    23   6 C    3.961 --    24 C    1.635    22 C    1.191    50 H    0.973
    24   6 C    3.959 --    23 C    1.635    25 C    1.183    51 H    0.973
    25   6 C    3.916 --    27 C    1.328    26 N    1.196    24 C    1.183
    26   7 N    3.346 --    22 C    1.229    25 C    1.196     1 Co   0.634
    27   6 C    3.931 --    25 C    1.328    35 C    1.318    28 C    1.033
    28   6 C    3.988 --    34 C    1.391    29 C    1.381    27 C    1.033
    29   6 C    3.986 --    30 C    1.468    28 C    1.381    52 H    0.973
                            33 C    0.102
    30   6 C    3.990 --    29 C    1.468    31 C    1.363    53 H    0.971
                            34 C    0.104
    31   6 C    3.900 --    33 C    1.371    30 C    1.363    32 O    1.041
    32   8 O    2.044 --    31 C    1.041    54 H    0.865
    33   6 C    3.988 --    34 C    1.454    31 C    1.371    55 H    0.970
                            29 C    0.102
    34   6 C    3.987 --    33 C    1.454    28 C    1.391    56 H    0.972
                            30 C    0.104
    35   6 C    3.919 --    27 C    1.318    39 N    1.211    36 C    1.178
    36   6 C    3.963 --    37 C    1.645    35 C    1.178    57 H    0.973
    37   6 C    3.958 --    36 C    1.645    38 C    1.177    58 H    0.975
    38   6 C    3.925 --     2 C    1.360    39 N    1.204    37 C    1.177
    39   7 N    3.345 --    35 C    1.211    38 C    1.204     1 Co   0.635
    40   1 H    1.000 --     2 C    0.970
    41   1 H    0.998 --     4 C    0.975
    42   1 H    1.005 --     5 C    0.972
    43   1 H    1.004 --    10 C    0.973
    44   1 H    0.999 --    11 C    0.970
    45   1 H    0.887 --    13 O    0.865
    46   1 H    0.999 --    14 C    0.971
    47   1 H    1.004 --    15 C    0.973
    48   1 H    1.004 --    17 C    0.973
    49   1 H    1.001 --    18 C    0.973
    50   1 H    1.001 --    23 C    0.973
    51   1 H    1.004 --    24 C    0.973
    52   1 H    1.005 --    29 C    0.973
    53   1 H    0.999 --    30 C    0.971
    54   1 H    0.886 --    32 O    0.865
    55   1 H    0.999 --    33 C    0.970
    56   1 H    1.005 --    34 C    0.972
    57   1 H    1.004 --    36 C    0.973
    58   1 H    0.998 --    37 C    0.975
    59  27 Co   3.044 --    65 N    0.639    97 N    0.636    84 N    0.634
                            77 N    0.633
    60   6 C    3.927 --    61 C    1.368    96 C    1.360    98 H    0.970
    61   6 C    3.925 --    60 C    1.368    65 N    1.199    62 C    1.174
    62   6 C    3.959 --    63 C    1.649    61 C    1.174    99 H    0.975
    63   6 C    3.963 --    62 C    1.649    64 C    1.178   100 H    0.972
    64   6 C    3.919 --    66 C    1.317    65 N    1.215    63 C    1.178
    65   7 N    3.344 --    64 C    1.215    61 C    1.199    59 Co   0.639
    66   6 C    3.931 --    74 C    1.336    64 C    1.317    67 C    1.023
    67   6 C    3.988 --    68 C    1.395    73 C    1.385    66 C    1.023
    68   6 C    3.988 --    69 C    1.451    67 C    1.395   101 H    0.973
                            72 C    0.105
    69   6 C    3.988 --    68 C    1.451    70 C    1.372   102 H    0.970
                            73 C    0.103
    70   6 C    3.902 --    69 C    1.372    72 C    1.364    71 O    1.041
    71   8 O    2.044 --    70 C    1.041   103 H    0.865
    72   6 C    3.990 --    73 C    1.466    70 C    1.364   104 H    0.971
                            68 C    0.105
    73   6 C    3.988 --    72 C    1.466    67 C    1.385   105 H    0.973
                            69 C    0.103
    74   6 C    3.916 --    66 C    1.336    77 N    1.190    75 C    1.181
    75   6 C    3.958 --    76 C    1.637    74 C    1.181   106 H    0.973
    76   6 C    3.962 --    75 C    1.637    78 C    1.191   107 H    0.973
    77   7 N    3.348 --    78 C    1.235    74 C    1.190    59 Co   0.633
    78   6 C    3.904 --    79 C    1.255    77 N    1.235    76 C    1.191
    79   6 C    3.932 --    80 C    1.259    78 C    1.255   122 C    1.194
    80   6 C    3.904 --    79 C    1.259    84 N    1.229    81 C    1.191
    81   6 C    3.961 --    82 C    1.635    80 C    1.191   108 H    0.973
    82   6 C    3.959 --    81 C    1.635    83 C    1.184   109 H    0.973
    83   6 C    3.916 --    85 C    1.328    84 N    1.196    82 C    1.184
    84   7 N    3.346 --    80 C    1.229    83 C    1.196    59 Co   0.634
    85   6 C    3.931 --    83 C    1.328    93 C    1.318    86 C    1.033
    86   6 C    3.988 --    92 C    1.391    87 C    1.381    85 C    1.033
    87   6 C    3.986 --    88 C    1.468    86 C    1.381   110 H    0.973
                            91 C    0.102
    88   6 C    3.990 --    87 C    1.468    89 C    1.363   111 H    0.971
                            92 C    0.104
    89   6 C    3.900 --    91 C    1.371    88 C    1.363    90 O    1.042
    90   8 O    2.044 --    89 C    1.042   112 H    0.865
    91   6 C    3.988 --    92 C    1.454    89 C    1.371   113 H    0.970
                            87 C    0.102
    92   6 C    3.987 --    91 C    1.454    86 C    1.391   114 H    0.972
                            88 C    0.104
    93   6 C    3.920 --    85 C    1.318    97 N    1.211    94 C    1.178
    94   6 C    3.963 --    95 C    1.645    93 C    1.178   115 H    0.973
    95   6 C    3.958 --    94 C    1.645    96 C    1.177   116 H    0.975
    96   6 C    3.925 --    60 C    1.360    97 N    1.204    95 C    1.177
    97   7 N    3.345 --    93 C    1.211    96 C    1.204    59 Co   0.636
    98   1 H    1.000 --    60 C    0.970
    99   1 H    0.998 --    62 C    0.975
   100   1 H    1.005 --    63 C    0.972
   101   1 H    1.004 --    68 C    0.973
   102   1 H    0.999 --    69 C    0.970
   103   1 H    0.887 --    71 O    0.865
   104   1 H    0.999 --    72 C    0.971
   105   1 H    1.004 --    73 C    0.973
   106   1 H    1.004 --    75 C    0.973
   107   1 H    1.001 --    76 C    0.973
   108   1 H    1.001 --    81 C    0.973
   109   1 H    1.004 --    82 C    0.973
   110   1 H    1.005 --    87 C    0.973
   111   1 H    0.999 --    88 C    0.971
   112   1 H    0.886 --    90 O    0.865
   113   1 H    0.999 --    91 C    0.970
   114   1 H    1.005 --    92 C    0.972
   115   1 H    1.004 --    94 C    0.973
   116   1 H    0.998 --    95 C    0.975
   117   6 C    3.920 --   118 C    2.357   121 C    1.341   120 C    0.189
   118   6 C    3.920 --   117 C    2.357   119 C    1.341   122 C    0.189
   119   6 C    3.929 --   120 C    2.440   118 C    1.341
   120   6 C    3.884 --   119 C    2.440    21 C    1.194   117 C    0.189
   121   6 C    3.929 --   122 C    2.440   117 C    1.341
   122   6 C    3.884 --   121 C    2.440    79 C    1.194   118 C    0.189
 ---------------------------------------------------------------------------

           -------------------------------------------------
          | TOTAL ENERGY             -219.679671478824 Eh   |
          | GRADIENT NORM               0.000454189276 Eh/α |
          | HOMO-LUMO GAP               0.006668873897 eV   |
           -------------------------------------------------

 * finished run on 2022/07/30 at 02:40:55.432
