   * xtb version 6.5.1 (b24c23e) compiled by 'conda@728c89f4b128' on 2022-07-12
          program call               : xtb Fe_p-CP_C4_2.xyz --gfn 1 --opt -T 48

   ID    Z sym.   atoms
    1   26 Fe     1, 63
    2    6 C      2-6, 8-11, 13-24, 27-32, 35-39, 42, 43, 64-68, 70-73,
                  75-86, 89-94, 97-101, 104, 105, 125-128
    3    7 N      7, 12, 33, 34, 69, 74, 95, 96
    4    8 O      25, 26, 40, 41, 87, 88, 102, 103
    5    1 H      44-62, 106-124
########################################################################
[WARNING] Please study the warnings concerning your input carefully
-1- prog_main_parseArguments: Unknown option '-T' provided
########################################################################

          :  Hamiltonian                  GFN1-xTB          :
 * total energy  :  -241.4995633 Eh     change       -0.7453281E-08 Eh
 * total energy  :  -241.6449054 Eh     change       -0.1453421E+00 Eh
 * total energy  :  -241.7003695 Eh     change       -0.5546410E-01 Eh
 * total energy  :  -241.7284028 Eh     change       -0.2803335E-01 Eh
 * total energy  :  -241.7449087 Eh     change       -0.1650590E-01 Eh
 * total energy  :  -241.7560886 Eh     change       -0.1117984E-01 Eh
 * total energy  :  -241.7663670 Eh     change       -0.1027848E-01 Eh
 * total energy  :  -241.7736919 Eh     change       -0.7324841E-02 Eh
 * total energy  :  -241.7805044 Eh     change       -0.6812555E-02 Eh
 * total energy  :  -241.7851655 Eh     change       -0.4661020E-02 Eh
 * total energy  :  -241.7956498 Eh     change       -0.1371837E-04 Eh
 * total energy  :  -241.7956620 Eh     change       -0.1217056E-04 Eh
 * total energy  :  -241.7956736 Eh     change       -0.1160352E-04 Eh
 * total energy  :  -241.7956847 Eh     change       -0.1108677E-04 Eh
 * total energy  :  -241.7956935 Eh     change       -0.8821211E-05 Eh
 * total energy  :  -241.7957036 Eh     change       -0.1013846E-04 Eh
 * total energy  :  -241.7957152 Eh     change       -0.1156136E-04 Eh
 * total energy  :  -241.7957286 Eh     change       -0.1343132E-04 Eh
 * total energy  :  -241.7957323 Eh     change       -0.3695352E-05 Eh
   *** GEOMETRY OPTIMIZATION CONVERGED AFTER 44 ITERATIONS ***

 final structure:
================
128
 xtb: 6.5.1 (b24c23e)
Fe          17.73643838876456       -0.10868038034568        0.04048828161946
C           14.34689912055127       -0.18775301825414        0.06127855047277
C           15.00177230030382       -0.33386681395122        1.26654146621168
C           14.32644575422986       -0.51861267201429        2.51554094491296
C           15.27981105951627       -0.51138414469468        3.47625605542076
C           16.53824558567248       -0.33540360997312        2.81025641271328
N           16.35508374848504       -0.23602868769691        1.45777040255447
C           17.75387838859071       -0.19844028143428        3.47136394129906
C           18.96164469572376       -0.03348886150594        2.80910740179622
C           20.22852264888473        0.04703553263827        3.47365656121148
C           21.17596637205772        0.07325942005160        2.50613101661584
N           19.13678599394612       -0.03401289862732        1.44540395704021
C           20.48600802925124        0.00974003190353        1.25585366314664
C           21.14568010744005       -0.04101885865220        0.02190108558798
C           20.46982933525670       -0.08133960544412       -1.20362493992777
C           21.14230516821708       -0.15389252999474       -2.46263294977493
C           20.18367646034068       -0.09750724460238       -3.41813834462901
C           18.92815073560127        0.01592444829292       -2.73734090046073
C           17.70582953942336        0.14281156408229       -3.38344497449592
C           17.69442665954919        0.22941126044821       -4.86169908537066
C           17.04048070325158       -0.74342941443419       -5.62251903290088
C           17.03715702997659       -0.66362756844257       -7.00285296229048
C           17.68357955169722        0.39221373263694       -7.64817708823146
C           17.65108011336978        0.43493635174654       -9.13006486054838
O           18.30192981889745        1.48597420321288       -9.65085399202257
O           17.10168144911539       -0.38398296625531       -9.82197407133393
C           18.33594977894474        1.36718346586175       -6.89303423698608
C           18.34195849898243        1.28311285419556       -5.51170638485928
C           16.49216279017766        0.17524510721686       -2.70495266407811
C           15.21851082453766        0.32876242330644       -3.34740275732078
C           14.27749998591790        0.22142036177326       -2.38044044164241
C           14.97748788720482        0.02007179598970       -1.14781286309574
N           16.33239253149809        0.03017375365565       -1.35328908700198
N           19.11967581360867       -0.00229368704507       -1.37667514646778
C           17.76122494378981       -0.24647437923515        4.95321746291161
C           17.41754660089114       -1.42329825049073        5.62273121730118
C           17.42683157345336       -1.46630463796319        7.00479525314828
C           17.77394668863505       -0.33229831495492        7.74145220899595
C           17.76463099466201       -0.42707436460818        9.22121674163152
O           18.11617822460304        0.71282759160013        9.83464402507375
O           17.47673489878667       -1.42167868451237        9.83668747794923
C           18.11593759268422        0.84550971925427        7.07655975402471
C           18.11194997626335        0.88489193213544        5.69294935351362
H           13.26339483404556       -0.22603291971498        0.06649642694784
H           13.25889568866090       -0.62527513561543        2.62421517257907
H           15.15350142102303       -0.60463863955096        4.54258714629477
H           20.36542913905791        0.06059573779196        4.54257273838006
H           22.24750627926912        0.12237441314773        2.61373614683589
H           22.21016298381473       -0.23849388462197       -2.58383125301908
H           20.30546572092480       -0.14040362370158       -4.48807885188819
H           16.55004448599012       -1.57156550644282       -5.12374735141556
H           16.53594372989604       -1.41777295160574       -7.59961783382733
H           18.23549284656454        1.44060870195049      -10.61851911135459
H           18.83690004480467        2.18967320411641       -7.38966563254027
H           18.83884954627981        2.04685257929003       -4.92423489729223
H           15.07557603351634        0.50012697297811       -4.40187093672078
H           13.20441531754516        0.27427228434505       -2.47275520568248
H           17.15798163891514       -2.30707667561222        5.05124201546345
H           17.16572721915957       -2.37725697452977        7.53214886041096
H           18.08661296231390        0.56708436201470       10.79422779163356
H           18.38355785345367        1.72846518843825        7.64482000736958
H           18.36842350173116        1.80227988422954        5.17531450892728
Fe          31.15197035853891       -0.10341681621145       -0.05264321584535
C           34.54143977726875       -0.17998460005213       -0.08269845287715
C           33.88643682949366       -0.18642021359819       -1.29669800921426
C           34.56159874016306       -0.22643324426827       -2.55874441024769
C           33.60819263080704       -0.10802246608916       -3.51211918415420
C           32.34988530737397       -0.00926897816129       -2.83013949002427
N           32.53316767781765       -0.06653181432060       -1.47523431241030
C           31.13429088787203        0.20370410224504       -3.47088008374543
C           29.92664824331692        0.29161211765851       -2.79384700059182
C           28.65974600171291        0.44890368309601       -3.44447322897812
C           27.71238090320745        0.36318773217733       -2.48031272731097
N           29.75161914401312        0.13341028417181       -1.43934342076334
C           28.40240900728115        0.15514260036596       -1.24586750285885
C           27.74280976672362       -0.03842292880527       -0.02610414655626
C           28.41877549083484       -0.22064167045887        1.18643470595503
C           27.74650944948125       -0.43899080242200        2.42858852979083
C           28.70522186737385       -0.49294816080914        3.38416905255111
C           29.96057626898277       -0.30058480090416        2.72103541992964
C           31.18288973763674       -0.24806957173852        3.37742866912726
C           31.19436741835720       -0.33246838250006        4.85580360334479
C           31.84929448590720       -1.38593267872882        5.49938452208977
C           31.85271337986825       -1.46580282451938        6.87971332775440
C           31.20512853744837       -0.49217176221507        7.64246575894963
C           31.23660494626484       -0.62127529623411        9.11933741476126
O           30.58542274953326        0.36244695462036        9.75788017964527
O           31.78766642430469       -1.51342887437641        9.71224114938066
C           30.55188955537689        0.56283134936153        7.00477308341213
C           30.54589460638859        0.63863498925240        5.62296798104327
C           32.39643614110535       -0.13693499243448        2.70711075720413
C           33.67012662844984       -0.05787815168832        3.36282150095506
C           34.61105878819966       -0.05349298653369        2.38984816796345
C           33.91097196762368       -0.11215534344743        1.14231713948206
N           32.55609143759519       -0.12573170708101        1.34770194614552
N           29.76890495238837       -0.16140255337835        1.36741288087591
C           31.12693051601680        0.32673057648171       -4.94840475333144
C           31.47007580115525       -0.76540571122488       -5.74888901832876
C           31.46150589466143       -0.64887351524447       -7.12671435927535
C           31.11475817757045        0.56248305306681       -7.72800121767225
C           31.12190974790020        0.63777849175791       -9.20894849293270
O           30.77429055352583        1.84208011967160       -9.68694934610816
O           31.41128376797435       -0.27904804033597       -9.93495573080884
C           30.77335343700936        1.65613883747511       -6.93197407669731
C           30.77705085281726        1.53597096156795       -5.55301810787849
H           35.62493090680457       -0.21773008764703       -0.09238061711220
H           35.62908460408027       -0.32042561105096       -2.67911354107607
H           33.73440808082277       -0.07783017242108       -4.58210592182769
H           28.52279702885851        0.58614241463760       -4.50462443205897
H           26.64084220965372        0.42468445799061       -2.58138859100088
H           26.67873256349351       -0.53782519158573        2.53925835325720
H           28.58357662784134       -0.65953123498122        4.44194910419322
H           32.34041002349453       -2.15060697400086        4.90846112495499
H           32.35442939035286       -2.28342707864042        7.38553375676457
H           30.65220558342766        0.20599797467376       10.71385936866311
H           30.05013789517244        1.32204480163215        7.59292444484911
H           30.04827969651707        1.46458316582540        5.12747567848981
H           33.81313949471414       -0.00856952970558        4.42997582812590
H           35.68414717201016       -0.01147600908079        2.48752996583213
H           31.72862265499231       -1.70935682829849       -5.28290758060273
H           31.72141308988219       -1.49347282310915       -7.75536913295613
H           30.80506607508798        1.80828665764452      -10.65689295330456
H           30.50657008379357        2.59886203167183       -7.39484383956893
H           30.52110072016140        2.38785852588187       -4.93326129127877
C           23.77089834683614       -0.04544539125513        0.00299437824699
C           22.54715341900735       -0.04647608403058        0.01277747591301
C           25.11761805071061       -0.04557053521385       -0.00635139095164
C           26.34134381503143       -0.04487013578619       -0.01755688219473

          :  Hamiltonian                  GFN1-xTB          :
         :: total energy            -241.795732333261 Eh    ::
         :: gradient norm              0.000916774687 Eh/a0 ::
         :: HOMO-LUMO gap              0.095451291982 eV    ::
         :: SCC energy              -245.294543985341 Eh    ::
         :: repulsion energy           3.612653444221 Eh    ::

    * Orbital Energies and Occupations

         #    Occupation            Energy/Eh            Energy/eV
      -------------------------------------------------------------
         1        2.0000           -0.8342761             -22.7018
       ...           ...                  ...                  ...
       203        2.0000           -0.4374140             -11.9026
       204        2.0000           -0.4371798             -11.8963
       205        2.0000           -0.4368196             -11.8865
       206        2.0000           -0.4085265             -11.1166
       207        2.0000           -0.4073073             -11.0834
       208        2.0000           -0.4073025             -11.0833
       209        1.9919           -0.3995941             -10.8735
       210        1.9913           -0.3995260             -10.8717
       211        1.9456           -0.3977659             -10.8238
       212        1.9439           -0.3977369             -10.8230
       213        1.9379           -0.3976372             -10.8203
       214        1.9379           -0.3976364             -10.8202
       215        1.7489           -0.3962116             -10.7815 (HOMO)
       216        0.2957           -0.3927039             -10.6860 (LUMO)
       217        0.2070           -0.3923167             -10.6755
       218                         -0.3495500              -9.5117
       219                         -0.3399383              -9.2502
       220                         -0.3399313              -9.2500
       221                         -0.3349725              -9.1151
       222                         -0.3169057              -8.6234
       223                         -0.3153743              -8.5818
       224                         -0.3123667              -8.4999
       225                         -0.3123525              -8.4995
       226                         -0.3106267              -8.4526
       ...                                ...                  ...
       446                          1.5007194              40.8367
      -------------------------------------------------------------
                  HL-Gap            0.0035078 Eh            0.0955 eV

Wiberg/Mayer (AO) data.
largest (>0.10) Wiberg bond orders for each atom

     #   Z sym  total        # sym  WBO       # sym  WBO       # sym  WBO
 ---------------------------------------------------------------------------
     1  26 Fe   3.162 --    33 N    0.673     7 N    0.667    12 N    0.664
                            34 N    0.660
     2   6 C    3.925 --    32 C    1.363     3 C    1.363    44 H    0.970
     3   6 C    3.923 --     2 C    1.363     7 N    1.210     4 C    1.172
     4   6 C    3.959 --     5 C    1.651     3 C    1.172    45 H    0.975
     5   6 C    3.961 --     4 C    1.651     6 C    1.174    46 H    0.972
     6   6 C    3.920 --     8 C    1.313     7 N    1.225     5 C    1.174
     7   7 N    3.381 --     6 C    1.225     3 C    1.210     1 Fe   0.667
     8   6 C    3.927 --     9 C    1.335     6 C    1.313    35 C    1.025
     9   6 C    3.917 --     8 C    1.335    12 N    1.200    10 C    1.179
    10   6 C    3.956 --    11 C    1.639     9 C    1.179    47 H    0.973
    11   6 C    3.960 --    10 C    1.639    13 C    1.188    48 H    0.973
    12   7 N    3.382 --    13 C    1.247     9 C    1.200     1 Fe   0.664
    13   6 C    3.904 --    14 C    1.251    12 N    1.247    11 C    1.188
    14   6 C    3.924 --    15 C    1.251    13 C    1.251   126 C    1.202
    15   6 C    3.904 --    14 C    1.251    34 N    1.244    16 C    1.189
    16   6 C    3.960 --    17 C    1.637    15 C    1.189    49 H    0.973
    17   6 C    3.957 --    16 C    1.637    18 C    1.180    50 H    0.973
    18   6 C    3.917 --    19 C    1.329    34 N    1.202    17 C    1.180
    19   6 C    3.927 --    18 C    1.329    29 C    1.313    20 C    1.032
    20   6 C    3.986 --    28 C    1.386    21 C    1.384    19 C    1.032
    21   6 C    3.986 --    22 C    1.464    20 C    1.384    51 H    0.972
                            27 C    0.103
    22   6 C    3.990 --    21 C    1.464    23 C    1.385    52 H    0.968
                            28 C    0.103
    23   6 C    3.982 --    27 C    1.389    22 C    1.385    24 C    1.009
    24   6 C    3.836 --    26 O    1.691    25 O    1.088    23 C    1.009
    25   8 O    2.097 --    24 C    1.088    53 H    0.838    26 O    0.129
    26   8 O    1.959 --    24 C    1.691    25 O    0.129
    27   6 C    3.991 --    28 C    1.461    23 C    1.389    54 H    0.969
                            21 C    0.103
    28   6 C    3.987 --    27 C    1.461    20 C    1.386    55 H    0.972
                            22 C    0.103
    29   6 C    3.920 --    19 C    1.313    33 N    1.225    30 C    1.174
    30   6 C    3.961 --    31 C    1.650    29 C    1.174    56 H    0.972
    31   6 C    3.959 --    30 C    1.650    32 C    1.173    57 H    0.975
    32   6 C    3.923 --     2 C    1.363    33 N    1.209    31 C    1.173
    33   7 N    3.383 --    29 C    1.225    32 C    1.209     1 Fe   0.673
    34   7 N    3.381 --    15 C    1.244    18 C    1.202     1 Fe   0.660
    35   6 C    3.986 --    43 C    1.389    36 C    1.387     8 C    1.025
    36   6 C    3.987 --    37 C    1.463    35 C    1.387    58 H    0.972
                            42 C    0.103
    37   6 C    3.990 --    36 C    1.463    38 C    1.386    59 H    0.968
                            43 C    0.103
    38   6 C    3.984 --    42 C    1.390    37 C    1.386    39 C    1.009
    39   6 C    3.836 --    41 O    1.691    40 O    1.089    38 C    1.009
    40   8 O    2.097 --    39 C    1.089    60 H    0.838    41 O    0.129
    41   8 O    1.959 --    39 C    1.691    40 O    0.129
    42   6 C    3.991 --    43 C    1.460    38 C    1.390    61 H    0.969
                            36 C    0.103
    43   6 C    3.988 --    42 C    1.460    35 C    1.389    62 H    0.972
                            37 C    0.103
    44   1 H    1.000 --     2 C    0.970
    45   1 H    0.997 --     4 C    0.975
    46   1 H    1.004 --     5 C    0.972
    47   1 H    1.004 --    10 C    0.973
    48   1 H    1.002 --    11 C    0.973
    49   1 H    1.002 --    16 C    0.973
    50   1 H    1.004 --    17 C    0.973
    51   1 H    1.004 --    21 C    0.972
    52   1 H    1.005 --    22 C    0.968
    53   1 H    0.873 --    25 O    0.838
    54   1 H    1.005 --    27 C    0.969
    55   1 H    1.004 --    28 C    0.972
    56   1 H    1.004 --    30 C    0.972
    57   1 H    0.997 --    31 C    0.975
    58   1 H    1.003 --    36 C    0.972
    59   1 H    1.005 --    37 C    0.968
    60   1 H    0.873 --    40 O    0.838
    61   1 H    1.005 --    42 C    0.969
    62   1 H    1.003 --    43 C    0.972
    63  26 Fe   3.163 --    95 N    0.673    69 N    0.667    74 N    0.664
                            96 N    0.660
    64   6 C    3.925 --    94 C    1.363    65 C    1.363   106 H    0.970
    65   6 C    3.923 --    64 C    1.363    69 N    1.210    66 C    1.172
    66   6 C    3.959 --    67 C    1.651    65 C    1.172   107 H    0.975
    67   6 C    3.961 --    66 C    1.651    68 C    1.174   108 H    0.972
    68   6 C    3.920 --    70 C    1.313    69 N    1.225    67 C    1.174
    69   7 N    3.381 --    68 C    1.225    65 C    1.210    63 Fe   0.667
    70   6 C    3.927 --    71 C    1.335    68 C    1.313    97 C    1.025
    71   6 C    3.917 --    70 C    1.335    74 N    1.200    72 C    1.179
    72   6 C    3.956 --    73 C    1.639    71 C    1.179   109 H    0.973
    73   6 C    3.960 --    72 C    1.639    75 C    1.188   110 H    0.973
    74   7 N    3.382 --    75 C    1.247    71 C    1.200    63 Fe   0.664
    75   6 C    3.904 --    76 C    1.251    74 N    1.247    73 C    1.188
    76   6 C    3.924 --    77 C    1.251    75 C    1.251   128 C    1.202
    77   6 C    3.904 --    76 C    1.251    96 N    1.244    78 C    1.189
    78   6 C    3.960 --    79 C    1.637    77 C    1.189   111 H    0.973
    79   6 C    3.957 --    78 C    1.637    80 C    1.180   112 H    0.973
    80   6 C    3.917 --    81 C    1.329    96 N    1.202    79 C    1.180
    81   6 C    3.927 --    80 C    1.329    91 C    1.313    82 C    1.032
    82   6 C    3.986 --    90 C    1.386    83 C    1.384    81 C    1.032
    83   6 C    3.986 --    84 C    1.464    82 C    1.384   113 H    0.972
                            89 C    0.103
    84   6 C    3.990 --    83 C    1.464    85 C    1.385   114 H    0.968
                            90 C    0.103
    85   6 C    3.982 --    89 C    1.389    84 C    1.385    86 C    1.009
    86   6 C    3.836 --    88 O    1.691    87 O    1.088    85 C    1.009
    87   8 O    2.097 --    86 C    1.088   115 H    0.838    88 O    0.129
    88   8 O    1.959 --    86 C    1.691    87 O    0.129
    89   6 C    3.991 --    90 C    1.461    85 C    1.389   116 H    0.969
                            83 C    0.103
    90   6 C    3.987 --    89 C    1.461    82 C    1.386   117 H    0.972
                            84 C    0.103
    91   6 C    3.920 --    81 C    1.313    95 N    1.225    92 C    1.174
    92   6 C    3.961 --    93 C    1.650    91 C    1.174   118 H    0.972
    93   6 C    3.959 --    92 C    1.650    94 C    1.173   119 H    0.975
    94   6 C    3.923 --    64 C    1.363    95 N    1.209    93 C    1.173
    95   7 N    3.383 --    91 C    1.225    94 C    1.209    63 Fe   0.673
    96   7 N    3.381 --    77 C    1.244    80 C    1.202    63 Fe   0.660
    97   6 C    3.986 --   105 C    1.389    98 C    1.387    70 C    1.025
    98   6 C    3.987 --    99 C    1.463    97 C    1.387   120 H    0.972
                           104 C    0.103
    99   6 C    3.990 --    98 C    1.463   100 C    1.386   121 H    0.968
                           105 C    0.103
   100   6 C    3.984 --   104 C    1.390    99 C    1.386   101 C    1.009
   101   6 C    3.836 --   103 O    1.691   102 O    1.088   100 C    1.009
   102   8 O    2.097 --   101 C    1.088   122 H    0.838   103 O    0.129
   103   8 O    1.959 --   101 C    1.691   102 O    0.129
   104   6 C    3.991 --   105 C    1.460   100 C    1.390   123 H    0.969
                            98 C    0.103
   105   6 C    3.988 --   104 C    1.460    97 C    1.389   124 H    0.972
                            99 C    0.103
   106   1 H    1.000 --    64 C    0.970
   107   1 H    0.997 --    66 C    0.975
   108   1 H    1.004 --    67 C    0.972
   109   1 H    1.004 --    72 C    0.973
   110   1 H    1.002 --    73 C    0.973
   111   1 H    1.002 --    78 C    0.973
   112   1 H    1.004 --    79 C    0.973
   113   1 H    1.004 --    83 C    0.972
   114   1 H    1.005 --    84 C    0.968
   115   1 H    0.873 --    87 O    0.838
   116   1 H    1.005 --    89 C    0.969
   117   1 H    1.004 --    90 C    0.972
   118   1 H    1.004 --    92 C    0.972
   119   1 H    0.997 --    93 C    0.975
   120   1 H    1.003 --    98 C    0.972
   121   1 H    1.005 --    99 C    0.968
   122   1 H    0.873 --   102 O    0.838
   123   1 H    1.005 --   104 C    0.969
   124   1 H    1.003 --   105 C    0.972
   125   6 C    3.922 --   126 C    2.450   127 C    1.324
   126   6 C    3.916 --   125 C    2.450    14 C    1.202   128 C    0.196
   127   6 C    3.922 --   128 C    2.450   125 C    1.324
   128   6 C    3.916 --   127 C    2.450    76 C    1.202   126 C    0.196
 ---------------------------------------------------------------------------

           -------------------------------------------------
          | TOTAL ENERGY             -241.795732333261 Eh   |
          | GRADIENT NORM               0.000916774687 Eh/α |
          | HOMO-LUMO GAP               0.095451291982 eV   |
           -------------------------------------------------

 * finished run on 2022/07/29 at 21:40:31.373
