   * xtb version 6.5.1 (b24c23e) compiled by 'conda@728c89f4b128' on 2022-07-12
          program call               : xtb Cu_C2Py_C2_3.xyz --gfn 1 --opt -T 48

   ID    Z sym.   atoms
    1   29 Cu     1, 59, 121
    2    6 C      2-6, 8-13, 15-19, 21-26, 28-33, 35-40, 60-64, 66-71, 73-77,
                  79-84, 86-91, 93-98, 117-120, 122-126, 128-133, 135-139,
                  141-146, 148-153, 155-160
    3    7 N      7, 14, 20, 27, 34, 41, 65, 72, 78, 85, 92, 99, 127, 134,
                  140, 147, 154, 161
    4    1 H      42-58, 100-116, 162-177
########################################################################
[WARNING] Please study the warnings concerning your input carefully
-1- prog_main_parseArguments: Unknown option '-T' provided
########################################################################

          :  Hamiltonian                  GFN1-xTB          :
 * total energy  :  -320.8977948 Eh     change        0.4099547E-09 Eh
 * total energy  :  -321.1334785 Eh     change       -0.2356837E+00 Eh
 * total energy  :  -321.2623624 Eh     change       -0.1288840E+00 Eh
 * total energy  :  -321.3166606 Eh     change       -0.5429810E-01 Eh
 * total energy  :  -321.3489163 Eh     change       -0.3225571E-01 Eh
 * total energy  :  -321.3731543 Eh     change       -0.2423807E-01 Eh
 * total energy  :  -321.3926854 Eh     change       -0.1953106E-01 Eh
 * total energy  :  -321.4088773 Eh     change       -0.1619189E-01 Eh
 * total energy  :  -321.4220920 Eh     change       -0.1321473E-01 Eh
 * total energy  :  -321.4332116 Eh     change       -0.1111961E-01 Eh
 * total energy  :  -321.5094019 Eh     change       -0.9251956E-05 Eh
 * total energy  :  -321.5094106 Eh     change       -0.8684422E-05 Eh
 * total energy  :  -321.5094208 Eh     change       -0.1018453E-04 Eh
 * total energy  :  -321.5094319 Eh     change       -0.1113081E-04 Eh
 * total energy  :  -321.5094439 Eh     change       -0.1200438E-04 Eh
 * total energy  :  -321.5094578 Eh     change       -0.1388499E-04 Eh
 * total energy  :  -321.5094635 Eh     change       -0.5720816E-05 Eh
 * total energy  :  -321.5094721 Eh     change       -0.8621209E-05 Eh
 * total energy  :  -321.5094768 Eh     change       -0.4713158E-05 Eh
   *** GEOMETRY OPTIMIZATION CONVERGED AFTER 124 ITERATIONS ***

 final structure:
================
177
 xtb: 6.5.1 (b24c23e)
Cu          34.85632491675450       -0.25205129049197       -0.17385478854716
C           31.44320357531624       -0.18411841518511       -0.13442344510989
C           32.09460293978220        0.65341057813877        0.75816513139700
C           31.44074748466878        1.53535057370341        1.68233111086714
C           32.41648050741341        2.17415546567457        2.37596219187278
C           33.67116708767777        1.68544228196105        1.87990475638312
N           33.45053471904999        0.76755578228050        0.90041429691706
C           34.93004863244504        2.09543262812759        2.34602196588667
C           34.95864030238975        3.06424013277343        3.37421057688742
C           34.97268960097469        3.89814908163950        4.25560173969725
C           34.98298105751797        4.87370633993188        5.27877779754617
C           36.18306295307777        5.36279890007792        5.80792827302497
C           36.13482078262714        6.31827484207789        6.80740964723299
N           34.99623183770627        6.80188732092233        7.29768365992373
C           33.85100137281638        6.34162564333852        6.80030343773605
C           33.78979667052602        5.38739922054959        5.80060879208948
C           36.16080577369141        1.61840270876521        1.86787443373551
C           37.44024206241667        2.04044899343551        2.35614070127713
C           38.37800296462670        1.36414077311393        1.64407677668594
N           36.32954262413978        0.69812609141542        0.87604266830842
C           37.67462890549468        0.52764090817135        0.71740971346189
C           38.28904535531704       -0.31870456441970       -0.21524898144279
C           37.61981456028200       -1.14019877777458       -1.13237967298964
C           38.26756587810016       -2.00247709822916       -2.07565461132946
C           37.28731551104206       -2.64162770651083       -2.76444719995829
C           36.03748341056828       -2.17108610337645       -2.24506968295280
N           36.26568205826380       -1.25867459012174       -1.25783285483299
C           34.77801863011305       -2.60037176293586       -2.69263639547789
C           34.74727115333658       -3.57174805917605       -3.71829951437678
C           34.72011533973397       -4.41022023923744       -4.59502526802864
C           34.68936066590294       -5.38825684457092       -5.61537262568649
C           35.86998372432046       -5.90525882004850       -6.16170216108088
C           35.78511039732202       -6.86260650923243       -7.15678737659524
N           34.62847770457498       -7.32292708321688       -7.62695912108587
C           33.50166506297393       -6.83652783421063       -7.11278314676754
C           33.47709789474671       -5.87789016236257       -6.11561319309080
C           33.54753006379759       -2.14115410416867       -2.19779195468654
C           32.26337147645962       -2.57985384213754       -2.66415607862241
C           31.33003571985869       -1.90228247477398       -1.94923664498493
C           32.03959186619658       -1.04692638859883       -1.04131628521679
N           33.38621337964866       -1.21495524032037       -1.21456079022895
H           30.35829068938751       -0.16229563529754       -0.12178282806805
H           30.37158035109337        1.64162085867568        1.77722743419944
H           32.30973305993180        2.91118099463828        3.15606712994993
H           37.13331025504723        4.99706083673343        5.43800480156806
H           37.05072404770008        6.71569055147376        7.23535550612666
H           32.94067533840392        6.75716254775316        7.22292860839165
H           32.83479123952367        5.04059625467892        5.42459548489771
H           37.59054517413205        2.76243633142822        3.14290821408982
H           39.45153431900169        1.42014361726864        1.72878892306818
H           39.33563913454517       -2.09991288694544       -2.18733678494854
H           37.39081449415065       -3.36785629152998       -3.55483718072679
H           36.83359293230826       -5.55883625468359       -5.80803716783148
H           36.68512427404010       -7.28090181319489       -7.59831626536044
H           32.57592971288875       -7.23371373901593       -7.51924106116753
H           32.53603084659724       -5.50956919659692       -5.72527044744006
H           32.10970175461753       -3.31226296465917       -3.44076769752302
H           30.25560119758556       -1.96588434042235       -2.01968442219705
Cu          56.69139483437360       -0.37433847663249       -0.23985108867851
C           60.10486762935308       -0.35619414056840       -0.18904385894537
C           59.49046847467100       -1.57910918869215       -0.41201203551625
C           60.18214781989754       -2.81859330704104       -0.62365911230872
C           59.23483266596207       -3.77579301618490       -0.79028132697853
C           57.95998442221904       -3.12665660566389       -0.67922901748168
N           58.14058049826771       -1.79714807335192       -0.45495658593361
C           56.71993617098966       -3.77723705423714       -0.77474580985776
C           56.72853793931262       -5.17019818831697       -1.01155354043951
C           56.73090321246816       -6.36458181226974       -1.22584918497856
C           56.72673408027074       -7.75558668800745       -1.47839702052119
C           55.52705693651679       -8.46737839270101       -1.59532503040904
C           55.57588067595772       -9.82735085466051       -1.84482921627026
N           56.71478195778275      -10.50175081876095       -1.98094213990045
C           57.85967203822795       -9.83226113190086       -1.87142255639712
C           57.92028148081467       -8.47263193683748       -1.62332932298408
C           55.46964460964373       -3.14988779354096       -0.65650859534632
C           54.20987222060493       -3.82715501287563       -0.74034930412460
C           53.24347443268364       -2.88407356986086       -0.59557020776723
N           55.26079274161204       -1.81655831758634       -0.45938361988262
C           53.90984958321474       -1.62726888800567       -0.42606560458820
C           53.25818221881320       -0.39325988243410       -0.28719473008288
C           53.89242896164526        0.84823665526939       -0.13340654163452
C           53.20752644876221        2.09752613321195        0.01683961359283
C           54.15882287302003        3.05138297931589        0.18914829802096
C           55.42786338587289        2.38814791949997        0.14216403389414
N           55.23957763096799        1.05270006188838       -0.06217560553440
C           56.66730134009955        3.02771098392234        0.30088664783097
C           56.65875265572555        4.41804102288558        0.55279321792682
C           56.65823284581325        5.60880138803168        0.78641494059175
C           56.65971133063343        6.99403712786716        1.06905768252883
C           55.46491811313572        7.71544443885149        1.17707466858281
C           55.52181548437318        9.06790497225083        1.46258006596769
N           56.66421302223516        9.72648931781954        1.64147845764506
C           57.80439356934802        9.04810846998069        1.53967048907487
C           57.85687308682214        7.69461968649426        1.25799037824463
C           57.91660212550480        2.39039704711052        0.23886711027350
C           59.18044603286694        3.05318148058141        0.38873738632924
C           60.14276954712285        2.10674808470276        0.24872271221956
C           59.47138137705461        0.86021422156264        0.01509837802394
N           58.11837914520488        1.06358281240546        0.01758744158904
H           61.18993666334871       -0.35076996628533       -0.17216832157919
H           61.25515860527823       -2.92725911052828       -0.63985384827799
H           59.37312925964968       -4.83009500880581       -0.97051702616042
H           54.57651965734771       -7.95802506958841       -1.49185324490043
H           54.66015263166990      -10.40378085124537       -1.94037113433942
H           58.77010929466663      -10.41312343574584       -1.98819391204270
H           58.87499472355196       -7.96711510735514       -1.54211094835003
H           54.09023285225846       -4.88815318456688       -0.89144515205547
H           52.17338469851304       -3.01685775269865       -0.60593403169123
H           52.13613930956646        2.21801326085753       -0.00457447187265
H           54.02340782778406        4.11110148828016        0.33581880397384
H           54.51209292569666        7.21860827025426        1.03972443489732
H           54.61021783356002        9.65164077574677        1.55295189666130
H           58.71793289419011        9.61581642680768        1.69176148781475
H           58.80821134613758        7.18147270964535        1.18515930645530
H           59.30198660105042        4.10863839250257        0.57410598793606
H           61.21349344448630        2.22764705177159        0.29702303231181
C           39.70659525069642       -0.34713129374567       -0.23308083607468
C           40.92017463615642       -0.37444941420215       -0.25564291989748
C           50.62874890517364       -0.41878404735211       -0.30754345300555
C           51.84330613457512       -0.40262387323145       -0.29986926075110
Cu          45.77543519329218       -0.43353296424266       -0.31036107968545
C           42.33751133739948       -0.39862541296595       -0.27623512796787
C           42.97771234542181        0.33575162939126       -1.28387427523228
C           42.30067402901521        1.09478810292948       -2.29332957565650
C           43.25926654520197        1.67937077413533       -3.05707840184714
C           44.52460057198883        1.28160146795629       -2.51460392409322
N           44.32705929003516        0.46057059331006       -1.44465155368773
C           45.77021316449571        1.70224722683542       -3.00669897099772
C           45.76924724046493        2.56768380745849       -4.12366752582980
C           45.77014411307501        3.30660242651124       -5.08613410935228
C           45.77537490963656        4.16756737558619       -6.20733633937268
C           46.97516347663483        4.59027750632645       -6.79173140886556
C           46.92636863188602        5.43254071627089       -7.88806259776821
N           45.78738222985695        5.86753253729025       -8.42144071496271
C           44.64261864981976        5.47027835097149       -7.87159935922159
C           44.58190040091019        4.62879756050646       -6.77513524971621
C           47.01728501527796        1.33540210449545       -2.47709737858837
C           48.27984896806706        1.79382117060858       -2.97630758336689
C           49.24114526141125        1.20813115724437       -2.21657771257046
N           47.21946938333134        0.48858899333140       -1.42803149096234
C           48.56865914325216        0.38657920663610       -1.25441884433138
C           49.21405004007367       -0.42986359536342       -0.31402082883741
C           48.57224391006586       -1.25696477857342        0.61969817900817
C           49.24850078847066       -2.08800711295814        1.57096632538191
C           48.28977369722744       -2.68985685204769        2.32143235307757
C           47.02532001791688       -2.22757153026920        1.83117392421633
N           47.22365482270764       -1.36659244593468        0.79245473370318
C           45.78050306947907       -2.59247942016715        2.36716322548175
C           45.78102939456183       -3.46861894548760        3.47592000139778
C           45.77798702837132       -4.21363145174918        4.43370800025999
C           45.76923477449947       -5.07419261113113        5.55527028256259
C           44.56833605798823       -5.46721458945759        6.15793222863004
C           44.61284407785167       -6.30753070043970        7.25601215473207
N           45.74874430070118       -6.76708036057793        7.77509465367688
C           46.89452556269070       -6.39805142601253        7.20793365800115
C           46.95940047295358       -5.56191964969948        6.10751374240851
C           44.53367065036473       -2.14867904914881        1.89873968498101
C           43.27154308822262       -2.52507929165025        2.46360559479701
C           42.31017543593744       -1.90920415238186        1.72844127723181
C           42.98217439653440       -1.15561912251126        0.71164799007090
N           44.33149147808604       -1.31326422516393        0.84089599237192
H           41.22941002927870        1.16499641131119       -2.39458559419844
H           43.13166302619143        2.32624951988379       -3.91036062825728
H           47.92530091385239        4.26048871105827       -6.38921456164005
H           47.84177710097254        5.77568490900966       -8.36155261045630
H           43.73212659528545        5.84377581774079       -8.33150387055428
H           43.62730123656697        4.32970586787964       -6.35929309806864
H           48.40393385649955        2.47558449735317       -3.80252212535377
H           50.31154204825889        1.31224063624745       -2.29587952113378
H           50.31935781573540       -2.18866577565059        1.64854484783162
H           48.41740804831421       -3.38383247489572        3.13689520812229
H           43.62049263675785       -5.11615374344736        5.76802854314554
H           43.69635527720582       -6.62778277965726        7.74330345106959
H           47.80246110357498       -6.79084094129352        7.65662367768843
H           47.91492051578374       -5.28643870665608        5.67772758526829
H           43.14768742225797       -3.17827083920203        3.31263571632534
H           41.24007784926008       -1.95610226824093        1.85290705170866

          :  Hamiltonian                  GFN1-xTB          :
         :: total energy            -321.509476828086 Eh    ::
         :: gradient norm              0.000744668459 Eh/a0 ::
         :: HOMO-LUMO gap              0.000009624309 eV    ::
         :: SCC energy              -326.787102738978 Eh    ::
         :: repulsion energy           5.431082089594 Eh    ::

    * Orbital Energies and Occupations

         #    Occupation            Energy/Eh            Energy/eV
      -------------------------------------------------------------
         1        2.0000           -0.7733449             -21.0438
       ...           ...                  ...                  ...
       287        2.0000           -0.4168206             -11.3423
       288        2.0000           -0.4168176             -11.3422
       289        2.0000           -0.4168110             -11.3420
       290        2.0000           -0.4164647             -11.3326
       291        2.0000           -0.4163839             -11.3304
       292        2.0000           -0.4042248             -10.9995
       293        2.0000           -0.4042199             -10.9994
       294        2.0000           -0.4041952             -10.9987
       295        2.0000           -0.3961673             -10.7803
       296        2.0000           -0.3933119             -10.7026
       297        2.0000           -0.3889755             -10.5846
       298        1.0211           -0.3648884              -9.9291
       299        0.9895           -0.3648209              -9.9273 (HOMO)
       300        0.9894           -0.3648206              -9.9273 (LUMO)
       301                         -0.3447965              -9.3824
       302                         -0.3447923              -9.3823
       303                         -0.3446123              -9.3774
       304                         -0.3443917              -9.3714
       305                         -0.3384514              -9.2097
       306                         -0.3341642              -9.0931
       307                         -0.3169642              -8.6250
       308                         -0.3142062              -8.5500
       309                         -0.3126900              -8.5087
       310                         -0.2890754              -7.8661
       ...                                ...                  ...
       623                          1.3478389              36.6766
      -------------------------------------------------------------
                  HL-Gap            0.0000004 Eh            0.0000 eV

Wiberg/Mayer (AO) data.
largest (>0.10) Wiberg bond orders for each atom

     #   Z sym  total        # sym  WBO       # sym  WBO       # sym  WBO
 ---------------------------------------------------------------------------
     1  29 Cu   2.183 --     7 N    0.504    41 N    0.504    27 N    0.502
                            20 N    0.502
     2   6 C    3.933 --     3 C    1.364    40 C    1.364    42 H    0.971
     3   6 C    3.908 --     2 C    1.364     7 N    1.220     4 C    1.172
     4   6 C    3.955 --     5 C    1.651     3 C    1.172    43 H    0.975
     5   6 C    3.957 --     4 C    1.651     6 C    1.179    44 H    0.974
     6   6 C    3.905 --     8 C    1.272     7 N    1.256     5 C    1.179
     7   7 N    3.245 --     6 C    1.256     3 C    1.220     1 Cu   0.504
     8   6 C    3.934 --    17 C    1.273     6 C    1.272     9 C    1.159
     9   6 C    3.958 --    10 C    2.625     8 C    1.159
    10   6 C    3.934 --     9 C    2.625    11 C    1.141
    11   6 C    3.987 --    12 C    1.351    16 C    1.350    10 C    1.141
    12   6 C    3.973 --    13 C    1.457    11 C    1.351    45 H    0.974
                            15 C    0.104
    13   6 C    3.973 --    12 C    1.457    14 N    1.407    46 H    0.972
                            16 C    0.104
    14   7 N    2.994 --    13 C    1.407    15 C    1.407
    15   6 C    3.973 --    16 C    1.457    14 N    1.407    47 H    0.972
                            12 C    0.104
    16   6 C    3.973 --    15 C    1.457    11 C    1.350    48 H    0.974
                            13 C    0.104
    17   6 C    3.900 --     8 C    1.273    20 N    1.246    18 C    1.186
    18   6 C    3.957 --    19 C    1.640    17 C    1.186    49 H    0.974
    19   6 C    3.957 --    18 C    1.640    21 C    1.185    50 H    0.974
    20   7 N    3.247 --    17 C    1.246    21 C    1.237     1 Cu   0.502
    21   6 C    3.901 --    22 C    1.283    20 N    1.237    19 C    1.185
    22   6 C    3.936 --    21 C    1.283    23 C    1.283   117 C    1.139
    23   6 C    3.901 --    22 C    1.283    27 N    1.237    24 C    1.186
    24   6 C    3.957 --    25 C    1.640    23 C    1.186    51 H    0.974
    25   6 C    3.957 --    24 C    1.640    26 C    1.186    52 H    0.974
    26   6 C    3.900 --    28 C    1.273    27 N    1.246    25 C    1.186
    27   7 N    3.247 --    26 C    1.246    23 C    1.237     1 Cu   0.502
    28   6 C    3.934 --    26 C    1.273    37 C    1.272    29 C    1.159
    29   6 C    3.958 --    30 C    2.625    28 C    1.159
    30   6 C    3.934 --    29 C    2.625    31 C    1.141
    31   6 C    3.987 --    36 C    1.350    32 C    1.350    30 C    1.141
    32   6 C    3.973 --    33 C    1.457    31 C    1.350    53 H    0.974
                            35 C    0.104
    33   6 C    3.973 --    32 C    1.457    34 N    1.407    54 H    0.972
                            36 C    0.104
    34   7 N    2.994 --    35 C    1.407    33 C    1.407
    35   6 C    3.973 --    36 C    1.457    34 N    1.407    55 H    0.972
                            32 C    0.104
    36   6 C    3.973 --    35 C    1.457    31 C    1.350    56 H    0.974
                            33 C    0.104
    37   6 C    3.905 --    28 C    1.272    41 N    1.256    38 C    1.179
    38   6 C    3.957 --    39 C    1.651    37 C    1.179    57 H    0.974
    39   6 C    3.955 --    38 C    1.651    40 C    1.172    58 H    0.975
    40   6 C    3.908 --     2 C    1.364    41 N    1.220    39 C    1.172
    41   7 N    3.245 --    37 C    1.256    40 C    1.220     1 Cu   0.504
    42   1 H    1.001 --     2 C    0.971
    43   1 H    0.997 --     4 C    0.975
    44   1 H    1.003 --     5 C    0.974
    45   1 H    1.002 --    12 C    0.974
    46   1 H    1.013 --    13 C    0.972
    47   1 H    1.013 --    15 C    0.972
    48   1 H    1.002 --    16 C    0.974
    49   1 H    1.002 --    18 C    0.974
    50   1 H    1.002 --    19 C    0.974
    51   1 H    1.002 --    24 C    0.974
    52   1 H    1.002 --    25 C    0.974
    53   1 H    1.002 --    32 C    0.974
    54   1 H    1.013 --    33 C    0.972
    55   1 H    1.013 --    35 C    0.972
    56   1 H    1.002 --    36 C    0.974
    57   1 H    1.002 --    38 C    0.974
    58   1 H    0.997 --    39 C    0.975
    59  29 Cu   2.183 --    99 N    0.504    65 N    0.504    78 N    0.501
                            85 N    0.501
    60   6 C    3.932 --    98 C    1.364    61 C    1.364   100 H    0.971
    61   6 C    3.908 --    60 C    1.364    65 N    1.220    62 C    1.172
    62   6 C    3.955 --    63 C    1.651    61 C    1.172   101 H    0.976
    63   6 C    3.957 --    62 C    1.651    64 C    1.179   102 H    0.974
    64   6 C    3.905 --    66 C    1.272    65 N    1.257    63 C    1.179
    65   7 N    3.244 --    64 C    1.257    61 C    1.220    59 Cu   0.504
    66   6 C    3.934 --    75 C    1.274    64 C    1.272    67 C    1.159
    67   6 C    3.958 --    68 C    2.625    66 C    1.159
    68   6 C    3.933 --    67 C    2.625    69 C    1.141
    69   6 C    3.987 --    70 C    1.350    74 C    1.350    68 C    1.141
    70   6 C    3.973 --    71 C    1.457    69 C    1.350   103 H    0.974
                            73 C    0.104
    71   6 C    3.973 --    70 C    1.457    72 N    1.407   104 H    0.972
                            74 C    0.104
    72   7 N    2.994 --    71 C    1.407    73 C    1.407
    73   6 C    3.973 --    74 C    1.457    72 N    1.407   105 H    0.972
                            70 C    0.104
    74   6 C    3.973 --    73 C    1.457    69 C    1.350   106 H    0.974
                            71 C    0.104
    75   6 C    3.899 --    66 C    1.274    78 N    1.244    76 C    1.187
    76   6 C    3.956 --    77 C    1.639    75 C    1.187   107 H    0.974
    77   6 C    3.957 --    76 C    1.639    79 C    1.187   108 H    0.974
    78   7 N    3.246 --    75 C    1.244    79 C    1.239    59 Cu   0.501
    79   6 C    3.899 --    80 C    1.277    78 N    1.239    77 C    1.187
    80   6 C    3.937 --    79 C    1.277    81 C    1.277   120 C    1.151
    81   6 C    3.899 --    80 C    1.277    85 N    1.240    82 C    1.187
    82   6 C    3.957 --    83 C    1.639    81 C    1.187   109 H    0.974
    83   6 C    3.956 --    82 C    1.639    84 C    1.187   110 H    0.974
    84   6 C    3.899 --    86 C    1.274    85 N    1.244    83 C    1.187
    85   7 N    3.246 --    84 C    1.244    81 C    1.240    59 Cu   0.501
    86   6 C    3.934 --    84 C    1.274    95 C    1.271    87 C    1.159
    87   6 C    3.958 --    88 C    2.625    86 C    1.159
    88   6 C    3.933 --    87 C    2.625    89 C    1.141
    89   6 C    3.987 --    90 C    1.350    94 C    1.350    88 C    1.141
    90   6 C    3.973 --    91 C    1.457    89 C    1.350   111 H    0.974
                            93 C    0.104
    91   6 C    3.973 --    90 C    1.457    92 N    1.407   112 H    0.972
                            94 C    0.104
    92   7 N    2.994 --    93 C    1.407    91 C    1.407
    93   6 C    3.973 --    94 C    1.457    92 N    1.407   113 H    0.972
                            90 C    0.104
    94   6 C    3.973 --    93 C    1.457    89 C    1.350   114 H    0.974
                            91 C    0.104
    95   6 C    3.905 --    86 C    1.271    99 N    1.257    96 C    1.179
    96   6 C    3.957 --    97 C    1.651    95 C    1.179   115 H    0.974
    97   6 C    3.955 --    96 C    1.651    98 C    1.173   116 H    0.976
    98   6 C    3.908 --    60 C    1.364    99 N    1.219    97 C    1.173
    99   7 N    3.244 --    95 C    1.257    98 C    1.219    59 Cu   0.504
   100   1 H    1.001 --    60 C    0.971
   101   1 H    0.997 --    62 C    0.976
   102   1 H    1.002 --    63 C    0.974
   103   1 H    1.002 --    70 C    0.974
   104   1 H    1.013 --    71 C    0.972
   105   1 H    1.013 --    73 C    0.972
   106   1 H    1.002 --    74 C    0.974
   107   1 H    1.003 --    76 C    0.974
   108   1 H    1.002 --    77 C    0.974
   109   1 H    1.002 --    82 C    0.974
   110   1 H    1.002 --    83 C    0.974
   111   1 H    1.002 --    90 C    0.974
   112   1 H    1.013 --    91 C    0.972
   113   1 H    1.013 --    93 C    0.972
   114   1 H    1.002 --    94 C    0.974
   115   1 H    1.002 --    96 C    0.974
   116   1 H    0.997 --    97 C    0.976
   117   6 C    3.929 --   118 C    2.608    22 C    1.139
   118   6 C    3.930 --   117 C    2.608   122 C    1.140
   119   6 C    3.932 --   120 C    2.599   142 C    1.151
   120   6 C    3.931 --   119 C    2.599    80 C    1.151
   121  29 Cu   2.157 --   147 N    0.497   127 N    0.497   140 N    0.497
                           161 N    0.497
   122   6 C    3.930 --   160 C    1.282   123 C    1.282   118 C    1.140
   123   6 C    3.901 --   122 C    1.282   127 N    1.239   124 C    1.185
   124   6 C    3.956 --   125 C    1.640   123 C    1.185   162 H    0.974
   125   6 C    3.958 --   124 C    1.640   126 C    1.186   163 H    0.974
   126   6 C    3.899 --   128 C    1.272   127 N    1.246   125 C    1.186
   127   7 N    3.242 --   126 C    1.246   123 C    1.239   121 Cu   0.497
   128   6 C    3.931 --   137 C    1.273   126 C    1.272   129 C    1.159
   129   6 C    3.958 --   130 C    2.625   128 C    1.159
   130   6 C    3.933 --   129 C    2.625   131 C    1.141
   131   6 C    3.987 --   136 C    1.350   132 C    1.350   130 C    1.141
   132   6 C    3.973 --   133 C    1.457   131 C    1.350   164 H    0.974
                           135 C    0.104
   133   6 C    3.973 --   132 C    1.457   134 N    1.407   165 H    0.972
                           136 C    0.104
   134   7 N    2.994 --   135 C    1.407   133 C    1.407
   135   6 C    3.973 --   136 C    1.457   134 N    1.407   166 H    0.972
                           132 C    0.104
   136   6 C    3.973 --   135 C    1.457   131 C    1.350   167 H    0.974
                           133 C    0.104
   137   6 C    3.899 --   128 C    1.273   140 N    1.245   138 C    1.186
   138   6 C    3.957 --   139 C    1.639   137 C    1.186   168 H    0.974
   139   6 C    3.956 --   138 C    1.639   141 C    1.186   169 H    0.974
   140   7 N    3.243 --   137 C    1.245   141 C    1.241   121 Cu   0.497
   141   6 C    3.899 --   142 C    1.277   140 N    1.241   139 C    1.186
   142   6 C    3.932 --   141 C    1.277   143 C    1.276   119 C    1.151
   143   6 C    3.899 --   142 C    1.276   147 N    1.242   144 C    1.186
   144   6 C    3.956 --   145 C    1.639   143 C    1.186   170 H    0.974
   145   6 C    3.957 --   144 C    1.639   146 C    1.186   171 H    0.974
   146   6 C    3.899 --   148 C    1.274   147 N    1.244   145 C    1.186
   147   7 N    3.243 --   146 C    1.244   143 C    1.242   121 Cu   0.497
   148   6 C    3.931 --   146 C    1.274   157 C    1.272   149 C    1.159
   149   6 C    3.958 --   150 C    2.625   148 C    1.159
   150   6 C    3.933 --   149 C    2.625   151 C    1.141
   151   6 C    3.987 --   156 C    1.351   152 C    1.350   150 C    1.141
   152   6 C    3.973 --   153 C    1.457   151 C    1.350   172 H    0.974
                           155 C    0.104
   153   6 C    3.973 --   152 C    1.457   154 N    1.407   173 H    0.972
                           156 C    0.104
   154   7 N    2.994 --   155 C    1.407   153 C    1.407
   155   6 C    3.973 --   156 C    1.457   154 N    1.407   174 H    0.972
                           152 C    0.104
   156   6 C    3.973 --   155 C    1.457   151 C    1.351   175 H    0.974
                           153 C    0.104
   157   6 C    3.899 --   148 C    1.272   161 N    1.247   158 C    1.186
   158   6 C    3.958 --   159 C    1.640   157 C    1.186   176 H    0.974
   159   6 C    3.956 --   158 C    1.640   160 C    1.185   177 H    0.974
   160   6 C    3.901 --   122 C    1.282   161 N    1.239   159 C    1.185
   161   7 N    3.242 --   157 C    1.247   160 C    1.239   121 Cu   0.497
   162   1 H    1.002 --   124 C    0.974
   163   1 H    1.002 --   125 C    0.974
   164   1 H    1.002 --   132 C    0.974
   165   1 H    1.013 --   133 C    0.972
   166   1 H    1.013 --   135 C    0.972
   167   1 H    1.002 --   136 C    0.974
   168   1 H    1.003 --   138 C    0.974
   169   1 H    1.002 --   139 C    0.974
   170   1 H    1.002 --   144 C    0.974
   171   1 H    1.002 --   145 C    0.974
   172   1 H    1.002 --   152 C    0.974
   173   1 H    1.013 --   153 C    0.972
   174   1 H    1.013 --   155 C    0.972
   175   1 H    1.002 --   156 C    0.974
   176   1 H    1.003 --   158 C    0.974
   177   1 H    1.002 --   159 C    0.974
 ---------------------------------------------------------------------------

           -------------------------------------------------
          | TOTAL ENERGY             -321.509476828086 Eh   |
          | GRADIENT NORM               0.000744668459 Eh/α |
          | HOMO-LUMO GAP               0.000009624309 eV   |
           -------------------------------------------------

 * finished run on 2022/07/30 at 07:02:46.957
