   * xtb version 6.5.1 (b24c23e) compiled by 'conda@728c89f4b128' on 2022-07-12
          program call               : xtb Co_NMA_C4_3.xyz --gfn 1 --opt -T 48

   ID    Z sym.   atoms
    1   27 Co     1, 67, 141
    2    6 C      2-6, 8-12, 14-19, 21-26, 28-32, 34-40, 68-72, 74-78, 80-85,
                  87-92, 94-98, 100-106, 133-140, 142-146, 148-152, 154-159,
                  161-166, 168-172, 174-180
    3    7 N      7, 13, 20, 27, 33, 41, 73, 79, 86, 93, 99, 107, 147, 153,
                  160, 167, 173, 181
    4    1 H      42-66, 108-132, 182-205

          :  Hamiltonian                  GFN1-xTB          :
 * total energy  :  -317.7221778 Eh     change       -0.3942318E-08 Eh
 * total energy  :  -334.2467259 Eh     change       -0.1652455E+02 Eh
 * total energy  :  -336.1397548 Eh     change       -0.1893029E+01 Eh
 * total energy  :  -337.4229193 Eh     change       -0.1283164E+01 Eh
 * total energy  :  -338.0890932 Eh     change       -0.6661739E+00 Eh
 * total energy  :  -338.4498205 Eh     change       -0.3607273E+00 Eh
 * total energy  :  -338.6756512 Eh     change       -0.2258306E+00 Eh
 * total energy  :  -338.8298858 Eh     change       -0.1542346E+00 Eh
 * total energy  :  -338.9474614 Eh     change       -0.1175756E+00 Eh
 * total energy  :  -339.0469436 Eh     change       -0.9948226E-01 Eh
 * total energy  :  -340.2939134 Eh     change       -0.3310655E-04 Eh
 * total energy  :  -340.2939430 Eh     change       -0.2959208E-04 Eh
 * total energy  :  -340.2939713 Eh     change       -0.2830320E-04 Eh
 * total energy  :  -340.2940157 Eh     change       -0.4438374E-04 Eh
 * total energy  :  -340.2940288 Eh     change       -0.1307069E-04 Eh
 * total energy  :  -340.2940524 Eh     change       -0.2357357E-04 Eh
 * total energy  :  -340.2940619 Eh     change       -0.9565556E-05 Eh
 * total energy  :  -340.2940694 Eh     change       -0.7449288E-05 Eh
 * total energy  :  -340.2940741 Eh     change       -0.4736258E-05 Eh
   *** GEOMETRY OPTIMIZATION CONVERGED AFTER 115 ITERATIONS ***

 final structure:
================
205
 xtb: 6.5.1 (b24c23e)
Co          36.14818665009532        0.09369867788057       -0.08889565280838
C           32.78655939018016        0.22206032304903       -0.23025638737766
C           33.42468729520820        0.86853612450873        0.80795328630798
C           32.75128216057153        1.55136444559457        1.86949712525965
C           33.70422616352337        2.20482255976740        2.57710103747164
C           34.95592144586514        1.94039162472642        1.93015142986117
N           34.78096492002017        1.05899401885142        0.89460693600307
C           36.14539841308796        2.60241174942601        2.21669433111790
C           36.14947835544504        3.68249805700392        3.22443190677299
C           35.28608307208322        4.77648232829394        3.10829557851062
C           35.29750118337927        5.78955263481788        4.04741323303436
C           36.17029947608594        5.73630698502744        5.14171061837867
N           36.10345065798028        6.74564643190890        6.08891425787635
C           37.24799742280374        7.00826424315674        6.95052643735606
C           37.02613069643358        4.63814510649388        5.27063550714995
C           37.01797493446639        3.63482652542905        4.31731517237820
C           37.32806689460941        2.28350189601347        1.56234651163885
C           38.56121824436380        2.99212562420528        1.72724010774060
C           39.51253607742655        2.28132619381148        1.07277895182689
N           37.51350367608831        1.18659184274350        0.75290507273717
C           38.85706632383270        1.14503994678006        0.50811889670156
C           39.53349753899708        0.05762052503773       -0.05381660591468
C           38.84727181054937       -1.03390851532799       -0.59724421871359
C           39.48831822262016       -2.20996264645972       -1.09220229780427
C           38.52835104447051       -2.94708237483685       -1.70341852367558
C           37.30804056759118       -2.20493360241441       -1.59923923196209
N           37.50619977765759       -1.06631423245250       -0.85088084538587
C           36.13911801792194       -2.51516927869862       -2.28022920900547
C           36.12696946419476       -3.65918680494006       -3.21461175595046
C           37.04234354779044       -3.73586098745245       -4.26674426197669
C           37.03607090049326       -4.80518885209341       -5.14535328352020
C           36.11587409464794       -5.84480185145426       -4.97982087440653
N           36.03776009563038       -6.91771067546874       -5.85366061108115
C           37.20806043131694       -7.30591332139997       -6.62914443312074
C           35.19112547581649       -5.76979114760513       -3.93040649358935
C           35.19537154599494       -4.69165048946635       -3.06668872970611
C           34.97922271597744       -1.76483032743987       -2.11103228711573
C           33.76816442738720       -1.96720776618466       -2.85055489976547
C           32.82263174789537       -1.18430625132561       -2.27721163663690
C           33.45885085875203       -0.50103308514804       -1.19279856390509
N           34.79559787257976       -0.81168402319026       -1.14428051889842
H           31.70513842859544        0.27047471829660       -0.28205336267859
H           31.68604627137749        1.52347610643245        2.03616573905005
H           33.58165297976517        2.81550653205082        3.45694538532607
H           34.61915676295617        4.84284470806040        2.25566790182826
H           34.62890984830889        6.63720544648833        3.93954427569246
H           35.68482254311840        7.59522998800700        5.73032567516772
H           38.16634048276835        7.14908583889167        6.36910082481286
H           37.38823095066231        6.18159004968827        7.64823801999268
H           37.03971456578831        7.91383908152122        7.52030423473578
H           37.69882289058285        4.55950614858090        6.11585298966786
H           37.67983397232064        2.78355549738013        4.43450787971927
H           38.67394711219528        3.91585056342250        2.27132786233400
H           40.56686979015676        2.48821291192147        0.98223281580607
H           40.53821627461988       -2.42880503777597       -0.98071478499253
H           38.62904697562718       -3.90598953262416       -2.18531490699071
H           37.75385425280417       -2.93050860074929       -4.41369052510787
H           37.74818223440924       -4.82370865424978       -5.96122689975472
H           35.55490521312343       -7.71429383601485       -5.45616736995256
H           37.43062769860759       -6.54387248670881       -7.37718973113641
H           36.97803517725713       -8.24029661189033       -7.14109530662205
H           38.08592563128354       -7.44993070579410       -5.98895985621262
H           34.46993588939292       -6.56934206173879       -3.79710092259114
H           34.48576904441018       -4.65718418703241       -2.24724651034607
H           33.66753528830321       -2.62414973502574       -3.69938771850269
H           31.78308903316593       -1.07524964285082       -2.54314390568441
Co          62.87894954361273        0.02231411907129       -0.01973525113930
C           66.23951300715865        0.13703263054923       -0.19411193192029
C           65.60036653519376       -1.01650032289721       -0.59822424594301
C           66.27288425331740       -2.19615343966689       -1.04896917689586
C           65.31924990281209       -3.02173289123666       -1.54362996818822
C           64.06749155263273       -2.33556710882053       -1.41214779805168
N           64.24343852388564       -1.14101848652830       -0.76310770228360
C           62.87468260256361       -2.75748198988090       -1.99042538469980
C           62.87074235113877       -3.96091323184198       -2.84726803798806
C           63.71820708117765       -4.05374468402186       -3.95575266276335
C           63.70394126772640       -5.17313128216895       -4.76519811043124
C           62.84480385657856       -6.24333887546751       -4.48506366478896
N           62.90701342698023       -7.36846102447863       -5.29214175569900
C           61.76721932513450       -8.27258869130135       -5.36243443493376
C           62.00740300213232       -6.16339466584496       -3.36828435530441
C           62.01777791408869       -5.03185773673784       -2.57129962836080
C           61.68843045867912       -2.06344860329422       -1.79347594896495
C           60.44605347166634       -2.38708513049923       -2.42747907436560
C           59.49605650016559       -1.61428916135908       -1.84559301899966
N           61.50833980402054       -1.04748901648033       -0.88309153495117
C           60.16198641721290       -0.81728379277296       -0.86526359180637
C           59.49551255331359       -0.04090717178849        0.08820703124941
C           60.19123635274693        0.73984645507569        1.01736363417376
C           59.56195276406160        1.48366536515116        2.06125354253309
C           60.52239704762312        2.26543501113912        2.61369145354715
C           61.73110969792082        2.00958576814602        1.88964099098172
N           61.52790863031919        1.01337792601187        0.96153728611092
C           62.89272269825064        2.76047231069620        2.00834599189561
C           62.90163492252434        3.94477997278688        2.89099775273163
C           61.96540508049159        4.96794236139617        2.72437161503207
C           61.96972718442072        6.08380018021595        3.54300168239948
C           62.90992829803052        6.19648655658435        4.57171616066587
N           62.98856340739684        7.31116145790093        5.39152964199127
C           61.81002386491044        8.14140412499545        5.59951335335568
C           63.85386166210507        5.17546663016467        4.74085100484295
C           63.85049867301090        4.07137376420996        3.91052664053420
C           64.04708789630187        2.42738980852191        1.30610895963328
C           65.25544063890931        3.19839138863185        1.31975249395291
C           66.20185236931647        2.45590691694309        0.69629685861859
C           65.56757311149038        1.23865405915443        0.29234250304405
N           64.23189489666521        1.26192251982924        0.60939237014154
H           67.32080126477737        0.17696616772079       -0.25513845582195
H           67.33833859972924       -2.35307702722011       -0.99035427768149
H           65.44069486906508       -4.00714314904850       -1.96361407372012
H           64.37425184823626       -3.22473214054002       -4.19765526750345
H           64.35916623976046       -5.22726572722548       -5.62827315230575
H           63.30664121125904       -7.17732514228419       -6.20289802481096
H           60.84064450546839       -7.73573365963318       -5.59595118408177
H           61.64807601876029       -8.79832027708160       -4.41416374954613
H           61.96623404318228       -9.00516383447094       -6.14462871926050
H           61.34697524085665       -6.98341460418430       -3.11433309689973
H           61.36993051310742       -4.98636536004916       -1.70257730830873
H           60.32626754662215       -3.11101790341056       -3.21712212729154
H           58.43668919731842       -1.58337503372324       -2.04403994026693
H           58.51864173871081        1.40943654638844        2.32336877398759
H           60.42953088920223        2.95593458773803        3.43620683026693
H           61.23854248782506        4.89924414900091        1.92226789137420
H           61.24090254177361        6.86695807876755        3.37378033383205
H           63.49321389782368        7.13243611750932        6.25120867898514
H           61.55801135128520        8.67018536721037        4.67940486082394
H           62.04670229465858        8.87539504887860        6.36978773043018
H           60.94832127664402        7.54480157937042        5.91998398316389
H           64.58984770847459        5.25598276118643        5.53395997581577
H           64.57534435120736        3.27997791604610        4.06704103125212
H           65.35457848758082        4.18092932022519        1.75211886716917
H           67.24017359396971        2.69109277145239        0.52369278722155
C           42.15742075244398        0.03420714483853       -0.06048727332355
C           40.93405625345410        0.04926297963403       -0.05562742744980
C           43.50421373745827        0.02297101847885       -0.06115799593527
C           44.72780067250546        0.01309840901993       -0.06046629576577
C           55.52502241884905       -0.03953557481687        0.10717816677122
C           54.30165299369325       -0.03055254289575        0.08715699239563
C           56.87177373286355       -0.04589230630349        0.11548241903933
C           58.09517063117782       -0.04635352872267        0.11173624121280
Co          49.51571157596469        0.03255059661190       -0.04397079467694
C           46.12744443209238        0.01264803907939       -0.05338628358284
C           46.81600293121198       -1.11518417637557       -0.51425436476513
C           46.17684985232467       -2.30908296518320       -0.96595231982510
C           47.13888256785731       -3.06646480956971       -1.55034158812997
C           48.35896337788136       -2.32374507592599       -1.46214571799222
N           48.15991764233653       -1.16180827178968       -0.75402245937207
C           49.53764880915519       -2.66223341976075       -2.11717269449250
C           49.54604733462790       -3.81721138105225       -3.03626626723366
C           50.46092025789426       -4.86141259876453       -2.86585929125892
C           50.47015493445461       -5.94117400830756       -3.72709741742809
C           49.57260473415217       -6.00316826833835       -4.80093001662789
N           49.59155155303004       -7.12537237457155       -5.61333873473234
C           49.06134835403230       -7.04839332509333       -6.96810125170866
C           48.65141312351609       -4.96510774970348       -4.97274317307436
C           48.64115218902874       -3.89301703348985       -4.09791383256405
C           50.71040997721668       -1.94010101886580       -1.92633976520368
C           51.94256207340754       -2.19448169456332       -2.60778687179073
C           52.89409073672046       -1.45397958756544       -1.98506183646125
N           50.89315179450703       -0.98923886321734       -0.95023716777785
C           52.23532401708310       -0.73949665185337       -0.93999787018301
C           52.90242959581284       -0.01776078826489        0.05696280871896
C           52.20393195814402        0.72687617125771        1.01395272122468
C           52.83172929688906        1.45676458409984        2.06789298286578
C           51.87069089507786        2.23474223784974        2.62625071225982
C           50.66300346439937        1.98263536572776        1.90114056850255
N           50.86590894219106        0.99696229855676        0.96429590152707
C           49.49438973541746        2.72429599165240        2.03325947403448
C           49.49055594707006        3.90540324112501        2.91880450499669
C           48.56267712560755        4.02005402603584        3.95669048941311
C           48.56336893512336        5.11723334140087        4.79991897469052
C           49.49742444439581        6.14205253749699        4.61843124169637
N           49.50910674588123        7.28700057236228        5.39814738728981
C           48.95091328114765        7.25424727224705        6.74310360908283
C           50.41789690034277        6.04108645222939        3.56718863152411
C           50.41881671563969        4.93600994241569        2.73863649368332
C           48.33084301703167        2.37765657565938        1.35635770125989
C           47.11058225531454        3.12349088407946        1.40190798507742
C           46.15843633738437        2.35107727413673        0.82050287588638
C           46.80526063711190        1.14724518907450        0.40866963096805
N           48.14241643235304        1.19573811815014        0.67922936520059
H           45.12589701348028       -2.52207663699030       -0.85328169105100
H           47.03964482706136       -4.04029469413969       -2.00160927107227
H           51.15470768609036       -4.83310838765806       -2.03279031341042
H           51.17636652410072       -6.75065306894799       -3.57521070876560
H           50.46945845937791       -7.62842696819260       -5.56858060061094
H           47.97761030858053       -6.92663130901379       -6.93954950685902
H           49.50358654932117       -6.21531698806457       -7.52672108079353
H           49.29384070349268       -7.98539412764276       -7.47412216356862
H           47.94031778871323       -4.98843517315805       -5.78923715074018
H           47.93593811482405       -3.08419977534334       -4.25514368522945
H           52.05726662939032       -2.85412937454096       -3.45249410886762
H           53.94879839508403       -1.39222327046568       -2.20019136645821
H           53.87532920940993        1.38214699011803        2.32838623265313
H           51.96328472436526        2.91940813967930        3.45363009639321
H           47.84638725852310        3.22243126098691        4.12129770128554
H           47.83466358769794        5.17040356811971        5.59942121588646
H           50.39091036572508        7.78329919687386        5.35619395596933
H           49.37715887869346        6.43667895911776        7.33566752688243
H           49.17799041489577        8.20508924016020        7.22513579312861
H           47.86757019086345        7.13660033186259        6.69613422969647
H           51.13423800482335        6.84008574044435        3.40730700926143
H           51.13158011200773        4.87627970244987        1.92344386365163
H           47.00422795016721        4.10929431669980        1.82464466669299
H           45.11038399159770        2.56267937724027        0.68165525275955

          :  Hamiltonian                  GFN1-xTB          :
         :: total energy            -340.294074115653 Eh    ::
         :: gradient norm              0.000518953622 Eh/a0 ::
         :: HOMO-LUMO gap              0.008962370978 eV    ::
         :: SCC energy              -345.676853163202 Eh    ::
         :: repulsion energy           5.559702567571 Eh    ::

    * Orbital Energies and Occupations

         #    Occupation            Energy/Eh            Energy/eV
      -------------------------------------------------------------
         1        2.0000           -0.7813606             -21.2619
       ...           ...                  ...                  ...
       304        2.0000           -0.3818342             -10.3902
       305        2.0000           -0.3817561             -10.3881
       306        2.0000           -0.3816836             -10.3861
       307        1.9999           -0.3790996             -10.3158
       308        1.9999           -0.3789695             -10.3123
       309        1.9999           -0.3787468             -10.3062
       310        1.9999           -0.3787431             -10.3061
       311        1.9999           -0.3786594             -10.3038
       312        1.9999           -0.3786587             -10.3038
       313        1.9993           -0.3771612             -10.2631
       314        1.6282           -0.3709859             -10.0950
       315        1.1773           -0.3698515             -10.0642
       316        1.1768           -0.3698504             -10.0641 (HOMO)
       317        1.0191           -0.3695210             -10.0552 (LUMO)
       318                         -0.3338767              -9.0852
       319                         -0.3226022              -8.7785
       320                         -0.3187468              -8.6735
       321                         -0.3164351              -8.6106
       322                         -0.3163896              -8.6094
       323                         -0.3137913              -8.5387
       324                         -0.2942433              -8.0068
       325                         -0.2845783              -7.7438
       326                         -0.2815520              -7.6614
       327                         -0.2800885              -7.6216
       ...                                ...                  ...
       687                          1.5222318              41.4220
      -------------------------------------------------------------
                  HL-Gap            0.0003294 Eh            0.0090 eV

Wiberg/Mayer (AO) data.
largest (>0.10) Wiberg bond orders for each atom

     #   Z sym  total        # sym  WBO       # sym  WBO       # sym  WBO
 ---------------------------------------------------------------------------
     1  27 Co   3.028 --    41 N    0.633     7 N    0.633    20 N    0.629
                            27 N    0.628
     2   6 C    3.922 --    40 C    1.366     3 C    1.362    42 H    0.970
     3   6 C    3.926 --     2 C    1.362     7 N    1.201     4 C    1.178
     4   6 C    3.958 --     5 C    1.643     3 C    1.178    43 H    0.975
     5   6 C    3.963 --     4 C    1.643     6 C    1.179    44 H    0.973
     6   6 C    3.919 --     8 C    1.311     7 N    1.216     5 C    1.179
     7   7 N    3.340 --     6 C    1.216     3 C    1.201     1 Co   0.633
     8   6 C    3.927 --    17 C    1.326     6 C    1.311     9 C    1.042
     9   6 C    3.985 --    16 C    1.380    10 C    1.370     8 C    1.042
    10   6 C    3.985 --    11 C    1.479     9 C    1.370    45 H    0.972
    11   6 C    3.988 --    10 C    1.479    12 C    1.342    46 H    0.971
    12   6 C    3.950 --    15 C    1.351    11 C    1.342    13 N    1.112
    13   7 N    3.180 --    12 C    1.112    14 C    0.971    47 H    0.930
    14   6 C    3.967 --    50 H    0.990    49 H    0.986    48 H    0.984
                            13 N    0.971
    15   6 C    3.988 --    16 C    1.467    12 C    1.351    51 H    0.970
    16   6 C    3.985 --    15 C    1.467     9 C    1.380    52 H    0.972
    17   6 C    3.917 --     8 C    1.326    20 N    1.196    18 C    1.185
    18   6 C    3.959 --    19 C    1.632    17 C    1.185    53 H    0.973
    19   6 C    3.959 --    18 C    1.632    21 C    1.193    54 H    0.974
    20   7 N    3.341 --    21 C    1.232    17 C    1.196     1 Co   0.629
    21   6 C    3.905 --    22 C    1.255    20 N    1.232    19 C    1.193
    22   6 C    3.925 --    21 C    1.255    23 C    1.251   134 C    1.200
    23   6 C    3.905 --    22 C    1.251    27 N    1.236    24 C    1.194
    24   6 C    3.960 --    25 C    1.632    23 C    1.194    55 H    0.974
    25   6 C    3.958 --    24 C    1.632    26 C    1.184    56 H    0.973
    26   6 C    3.917 --    28 C    1.330    27 N    1.192    25 C    1.184
    27   7 N    3.341 --    23 C    1.236    26 C    1.192     1 Co   0.628
    28   6 C    3.927 --    26 C    1.330    37 C    1.306    29 C    1.042
    29   6 C    3.985 --    30 C    1.380    36 C    1.370    28 C    1.042
    30   6 C    3.985 --    31 C    1.467    29 C    1.380    57 H    0.972
    31   6 C    3.988 --    30 C    1.467    32 C    1.351    58 H    0.970
    32   6 C    3.950 --    31 C    1.351    35 C    1.342    33 N    1.112
    33   7 N    3.180 --    32 C    1.112    34 C    0.971    59 H    0.931
    34   6 C    3.967 --    61 H    0.990    60 H    0.986    62 H    0.984
                            33 N    0.971
    35   6 C    3.988 --    36 C    1.479    32 C    1.342    63 H    0.971
    36   6 C    3.985 --    35 C    1.479    29 C    1.370    64 H    0.972
    37   6 C    3.918 --    28 C    1.306    41 N    1.219    38 C    1.180
    38   6 C    3.964 --    39 C    1.644    37 C    1.180    65 H    0.973
    39   6 C    3.957 --    38 C    1.644    40 C    1.177    66 H    0.975
    40   6 C    3.926 --     2 C    1.366    41 N    1.197    39 C    1.177
    41   7 N    3.340 --    37 C    1.219    40 C    1.197     1 Co   0.633
    42   1 H    1.000 --     2 C    0.970
    43   1 H    0.998 --     4 C    0.975
    44   1 H    1.005 --     5 C    0.973
    45   1 H    1.006 --    10 C    0.972
    46   1 H    0.999 --    11 C    0.971
    47   1 H    0.965 --    13 N    0.930
    48   1 H    1.003 --    14 C    0.984
    49   1 H    1.012 --    14 C    0.986
    50   1 H    1.007 --    14 C    0.990
    51   1 H    1.001 --    15 C    0.970
    52   1 H    1.006 --    16 C    0.972
    53   1 H    1.005 --    18 C    0.973
    54   1 H    1.002 --    19 C    0.974
    55   1 H    1.002 --    24 C    0.974
    56   1 H    1.005 --    25 C    0.973
    57   1 H    1.006 --    30 C    0.972
    58   1 H    1.001 --    31 C    0.970
    59   1 H    0.965 --    33 N    0.931
    60   1 H    1.012 --    34 C    0.986
    61   1 H    1.007 --    34 C    0.990
    62   1 H    1.003 --    34 C    0.984
    63   1 H    0.999 --    35 C    0.971
    64   1 H    1.005 --    36 C    0.972
    65   1 H    1.005 --    38 C    0.973
    66   1 H    0.998 --    39 C    0.975
    67  27 Co   3.029 --   107 N    0.634    73 N    0.633    86 N    0.628
                            93 N    0.628
    68   6 C    3.923 --   106 C    1.365    69 C    1.363   108 H    0.970
    69   6 C    3.926 --    68 C    1.363    73 N    1.200    70 C    1.178
    70   6 C    3.958 --    71 C    1.644    69 C    1.178   109 H    0.975
    71   6 C    3.963 --    70 C    1.644    72 C    1.179   110 H    0.973
    72   6 C    3.919 --    74 C    1.310    73 N    1.216    71 C    1.179
    73   7 N    3.340 --    72 C    1.216    69 C    1.200    67 Co   0.633
    74   6 C    3.928 --    83 C    1.327    72 C    1.310    75 C    1.041
    75   6 C    3.985 --    82 C    1.380    76 C    1.370    74 C    1.041
    76   6 C    3.985 --    77 C    1.479    75 C    1.370   111 H    0.972
    77   6 C    3.988 --    76 C    1.479    78 C    1.343   112 H    0.971
    78   6 C    3.950 --    81 C    1.351    77 C    1.343    79 N    1.112
    79   7 N    3.180 --    78 C    1.112    80 C    0.971   113 H    0.931
    80   6 C    3.967 --   116 H    0.990   115 H    0.986   114 H    0.984
                            79 N    0.971
    81   6 C    3.988 --    82 C    1.467    78 C    1.351   117 H    0.970
    82   6 C    3.985 --    81 C    1.467    75 C    1.380   118 H    0.972
    83   6 C    3.917 --    74 C    1.327    86 N    1.195    84 C    1.184
    84   6 C    3.959 --    85 C    1.633    83 C    1.184   119 H    0.973
    85   6 C    3.959 --    84 C    1.633    87 C    1.193   120 H    0.974
    86   7 N    3.341 --    87 C    1.233    83 C    1.195    67 Co   0.628
    87   6 C    3.905 --    88 C    1.254    86 N    1.233    85 C    1.193
    88   6 C    3.926 --    87 C    1.254    89 C    1.252   140 C    1.200
    89   6 C    3.905 --    88 C    1.252    93 N    1.235    90 C    1.194
    90   6 C    3.960 --    91 C    1.632    89 C    1.194   121 H    0.974
    91   6 C    3.958 --    90 C    1.632    92 C    1.184   122 H    0.973
    92   6 C    3.917 --    94 C    1.329    93 N    1.193    91 C    1.184
    93   7 N    3.341 --    89 C    1.235    92 C    1.193    67 Co   0.628
    94   6 C    3.928 --    92 C    1.329   103 C    1.308    95 C    1.042
    95   6 C    3.985 --    96 C    1.380   102 C    1.370    94 C    1.042
    96   6 C    3.985 --    97 C    1.467    95 C    1.380   123 H    0.972
    97   6 C    3.988 --    96 C    1.467    98 C    1.351   124 H    0.970
    98   6 C    3.950 --    97 C    1.351   101 C    1.342    99 N    1.112
    99   7 N    3.180 --    98 C    1.112   100 C    0.971   125 H    0.931
   100   6 C    3.967 --   127 H    0.990   126 H    0.986   128 H    0.984
                            99 N    0.971
   101   6 C    3.988 --   102 C    1.479    98 C    1.342   129 H    0.971
   102   6 C    3.985 --   101 C    1.479    95 C    1.370   130 H    0.972
   103   6 C    3.918 --    94 C    1.308   107 N    1.218   104 C    1.180
   104   6 C    3.963 --   105 C    1.644   103 C    1.180   131 H    0.973
   105   6 C    3.957 --   104 C    1.644   106 C    1.177   132 H    0.975
   106   6 C    3.926 --    68 C    1.365   107 N    1.198   105 C    1.177
   107   7 N    3.340 --   103 C    1.218   106 C    1.198    67 Co   0.634
   108   1 H    1.000 --    68 C    0.970
   109   1 H    0.998 --    70 C    0.975
   110   1 H    1.005 --    71 C    0.973
   111   1 H    1.006 --    76 C    0.972
   112   1 H    0.999 --    77 C    0.971
   113   1 H    0.965 --    79 N    0.931
   114   1 H    1.003 --    80 C    0.984
   115   1 H    1.012 --    80 C    0.986
   116   1 H    1.007 --    80 C    0.990
   117   1 H    1.001 --    81 C    0.970
   118   1 H    1.006 --    82 C    0.972
   119   1 H    1.005 --    84 C    0.973
   120   1 H    1.002 --    85 C    0.974
   121   1 H    1.002 --    90 C    0.974
   122   1 H    1.005 --    91 C    0.973
   123   1 H    1.006 --    96 C    0.972
   124   1 H    1.001 --    97 C    0.970
   125   1 H    0.965 --    99 N    0.931
   126   1 H    1.012 --   100 C    0.986
   127   1 H    1.007 --   100 C    0.990
   128   1 H    1.003 --   100 C    0.984
   129   1 H    0.999 --   101 C    0.971
   130   1 H    1.006 --   102 C    0.972
   131   1 H    1.005 --   104 C    0.973
   132   1 H    0.998 --   105 C    0.975
   133   6 C    3.928 --   134 C    2.455   135 C    1.323
   134   6 C    3.915 --   133 C    2.455    22 C    1.200   136 C    0.197
   135   6 C    3.923 --   136 C    2.452   133 C    1.323
   136   6 C    3.919 --   135 C    2.452   142 C    1.205   134 C    0.197
   137   6 C    3.923 --   138 C    2.452   139 C    1.323
   138   6 C    3.919 --   137 C    2.452   162 C    1.204   140 C    0.197
   139   6 C    3.928 --   140 C    2.455   137 C    1.323
   140   6 C    3.915 --   139 C    2.455    88 C    1.200   138 C    0.197
   141  27 Co   3.027 --   147 N    0.626   167 N    0.626   181 N    0.622
                           160 N    0.621
   142   6 C    3.913 --   143 C    1.251   180 C    1.247   136 C    1.205
   143   6 C    3.906 --   142 C    1.251   147 N    1.234   144 C    1.196
   144   6 C    3.958 --   145 C    1.628   143 C    1.196   182 H    0.974
   145   6 C    3.960 --   144 C    1.628   146 C    1.188   183 H    0.973
   146   6 C    3.914 --   148 C    1.316   147 N    1.199   145 C    1.188
   147   7 N    3.333 --   143 C    1.234   146 C    1.199   141 Co   0.626
   148   6 C    3.921 --   146 C    1.316   157 C    1.315   149 C    1.045
   149   6 C    3.984 --   156 C    1.378   150 C    1.368   148 C    1.045
   150   6 C    3.984 --   151 C    1.481   149 C    1.368   184 H    0.972
   151   6 C    3.988 --   150 C    1.481   152 C    1.341   185 H    0.971
   152   6 C    3.949 --   155 C    1.350   151 C    1.341   153 N    1.114
   153   7 N    3.181 --   152 C    1.114   154 C    0.970   186 H    0.930
   154   6 C    3.967 --   189 H    0.990   187 H    0.986   188 H    0.984
                           153 N    0.970
   155   6 C    3.988 --   156 C    1.469   152 C    1.350   190 H    0.970
   156   6 C    3.984 --   155 C    1.469   149 C    1.378   191 H    0.972
   157   6 C    3.914 --   148 C    1.315   160 N    1.199   158 C    1.189
   158   6 C    3.960 --   159 C    1.626   157 C    1.189   192 H    0.973
   159   6 C    3.958 --   158 C    1.626   161 C    1.198   193 H    0.974
   160   7 N    3.333 --   161 C    1.235   157 C    1.199   141 Co   0.621
   161   6 C    3.906 --   162 C    1.247   160 N    1.235   159 C    1.198
   162   6 C    3.913 --   163 C    1.251   161 C    1.247   138 C    1.204
   163   6 C    3.906 --   162 C    1.251   167 N    1.234   164 C    1.196
   164   6 C    3.958 --   165 C    1.627   163 C    1.196   194 H    0.974
   165   6 C    3.960 --   164 C    1.627   166 C    1.188   195 H    0.973
   166   6 C    3.914 --   168 C    1.315   167 N    1.200   165 C    1.188
   167   7 N    3.333 --   163 C    1.234   166 C    1.200   141 Co   0.626
   168   6 C    3.921 --   177 C    1.317   166 C    1.315   169 C    1.044
   169   6 C    3.984 --   170 C    1.378   176 C    1.368   168 C    1.044
   170   6 C    3.984 --   171 C    1.468   169 C    1.378   196 H    0.972
   171   6 C    3.988 --   170 C    1.468   172 C    1.350   197 H    0.970
   172   6 C    3.949 --   171 C    1.350   175 C    1.341   173 N    1.114
   173   7 N    3.181 --   172 C    1.114   174 C    0.970   198 H    0.930
   174   6 C    3.967 --   200 H    0.990   201 H    0.986   199 H    0.984
                           173 N    0.970
   175   6 C    3.987 --   176 C    1.481   172 C    1.341   202 H    0.971
   176   6 C    3.985 --   175 C    1.481   169 C    1.368   203 H    0.972
   177   6 C    3.914 --   168 C    1.317   181 N    1.198   178 C    1.189
   178   6 C    3.960 --   179 C    1.626   177 C    1.189   204 H    0.973
   179   6 C    3.958 --   178 C    1.626   180 C    1.197   205 H    0.974
   180   6 C    3.906 --   142 C    1.247   181 N    1.236   179 C    1.197
   181   7 N    3.333 --   180 C    1.236   177 C    1.198   141 Co   0.622
   182   1 H    1.001 --   144 C    0.974
   183   1 H    1.004 --   145 C    0.973
   184   1 H    1.006 --   150 C    0.972
   185   1 H    0.999 --   151 C    0.971
   186   1 H    0.965 --   153 N    0.930
   187   1 H    1.012 --   154 C    0.986
   188   1 H    1.003 --   154 C    0.984
   189   1 H    1.007 --   154 C    0.990
   190   1 H    1.001 --   155 C    0.970
   191   1 H    1.006 --   156 C    0.972
   192   1 H    1.005 --   158 C    0.973
   193   1 H    1.002 --   159 C    0.974
   194   1 H    1.002 --   164 C    0.974
   195   1 H    1.005 --   165 C    0.973
   196   1 H    1.006 --   170 C    0.972
   197   1 H    1.001 --   171 C    0.970
   198   1 H    0.965 --   173 N    0.930
   199   1 H    1.003 --   174 C    0.984
   200   1 H    1.007 --   174 C    0.990
   201   1 H    1.012 --   174 C    0.986
   202   1 H    0.999 --   175 C    0.971
   203   1 H    1.005 --   176 C    0.972
   204   1 H    1.004 --   178 C    0.973
   205   1 H    1.002 --   179 C    0.974
 ---------------------------------------------------------------------------

           -------------------------------------------------
          | TOTAL ENERGY             -340.294074115653 Eh   |
          | GRADIENT NORM               0.000518953622 Eh/α |
          | HOMO-LUMO GAP               0.008962370978 eV   |
           -------------------------------------------------

 * finished run on 2022/07/29 at 22:16:53.745
