   * xtb version 6.5.1 (b24c23e) compiled by 'conda@728c89f4b128' on 2022-07-12
          program call               : xtb Cu_Ph3OH_C4_3.xyz --gfn 1 --opt -T 48

   ID    Z sym.   atoms
    1   29 Cu     1, 63, 133
    2    6 C      2-6, 8-11, 13, 15, 17-20, 22-27, 29-32, 34, 36, 38-42,
                  64-68, 70-73, 75, 77, 79-82, 84-89, 91-94, 96, 98, 100-104,
                  125-132, 134-138, 140-143, 145, 147, 149-152, 154-159,
                  161-164, 166, 168, 170-174
    3    7 N      7, 21, 28, 43, 69, 83, 90, 105, 139, 153, 160, 175
    4    8 O      12, 14, 16, 33, 35, 37, 74, 76, 78, 95, 97, 99, 144, 146,
                  148, 165, 167, 169
    5    1 H      44-62, 106-124, 176-193

          :  Hamiltonian                  GFN1-xTB          :
 * total energy  :  -385.4528097 Eh     change        0.2133902E-09 Eh
 * total energy  :  -385.8806395 Eh     change       -0.4278298E+00 Eh
 * total energy  :  -386.0587638 Eh     change       -0.1781242E+00 Eh
 * total energy  :  -386.1604052 Eh     change       -0.1016414E+00 Eh
 * total energy  :  -386.2286750 Eh     change       -0.6826984E-01 Eh
 * total energy  :  -386.2653723 Eh     change       -0.3669727E-01 Eh
 * total energy  :  -386.2877536 Eh     change       -0.2238133E-01 Eh
 * total energy  :  -386.3008540 Eh     change       -0.1310035E-01 Eh
 * total energy  :  -386.3115525 Eh     change       -0.1069854E-01 Eh
 * total energy  :  -386.3202662 Eh     change       -0.8713715E-02 Eh
 * total energy  :  -386.3705593 Eh     change       -0.3157142E-04 Eh
 * total energy  :  -386.3705850 Eh     change       -0.2569695E-04 Eh
 * total energy  :  -386.3706188 Eh     change       -0.3376622E-04 Eh
 * total energy  :  -386.3706488 Eh     change       -0.3006344E-04 Eh
 * total energy  :  -386.3706691 Eh     change       -0.2028149E-04 Eh
 * total energy  :  -386.3706867 Eh     change       -0.1759741E-04 Eh
 * total energy  :  -386.3707017 Eh     change       -0.1497618E-04 Eh
 * total energy  :  -386.3707094 Eh     change       -0.7669856E-05 Eh
 * total energy  :  -386.3707137 Eh     change       -0.4320858E-05 Eh
   *** GEOMETRY OPTIMIZATION CONVERGED AFTER 59 ITERATIONS ***

 final structure:
================
193
 xtb: 6.5.1 (b24c23e)
Cu          33.25866883022561        0.01628154957274       -0.06227554817940
C           29.85575794250959        0.05840965621207       -0.19270572917640
C           30.49309951129378        1.28862578547624       -0.13597242475582
C           29.81935148609668        2.55460911541285       -0.08790557629978
C           30.77875596135052        3.51017780972174       -0.01745729355938
C           32.04913341905599        2.83674867863402       -0.03338870861929
N           31.84380848116822        1.48824087600369       -0.09707012758375
C           33.29411626812003        3.46683484866081        0.03217122941362
C           33.31113347912644        4.95144368453250        0.07917166284561
C           32.79416867030967        5.69284430347226       -0.98327657720059
C           32.81548627240965        7.08204092711641       -0.93982893535823
O           32.32278604837870        7.81223861128905       -1.97023860897225
C           33.34887515394895        7.73489563080289        0.17250726979388
O           33.35420855455311        9.10525391860842        0.18865705826296
C           33.86149095982348        6.99454792318109        1.23459270325818
O           34.36473941235527        7.70490881480837        2.29290050707554
C           33.84800023495650        5.60592901225221        1.19102317186456
C           34.52513246865933        2.80774469168057        0.05469022676090
C           35.80504638677476        3.45761281611842        0.06047960073600
C           36.74813795584712        2.48139115981829        0.06429526627298
N           34.70984332098039        1.45020742885431        0.04315996574662
C           36.05277920504436        1.22988366419199        0.05350676549572
C           36.68530223657111       -0.02585764851190        0.03963235624681
C           36.02418975022334       -1.26594082830146        0.00168807705630
C           36.69045896948283       -2.53299250351076       -0.03273246298084
C           35.72531203775920       -3.48584652350131       -0.08029200316785
C           34.46076094326425       -2.80634558081969       -0.06848405779835
N           34.67658463030590       -1.45386965429382       -0.02478181165617
C           33.21548145122147       -3.43461700675925       -0.12890469068575
C           33.19798209387717       -4.92005170099319       -0.15367252432654
C           33.69777209582906       -5.64425745965217        0.92855525725908
C           33.67902173238164       -7.03398069401941        0.90598002249521
O           34.15551186394780       -7.74766439731948        1.95530838953982
C           33.16591756611756       -7.70440344700218       -0.20545727046218
O           33.16440144495707       -9.07509950071826       -0.20184195590649
C           32.67002328797435       -6.98112680173662       -1.28689883455606
O           32.18617387907899       -7.70822856076555       -2.34319991702662
C           32.68020857198790       -5.59191301121380       -1.26403427256809
C           31.98525893987753       -2.77388303325749       -0.17053608160717
C           30.70013041247548       -3.41814531496636       -0.19319917140903
C           29.76254327471572       -2.43848002069083       -0.21819709852197
C           30.46484026964086       -1.18757542351337       -0.19999284005585
N           31.81043163617930       -1.41970035362546       -0.16848314020386
H           28.77098621697811        0.07145738445517       -0.22008550237240
H           28.74818725311246        2.68118377603446       -0.09913223595184
H           30.64478269083239        4.57772824692944        0.05039630353125
H           32.39164482869284        5.19687753745433       -1.85703806855779
H           32.42840214286420        8.75350305504013       -1.75435435941035
H           33.75858621049098        9.39232569913908        1.02277286169340
H           34.70095934149955        7.11067459063153        2.97647233026009
H           34.23697642002661        5.03617946903086        2.02680151555638
H           35.95987100888283        4.52438013248489        0.04686991906270
H           37.82098126187580        2.58998488756329        0.06712521279806
H           37.76048916683852       -2.66613784013460       -0.02633027452043
H           35.85455806108673       -4.55476369001247       -0.13146270944209
H           34.08657927637895       -5.13418329495248        1.80041583697222
H           34.05594621622262       -8.69228479852741        1.75170859434284
H           32.77638004592895       -9.37510260842227       -1.03910918024834
H           31.86712696576959       -7.12445445065572       -3.04379489867942
H           32.30483147854837       -5.03552069257777       -2.11491789691883
H           30.54172453605492       -4.48456345760015       -0.17825228686534
H           28.68879825861909       -2.54003532518657       -0.23835745736327
Cu          60.19099295630160       -0.04702728307247       -0.03333335544325
C           63.59266152109748       -0.07721871345125       -0.20343668667323
C           62.95316248425350       -1.30500077114148       -0.28252211637997
C           63.62422587186300       -2.56865966245967       -0.39060322059829
C           62.66324505344149       -3.52473386970307       -0.42243061609175
C           61.39458626794012       -2.85257697033802       -0.34464800462527
N           61.60239230552482       -1.50608734343991       -0.25214566290756
C           60.14911295466010       -3.48473539212761       -0.33834960159641
C           60.12965718450425       -4.96486132328542       -0.46453925180760
C           60.62533666325744       -5.57699266359321       -1.61567752760461
C           60.60238893784135       -6.96182306885635       -1.73405403985300
O           61.07425261798628       -7.56661426209296       -2.85171133191514
C           60.08953458983869       -7.74010019233583       -0.69514699525014
O           60.08295824262523       -9.10314500030175       -0.83818476238879
C           59.59830147560811       -7.12880828274588        0.45545393142096
O           59.11484627171077       -7.95789646722878        1.43382285409906
C           59.61263883576454       -5.74452937812086        0.57346041112904
C           58.92016307018881       -2.83159510395288       -0.22530025103332
C           57.63917989621969       -3.47692760572790       -0.27941509522297
C           56.69816395405119       -2.50668719337629       -0.15518354349185
N           58.73827963057920       -1.48131808451522       -0.07951873324958
C           57.39584111622926       -1.26259375735182       -0.03096611452966
C           56.76527956767293       -0.01309110818980        0.10373055274262
C           57.42865792816905        1.22221334051699        0.20425462628115
C           56.76525198804876        2.48551766137114        0.32414477407860
C           57.73221681355626        3.43620475642488        0.37784516015980
C           58.99499857373441        2.75836202924668        0.29674668961451
N           58.77650118672064        1.41005915331795        0.18642893979758
C           60.24070738038920        3.38823520727446        0.29346653143804
C           60.26151577212237        4.86710813044996        0.43670271998088
C           59.78702570208769        5.46386284159585        1.60460846683214
C           59.80991524067468        6.84717170745706        1.73965776877907
O           59.35921824299365        7.43711202423884        2.87365809286930
C           60.30055202515773        7.63911208308370        0.70024155133378
O           60.30642879626867        9.00025170878727        0.85956068187441
C           60.77027566068192        7.04296816066700       -0.46711256956149
O           61.23228459101226        7.88502328511090       -1.44479091409069
C           60.75722397240260        5.66003913823537       -0.60143055072909
C           61.46866118293154        2.73541124840021        0.16265551122259
C           62.75445692929264        3.37753673767099        0.19752356262743
C           63.68996693340858        2.40634273381213        0.05261857078288
C           62.98570600395374        1.16171686590260       -0.06210762073469
N           61.64085445517215        1.38936013199309        0.01041135243591
H           64.67704174073950       -0.08787083450059       -0.24363884265408
H           64.69488323355209       -2.69428955942191       -0.42866956453838
H           62.79495771367019       -4.59303704691670       -0.48274552577170
H           61.01252817987253       -4.98235594286502       -2.43297502788825
H           60.96995249440044       -8.52662132733315       -2.74582672666623
H           59.69494338165667       -9.48544093149181       -0.03505646554816
H           58.79390516412860       -7.44713950129845        2.18853079704782
H           59.23997069606395       -5.27606107536408        1.47685190194653
H           57.48244348888600       -4.53525427459675       -0.41177820662462
H           55.62520641930752       -2.61393552382610       -0.15335893881813
H           55.69566679880596        2.61829361857346        0.35718885245879
H           57.60558228369221        4.50398310128113        0.45343267779949
H           59.41507321875645        4.85819729422872        2.42087787114294
H           59.45471179327021        8.39891269533995        2.77582539591036
H           60.67235574216293        9.39401770605414        0.05164195381468
H           61.53090312483219        7.38496391026884       -2.21562079599045
H           61.11301814497779        5.20338233721615       -1.51758733973447
H           62.91441835744900        4.43566394795256        0.32925032953341
H           64.76360642541962        2.50881282305408        0.03185775387686
C           39.31353273359204       -0.04458094861802        0.04723356972194
C           38.09158640286473       -0.04037761992557        0.04948269824080
C           40.66339935474863       -0.04683913623087        0.04250262724078
C           41.88540965849644       -0.04283297833526        0.03131635611882
C           52.78721582801310        0.01176008509722        0.11125905534309
C           51.56530206494844        0.00977286690865        0.09216546296929
C           54.13709483965775        0.00882422107620        0.12047246918314
C           55.35903836288168        0.00156728564970        0.12108509255509
Cu          46.72557841868613       -0.01367821739364        0.01685276559168
C           43.29109724000819       -0.03488624562171        0.02013934588726
C           43.93174557820291        1.21336782432419        0.12156920971020
C           43.24652293584389        2.46053819161321        0.27741288824961
C           44.19642255144758        3.42939203681450        0.32714290044513
C           45.46873996551487        2.77881277005327        0.19572173747644
N           45.27442585822180        1.42820806055635        0.07762396622641
C           46.70515590636202        3.42866314421672        0.21340143142526
C           46.69396875051206        4.91107658806432        0.29103440837000
C           47.27530018927349        5.56380044407727        1.37852566789790
C           47.26534645555764        6.95302474792768        1.46949780760676
O           47.81847949813073        7.59865350751422        2.52947423654435
C           46.67441223963758        7.71036992847015        0.45306348771375
O           46.65255238484584        9.06771497716400        0.50992818083382
C           46.09895803950018        7.04951374846338       -0.63537536740292
O           45.54102970750276        7.85024421394528       -1.59894878104627
C           46.09853137986300        5.66437901361470       -0.72236116781978
C           47.94946515204160        2.79567800255660        0.16999041794616
C           49.21532990190074        3.47068835533157        0.13072508740592
C           50.17674191941983        2.51263362367599        0.09741590845878
N           48.15915799086167        1.44230683245676        0.14410415537241
C           49.50507801395762        1.24847347916839        0.10289473372336
C           50.15972639132390        0.00391064868995        0.06761653254963
C           49.51879145303920       -1.24595405410366       -0.00108658674349
C           50.20299751571527       -2.50379741518667       -0.00457290624636
C           49.25363682982143       -3.46951294549611       -0.09697505896713
C           47.98233238018818       -2.80578854572154       -0.15573873638336
N           48.17671611067922       -1.45184145857892       -0.08841388823293
C           46.74652505854769       -3.45046693625434       -0.24255605255807
C           46.75790726103828       -4.93029611534710       -0.37319239189705
C           47.36377211396889       -5.52426616625668       -1.48098602591705
C           47.36214342888791       -6.90783421419851       -1.61433626697083
O           47.93247073024060       -7.49688970021775       -2.69197855150478
C           46.75957644409048       -7.69835090689758       -0.63401112627859
O           46.78279364344929       -9.07642201332487       -0.80006026665356
C           46.18892046711377       -7.10814374425814        0.49215372747394
O           45.63236897495940       -7.88107091653505        1.46865622501522
C           46.17131431291119       -5.72326283686032        0.61351241831001
C           45.50218787942021       -2.81729034476856       -0.21617233846467
C           44.23708700103872       -3.48098391721945       -0.35482718048429
C           43.27551673940454       -2.52635105245320       -0.27366761033584
C           43.94625970214371       -1.27352677288251       -0.09864063006507
N           45.29183602562260       -1.47185790633048       -0.06891541191985
H           42.17615986391915        2.57117423737306        0.34734985233729
H           44.05150512023467        4.48959624394723        0.45802768594952
H           47.72435991011356        4.98577745388866        2.17838546621346
H           48.19640653456013        6.97179742889093        3.16013583682279
H           46.20199995499905        9.39657952594696       -0.28459062830694
H           45.16759205010273        7.31846817680216       -2.31368612012911
H           45.65612130088149        5.17591950057475       -1.58263695648399
H           49.34863497450859        4.54028791475074        0.11536629625202
H           51.24670449757890        2.64161202327293        0.06085124406126
H           51.27255266884837       -2.62349961591440        0.06227823592113
H           49.39723398573827       -4.53775912552103       -0.10952552543369
H           47.81541077675968       -4.91758788046549       -2.25517988344055
H           47.83512332204688       -8.45958788586350       -2.60019525648032
H           45.92260216215256       -9.46071565936169       -0.58548091494907
H           45.94813636506276       -8.79261865648533        1.39301339962131
H           45.72491987284702       -5.27495619687980        1.49162742836554
H           44.10482744814613       -4.53996710515734       -0.50662874697612
H           42.20603566428854       -2.64903879454984       -0.33627649347757

          :  Hamiltonian                  GFN1-xTB          :
         :: total energy            -386.370713681472 Eh    ::
         :: gradient norm              0.000592103461 Eh/a0 ::
         :: HOMO-LUMO gap              0.000481543497 eV    ::
         :: SCC energy              -391.447549896029 Eh    ::
         :: repulsion energy           5.249617310249 Eh    ::

    * Orbital Energies and Occupations

         #    Occupation            Energy/Eh            Energy/eV
      -------------------------------------------------------------
         1        2.0000           -0.8124102             -22.1068
       ...           ...                  ...                  ...
       325        2.0000           -0.4087733             -11.1233
       326        2.0000           -0.4085189             -11.1164
       327        2.0000           -0.4083420             -11.1116
       328        2.0000           -0.4080136             -11.1026
       329        2.0000           -0.4062319             -11.0541
       330        2.0000           -0.3960310             -10.7766
       331        2.0000           -0.3959393             -10.7741
       332        2.0000           -0.3959024             -10.7731
       333        2.0000           -0.3931025             -10.6969
       334        2.0000           -0.3860945             -10.5062
       335        2.0000           -0.3774743             -10.2716
       336        1.0170           -0.3564832              -9.7004
       337        0.9956           -0.3564375              -9.6992 (HOMO)
       338        0.9874           -0.3564198              -9.6987 (LUMO)
       339        0.0000           -0.3419020              -9.3036
       340                         -0.3320096              -9.0344
       341                         -0.3279799              -8.9248
       342                         -0.3278570              -8.9214
       343                         -0.3278311              -8.9207
       344                         -0.3232235              -8.7954
       345                         -0.3012590              -8.1977
       346                         -0.2931208              -7.9762
       347                         -0.2894060              -7.8751
       348                         -0.2590228              -7.0484
       ...                                ...                  ...
       675                          1.5182867              41.3147
      -------------------------------------------------------------
                  HL-Gap            0.0000177 Eh            0.0005 eV

Wiberg/Mayer (AO) data.
largest (>0.10) Wiberg bond orders for each atom

     #   Z sym  total        # sym  WBO       # sym  WBO       # sym  WBO
 ---------------------------------------------------------------------------
     1  29 Cu   2.188 --     7 N    0.506    43 N    0.505    28 N    0.503
                            21 N    0.503
     2   6 C    3.929 --     3 C    1.362    42 C    1.360    44 H    0.971
     3   6 C    3.917 --     2 C    1.362     7 N    1.229     4 C    1.170
     4   6 C    3.955 --     5 C    1.656     3 C    1.170    45 H    0.976
     5   6 C    3.958 --     4 C    1.656     6 C    1.172    46 H    0.973
     6   6 C    3.912 --     8 C    1.321     7 N    1.238     5 C    1.172
     7   7 N    3.243 --     6 C    1.238     3 C    1.229     1 Cu   0.506
     8   6 C    3.934 --    18 C    1.326     6 C    1.321     9 C    1.026
     9   6 C    3.989 --    10 C    1.399    17 C    1.387     8 C    1.026
    10   6 C    3.977 --     9 C    1.399    11 C    1.380    47 H    0.970
    11   6 C    3.917 --    10 C    1.380    13 C    1.325    12 O    1.052
    12   8 O    2.048 --    11 C    1.052    48 H    0.848
    13   6 C    3.904 --    15 C    1.341    11 C    1.325    14 O    1.020
    14   8 O    2.020 --    13 C    1.020    49 H    0.846
    15   6 C    3.905 --    17 C    1.384    13 C    1.341    16 O    1.013
    16   8 O    2.025 --    15 C    1.013    50 H    0.861
    17   6 C    3.973 --     9 C    1.387    15 C    1.384    51 H    0.969
    18   6 C    3.908 --     8 C    1.326    21 N    1.222    19 C    1.180
    19   6 C    3.954 --    20 C    1.641    18 C    1.180    52 H    0.973
    20   6 C    3.956 --    19 C    1.641    22 C    1.188    53 H    0.974
    21   7 N    3.248 --    22 C    1.257    18 C    1.222     1 Cu   0.503
    22   6 C    3.898 --    23 C    1.259    21 N    1.257    20 C    1.188
    23   6 C    3.938 --    24 C    1.260    22 C    1.259   126 C    1.186
    24   6 C    3.898 --    23 C    1.260    28 N    1.257    25 C    1.187
    25   6 C    3.956 --    26 C    1.643    24 C    1.187    54 H    0.974
    26   6 C    3.954 --    25 C    1.643    27 C    1.179    55 H    0.973
    27   6 C    3.907 --    29 C    1.328    28 N    1.221    26 C    1.179
    28   7 N    3.248 --    24 C    1.257    27 C    1.221     1 Cu   0.503
    29   6 C    3.934 --    27 C    1.328    39 C    1.319    30 C    1.025
    30   6 C    3.989 --    31 C    1.400    38 C    1.388    29 C    1.025
    31   6 C    3.977 --    30 C    1.400    32 C    1.380    56 H    0.970
    32   6 C    3.917 --    31 C    1.380    34 C    1.325    33 O    1.052
    33   8 O    2.048 --    32 C    1.052    57 H    0.848
    34   6 C    3.904 --    36 C    1.341    32 C    1.325    35 O    1.020
    35   8 O    2.020 --    34 C    1.020    58 H    0.846
    36   6 C    3.905 --    38 C    1.384    34 C    1.341    37 O    1.013
    37   8 O    2.024 --    36 C    1.013    59 H    0.861
    38   6 C    3.973 --    30 C    1.388    36 C    1.384    60 H    0.970
    39   6 C    3.912 --    29 C    1.319    43 N    1.238    40 C    1.173
    40   6 C    3.958 --    41 C    1.654    39 C    1.173    61 H    0.974
    41   6 C    3.954 --    40 C    1.654    42 C    1.172    62 H    0.976
    42   6 C    3.917 --     2 C    1.360    43 N    1.229    41 C    1.172
    43   7 N    3.243 --    39 C    1.238    42 C    1.229     1 Cu   0.505
    44   1 H    1.002 --     2 C    0.971
    45   1 H    0.998 --     4 C    0.976
    46   1 H    1.005 --     5 C    0.973
    47   1 H    1.000 --    10 C    0.970
    48   1 H    0.878 --    12 O    0.848
    49   1 H    0.876 --    14 O    0.846
    50   1 H    0.881 --    16 O    0.861
    51   1 H    1.001 --    17 C    0.969
    52   1 H    1.006 --    19 C    0.973
    53   1 H    1.002 --    20 C    0.974
    54   1 H    1.002 --    25 C    0.974
    55   1 H    1.005 --    26 C    0.973
    56   1 H    1.000 --    31 C    0.970
    57   1 H    0.878 --    33 O    0.848
    58   1 H    0.876 --    35 O    0.846
    59   1 H    0.881 --    37 O    0.861
    60   1 H    1.001 --    38 C    0.970
    61   1 H    1.006 --    40 C    0.974
    62   1 H    0.998 --    41 C    0.976
    63  29 Cu   2.194 --    69 N    0.507   105 N    0.507    90 N    0.504
                            83 N    0.504
    64   6 C    3.929 --    65 C    1.362   104 C    1.360   106 H    0.971
    65   6 C    3.917 --    64 C    1.362    69 N    1.229    66 C    1.171
    66   6 C    3.955 --    67 C    1.656    65 C    1.171   107 H    0.975
    67   6 C    3.958 --    66 C    1.656    68 C    1.172   108 H    0.973
    68   6 C    3.912 --    70 C    1.321    69 N    1.238    67 C    1.172
    69   7 N    3.244 --    68 C    1.238    65 C    1.229    63 Cu   0.507
    70   6 C    3.934 --    80 C    1.327    68 C    1.321    71 C    1.025
    71   6 C    3.989 --    72 C    1.400    79 C    1.387    70 C    1.025
    72   6 C    3.977 --    71 C    1.400    73 C    1.380   109 H    0.970
    73   6 C    3.917 --    72 C    1.380    75 C    1.325    74 O    1.052
    74   8 O    2.048 --    73 C    1.052   110 H    0.848
    75   6 C    3.904 --    77 C    1.341    73 C    1.325    76 O    1.020
    76   8 O    2.020 --    75 C    1.020   111 H    0.846
    77   6 C    3.905 --    79 C    1.384    75 C    1.341    78 O    1.013
    78   8 O    2.024 --    77 C    1.013   112 H    0.861
    79   6 C    3.973 --    71 C    1.387    77 C    1.384   113 H    0.970
    80   6 C    3.908 --    70 C    1.327    83 N    1.221    81 C    1.180
    81   6 C    3.954 --    82 C    1.641    80 C    1.180   114 H    0.974
    82   6 C    3.956 --    81 C    1.641    84 C    1.188   115 H    0.974
    83   7 N    3.248 --    84 C    1.256    80 C    1.221    63 Cu   0.504
    84   6 C    3.898 --    85 C    1.259    83 N    1.256    82 C    1.188
    85   6 C    3.938 --    86 C    1.260    84 C    1.259   132 C    1.186
    86   6 C    3.898 --    85 C    1.260    90 N    1.256    87 C    1.187
    87   6 C    3.956 --    88 C    1.643    86 C    1.187   116 H    0.974
    88   6 C    3.954 --    87 C    1.643    89 C    1.179   117 H    0.973
    89   6 C    3.907 --    91 C    1.329    90 N    1.220    88 C    1.179
    90   7 N    3.248 --    86 C    1.256    89 C    1.220    63 Cu   0.504
    91   6 C    3.934 --    89 C    1.329   101 C    1.320    92 C    1.024
    92   6 C    3.989 --    93 C    1.400   100 C    1.388    91 C    1.024
    93   6 C    3.977 --    92 C    1.400    94 C    1.380   118 H    0.970
    94   6 C    3.918 --    93 C    1.380    96 C    1.324    95 O    1.053
    95   8 O    2.048 --    94 C    1.053   119 H    0.848
    96   6 C    3.905 --    98 C    1.341    94 C    1.324    97 O    1.020
    97   8 O    2.021 --    96 C    1.020   120 H    0.846
    98   6 C    3.905 --   100 C    1.383    96 C    1.341    99 O    1.013
    99   8 O    2.024 --    98 C    1.013   121 H    0.861
   100   6 C    3.973 --    92 C    1.388    98 C    1.383   122 H    0.970
   101   6 C    3.912 --    91 C    1.320   105 N    1.238   102 C    1.173
   102   6 C    3.958 --   103 C    1.654   101 C    1.173   123 H    0.974
   103   6 C    3.954 --   102 C    1.654   104 C    1.172   124 H    0.976
   104   6 C    3.917 --    64 C    1.360   105 N    1.229   103 C    1.172
   105   7 N    3.244 --   101 C    1.238   104 C    1.229    63 Cu   0.507
   106   1 H    1.002 --    64 C    0.971
   107   1 H    0.998 --    66 C    0.975
   108   1 H    1.005 --    67 C    0.973
   109   1 H    1.000 --    72 C    0.970
   110   1 H    0.878 --    74 O    0.848
   111   1 H    0.876 --    76 O    0.846
   112   1 H    0.881 --    78 O    0.861
   113   1 H    1.001 --    79 C    0.970
   114   1 H    1.005 --    81 C    0.974
   115   1 H    1.002 --    82 C    0.974
   116   1 H    1.002 --    87 C    0.974
   117   1 H    1.005 --    88 C    0.973
   118   1 H    1.000 --    93 C    0.970
   119   1 H    0.878 --    95 O    0.848
   120   1 H    0.876 --    97 O    0.846
   121   1 H    0.881 --    99 O    0.861
   122   1 H    1.001 --   100 C    0.970
   123   1 H    1.006 --   102 C    0.974
   124   1 H    0.998 --   103 C    0.976
   125   6 C    3.936 --   126 C    2.478   127 C    1.307
   126   6 C    3.925 --   125 C    2.478    23 C    1.186   128 C    0.199
   127   6 C    3.933 --   128 C    2.476   125 C    1.307
   128   6 C    3.926 --   127 C    2.476   134 C    1.189   126 C    0.199
   129   6 C    3.933 --   130 C    2.477   131 C    1.307
   130   6 C    3.926 --   129 C    2.477   155 C    1.189   132 C    0.199
   131   6 C    3.936 --   132 C    2.478   129 C    1.307
   132   6 C    3.925 --   131 C    2.478    85 C    1.186   130 C    0.199
   133  29 Cu   2.161 --   160 N    0.499   175 N    0.498   139 N    0.498
                           153 N    0.498
   134   6 C    3.927 --   174 C    1.258   135 C    1.256   128 C    1.189
   135   6 C    3.899 --   139 N    1.259   134 C    1.256   136 C    1.189
   136   6 C    3.954 --   137 C    1.638   135 C    1.189   176 H    0.974
   137   6 C    3.955 --   136 C    1.638   138 C    1.183   177 H    0.974
   138   6 C    3.906 --   140 C    1.322   139 N    1.223   137 C    1.183
   139   7 N    3.240 --   135 C    1.259   138 C    1.223   133 Cu   0.498
   140   6 C    3.930 --   150 C    1.323   138 C    1.322   141 C    1.028
   141   6 C    3.989 --   142 C    1.393   149 C    1.385   140 C    1.028
   142   6 C    3.974 --   141 C    1.393   143 C    1.380   178 H    0.969
   143   6 C    3.915 --   142 C    1.380   145 C    1.322   144 O    1.043
   144   8 O    2.052 --   143 C    1.043   179 H    0.867
   145   6 C    3.916 --   147 C    1.329   143 C    1.322   146 O    1.050
   146   8 O    2.046 --   145 C    1.050   180 H    0.851
   147   6 C    3.904 --   149 C    1.390   145 C    1.329   148 O    1.012
   148   8 O    2.026 --   147 C    1.012   181 H    0.861
   149   6 C    3.974 --   147 C    1.390   141 C    1.385   182 H    0.969
   150   6 C    3.906 --   140 C    1.323   153 N    1.222   151 C    1.182
   151   6 C    3.955 --   152 C    1.639   150 C    1.182   183 H    0.973
   152   6 C    3.954 --   151 C    1.639   154 C    1.189   184 H    0.974
   153   7 N    3.240 --   154 C    1.260   150 C    1.222   133 Cu   0.498
   154   6 C    3.899 --   153 N    1.260   155 C    1.256   152 C    1.189
   155   6 C    3.926 --   156 C    1.258   154 C    1.256   130 C    1.189
   156   6 C    3.899 --   160 N    1.258   155 C    1.258   157 C    1.187
   157   6 C    3.955 --   158 C    1.641   156 C    1.187   185 H    0.974
   158   6 C    3.955 --   157 C    1.641   159 C    1.181   186 H    0.973
   159   6 C    3.906 --   161 C    1.324   160 N    1.223   158 C    1.181
   160   7 N    3.240 --   156 C    1.258   159 C    1.223   133 Cu   0.499
   161   6 C    3.929 --   171 C    1.324   159 C    1.324   162 C    1.026
   162   6 C    3.989 --   163 C    1.398   170 C    1.397   161 C    1.026
   163   6 C    3.976 --   162 C    1.398   164 C    1.377   187 H    0.970
   164   6 C    3.917 --   163 C    1.377   166 C    1.333   165 O    1.055
   165   8 O    2.051 --   164 C    1.055   188 H    0.847
   166   6 C    3.888 --   168 C    1.347   164 C    1.333   167 O    0.978
   167   8 O    1.981 --   166 C    0.978   189 H    0.863
   168   6 C    3.910 --   170 C    1.379   166 C    1.347   169 O    1.028
   169   8 O    2.030 --   168 C    1.028   190 H    0.862
   170   6 C    3.976 --   162 C    1.397   168 C    1.379   191 H    0.970
   171   6 C    3.906 --   161 C    1.324   175 N    1.222   172 C    1.181
   172   6 C    3.955 --   173 C    1.641   171 C    1.181   192 H    0.973
   173   6 C    3.955 --   172 C    1.641   174 C    1.188   193 H    0.974
   174   6 C    3.899 --   175 N    1.259   134 C    1.258   173 C    1.188
   175   7 N    3.240 --   174 C    1.259   171 C    1.222   133 Cu   0.498
   176   1 H    1.002 --   136 C    0.974
   177   1 H    1.006 --   137 C    0.974
   178   1 H    1.001 --   142 C    0.969
   179   1 H    0.887 --   144 O    0.867
   180   1 H    0.881 --   146 O    0.851
   181   1 H    0.882 --   148 O    0.861
   182   1 H    1.001 --   149 C    0.969
   183   1 H    1.005 --   151 C    0.973
   184   1 H    1.002 --   152 C    0.974
   185   1 H    1.002 --   157 C    0.974
   186   1 H    1.005 --   158 C    0.973
   187   1 H    1.000 --   163 C    0.970
   188   1 H    0.881 --   165 O    0.847
   189   1 H    0.884 --   167 O    0.863
   190   1 H    0.885 --   169 O    0.862
   191   1 H    1.000 --   170 C    0.970
   192   1 H    1.005 --   172 C    0.973
   193   1 H    1.002 --   173 C    0.974
 ---------------------------------------------------------------------------

           -------------------------------------------------
          | TOTAL ENERGY             -386.370713681472 Eh   |
          | GRADIENT NORM               0.000592103461 Eh/α |
          | HOMO-LUMO GAP               0.000481543497 eV   |
           -------------------------------------------------

 * finished run on 2022/07/30 at 09:32:52.992
