   * xtb version 6.5.1 (b24c23e) compiled by 'conda@728c89f4b128' on 2022-07-12
          program call               : xtb Cu_Ph2OMe_C2_2.xyz --gfn 1 --opt -T 48

   ID    Z sym.   atoms
    1   29 Cu     1, 73
    2    6 C      2-6, 8-11, 13-21, 23-27, 29-33, 36, 37, 39-43, 45, 74-78,
                  80-83, 85-93, 95-99, 101-105, 108, 109, 111-115, 117, 145,
                  146
    3    7 N      7, 12, 34, 35, 79, 84, 106, 107
    4    8 O      22, 28, 38, 44, 94, 100, 110, 116
    5    1 H      46-72, 118-144
########################################################################
[WARNING] Please study the warnings concerning your input carefully
-1- prog_main_parseArguments: Unknown option '-T' provided
########################################################################

          :  Hamiltonian                  GFN1-xTB          :
 * total energy  :  -257.5353087 Eh     change       -0.1170054E-07 Eh
 * total energy  :  -257.6248947 Eh     change       -0.8958599E-01 Eh
 * total energy  :  -257.6745487 Eh     change       -0.4965402E-01 Eh
 * total energy  :  -257.6892381 Eh     change       -0.1468937E-01 Eh
 * total energy  :  -257.6973929 Eh     change       -0.8154835E-02 Eh
 * total energy  :  -257.7017376 Eh     change       -0.4344741E-02 Eh
 * total energy  :  -257.7044549 Eh     change       -0.2717318E-02 Eh
 * total energy  :  -257.7062151 Eh     change       -0.1760121E-02 Eh
 * total energy  :  -257.7073184 Eh     change       -0.1103282E-02 Eh
 * total energy  :  -257.7080190 Eh     change       -0.7006233E-03 Eh
 * total energy  :  -257.7106971 Eh     change       -0.1717856E-04 Eh
 * total energy  :  -257.7107125 Eh     change       -0.1541828E-04 Eh
 * total energy  :  -257.7107251 Eh     change       -0.1262030E-04 Eh
 * total energy  :  -257.7107358 Eh     change       -0.1061050E-04 Eh
 * total energy  :  -257.7107460 Eh     change       -0.1021679E-04 Eh
 * total energy  :  -257.7107571 Eh     change       -0.1117589E-04 Eh
 * total energy  :  -257.7107694 Eh     change       -0.1223808E-04 Eh
 * total energy  :  -257.7107818 Eh     change       -0.1242199E-04 Eh
 * total energy  :  -257.7107858 Eh     change       -0.4011211E-05 Eh
   *** GEOMETRY OPTIMIZATION CONVERGED AFTER 68 ITERATIONS ***

 final structure:
================
146
 xtb: 6.5.1 (b24c23e)
Cu          15.72453997195004        0.03687303495474        0.02382667088998
C           12.31764734371349        0.18344714484502       -0.07802602409639
C           12.95576474715852        1.05439239556132        0.79282431134530
C           12.28506327693200        1.97819054831277        1.66341392435058
C           13.24732445702732        2.64598897932688        2.34682601916130
C           14.51483184664378        2.14266204061631        1.89304858931305
N           14.30616923970222        1.17377015060074        0.95430217274814
C           15.76027504776494        2.57901670774533        2.34513703870870
C           16.99073137899940        2.07628201948179        1.92232578483360
C           18.26702127094851        2.58487479495179        2.33597284557189
C           19.21305131394686        1.85101043324424        1.69776103950825
N           17.18043926980090        1.04617529909509        1.03988693864022
C           18.52452396353758        0.88517481475038        0.89453840433743
C           19.15878538017243       -0.08167780518328        0.09449083067094
C           18.49129559383130       -1.01634135143105       -0.71702559300709
C           19.14280715432236       -2.04241237015512       -1.47497072102983
C           18.17451374919161       -2.72179940371706       -2.13978341973424
C           16.92149061098030       -2.11495048450868       -1.79307848933542
C           15.67874866998292       -2.52412753260055       -2.27688940518360
C           15.66080712020502       -3.63212291961753       -3.27402769043638
C           16.17204197864903       -3.43340278544779       -4.56366332779808
O           16.65810559404640       -2.19107733852543       -4.82520822311794
C           17.21560710271906       -1.89111000522244       -6.08837032609533
C           16.15151726255090       -4.46799810553988       -5.49853875113661
C           15.62322728620960       -5.69877351650127       -5.13950162182744
C           15.11247067135437       -5.91959434823932       -3.86936756344876
C           15.12901075614760       -4.88365157226322       -2.93594233258590
O           14.65932105686120       -5.00638050068368       -1.66571227539204
C           14.07200830525068       -6.21649820566110       -1.23348343845191
C           14.45064587421031       -1.97720224565672       -1.90351224188773
C           13.17411099263035       -2.37052545238074       -2.43437644333136
C           12.23430161348981       -1.61287480762096       -1.81655560721104
C           12.92869213891374       -0.74502905030737       -0.90787498349684
N           14.27060692029453       -0.98469127051353       -0.98392922448222
N           17.14621087222743       -1.08704239030830       -0.91581244255104
C           15.78100186425391        3.67484430788476        3.35569696164430
C           16.19282482665776        3.41686135773904        4.67006352664962
O           16.54208191057954        2.13137154264227        4.94123975857578
C           17.00035103653601        1.76957502527910        6.22788892774346
C           16.21621688423813        4.44094731037349        5.61634768095975
C           15.83215796462496        5.72013959228460        5.24341643646541
C           15.42258134788383        5.99987660904339        3.94845007802930
C           15.39455111746534        4.97463057216709        3.00351555065040
O           15.01664321128149        5.15197166017551        1.70935673282747
C           14.60261367043474        6.42307160610036        1.25224254920857
H           11.23391957481507        0.23202225190214       -0.11201549953920
H           11.21396441726206        2.08640139633251        1.73570712771604
H           13.12008221305418        3.41317115343741        3.09380019151474
H           18.41413473599492        3.40489669658934        3.02030791160879
H           20.28429445886989        1.95441588430436        1.75475693623781
H           20.20535743325702       -2.22301030282591       -1.48159120467766
H           18.29160089848929       -3.56409775659561       -2.80248459307396
H           16.47480708577908       -1.99619842689603       -6.89045402712261
H           17.54234949300954       -0.85081853892124       -6.03685807488363
H           18.08015815822283       -2.52939028155141       -6.30782042929916
H           16.54006951738967       -4.32284386276946       -6.49768499049066
H           15.60878024737418       -6.50386407309620       -5.86601453829648
H           14.70834928780372       -6.89057603335933       -3.61596301418541
H           13.75840665350910       -6.05034260609875       -0.20112799877437
H           13.19465258974321       -6.47580547031050       -1.83859858381598
H           14.78977910333443       -7.04541154424367       -1.26239355848369
H           13.02557565400362       -3.12965850533133       -3.18563715840625
H           11.16456637771591       -1.62598242724218       -1.95692301114104
H           17.22641021508495        0.70266242610514        6.18086864265802
H           16.23235812753821        1.94113553187478        6.99200286298760
H           17.91026820472239        2.31867491154149        6.49911218468653
H           16.52892937787529        4.25088790945278        6.63440354348658
H           15.85256578436732        6.51718177393589        5.97861383845495
H           15.13113499487558        7.00780215724243        3.68484861795439
H           15.40933419377331        7.16182418664507        1.33344842398791
H           14.33747130453349        6.29637023115173        0.20087849384717
H           13.72523569969536        6.78278586997342        1.80349490320668
Cu          26.63183782538008       -0.01828829012862       -0.03992337276720
C           30.03873322342990        0.10329918682883       -0.17046596322243
C           29.40063175853029       -0.63499433391089       -1.15629930035400
C           30.07134841133872       -1.36554719996404       -2.19437608682524
C           29.10909474838871       -1.94709881874565       -2.95254599086235
C           27.84158221671675       -1.56951510244155       -2.38981130077464
N           28.05022882500247       -0.77788447765934       -1.29741848249412
C           26.59614651068062       -1.95505189523825       -2.88596550276618
C           25.36568149069211       -1.60792936339114       -2.32829434562463
C           24.08939779653477       -1.94517825924546       -2.89047738909501
C           23.14335743594579       -1.41764053165721       -2.07343314539806
N           25.17595847800632       -0.88065652933423       -1.18335488061811
C           23.83187138534822       -0.75980521220298       -1.00325659575912
C           23.19759964124381       -0.10526297145120        0.06746543488223
C           23.86507407688645        0.56532802763596        1.10788674603678
C           23.21353812639238        1.16993058483320        2.23115183777704
C           24.18182768144100        1.73143503890122        2.99813380616347
C           25.43485890952763        1.47445746052052        2.34820023342867
C           26.67759598228195        1.89522717510738        2.82197886685222
C           26.69552364815393        2.72487971529483        4.06037256344675
C           26.18424569478530        4.02965150859263        4.04686822024543
O           25.69812594943679        4.46499590829792        2.85430779913339
C           25.14054929200047        5.75792995522016        2.73683942255164
C           26.20476113561790        4.80808483193824        5.20377011710777
C           26.73308860356321        4.27787723688704        6.37105487094762
C           27.24388741297197        2.98927235302908        6.40920575691277
C           27.22734891210962        2.21246288339872        5.25117870315443
O           27.69707565613371        0.93769354662290        5.19222803409852
C           28.28447381805925        0.33799867468233        6.32865751506716
C           27.90570534062864        1.60334315001385        2.22756604536326
C           29.18222978248595        2.07300279986068        2.69228811606612
C           30.12205463500563        1.56901943789641        1.85460671885689
C           29.42767299897246        0.79285518248484        0.86645811858378
N           28.08575519023877        0.83410228144333        1.11447261603106
N           25.21014769727036        0.75216533546843        1.20605722991145
C           26.57543167551045       -2.79966517046566       -4.11425634159584
C           26.16358698466199       -4.13734252772530       -4.04562020839221
O           25.81432685870391       -4.58839089729869       -2.81169398044030
C           25.35602734850804       -5.91337695107331       -2.63636121995868
C           26.14021697466033       -4.92854694060755       -5.19374974785554
C           26.52430049048938       -4.37767770086038       -6.40698491171387
C           26.93389052780772       -3.05610759068520       -6.49991474909687
C           26.96191697995494       -2.26640928835473       -5.35082429765714
O           27.33982770652834       -0.96018288989447       -5.34251185053098
C           27.75391894597594       -0.32714272754954       -6.53576710680093
H           31.12246423929754        0.14381633599449       -0.21368235651511
H           31.14245026846945       -1.42174947763235       -2.31173752350514
H           29.23634951080833       -2.57748747108697       -3.81807813944644
H           23.94229104247720       -2.50618097336786       -3.79933498081594
H           22.07211550473301       -1.45944333679585       -2.18385329536948
H           22.15098775559245        1.15081143369516        2.41085708263512
H           24.06473321643458        2.26771404714269        3.92605807413751
H           25.88132168014329        6.53699121637140        2.95475339948387
H           24.81374428275353        5.85469289059333        1.69979753067965
H           24.27602832576168        5.88444811178632        3.39986725312209
H           25.81617408950246        5.81770520419409        5.20202294369933
H           26.74755115902046        4.88266941917234        7.27117636768968
H           27.64804562948868        2.60052733509111        7.33433642117761
H           28.59809812641735       -0.66028025282372        6.01754635695833
H           29.16182505294180        0.90018755314920        6.67123097545963
H           27.56675116253908        0.24885807754970        7.15331271249472
H           29.33075432803216        2.70882799520717        3.55042862615996
H           31.19179161167471        1.70608253812132        1.88754531850247
H           25.12994186619631       -6.01839273352958       -1.57359483147592
H           26.12401059626033       -6.64538397359302       -2.91471698655370
H           24.44611924409790       -6.10381768367891       -3.21844384287654
H           25.82750788169999       -5.96327789534717       -5.15024704034432
H           26.50388226586024       -4.99218465211760       -7.30038984843696
H           27.22533288293927       -2.65198786721411       -7.46016920557647
H           26.94722245670701       -0.30253284958391       -7.27858736814929
H           28.01910163741299        0.69554408601566       -6.26097835762325
H           28.63128672080893       -0.82173892081274       -6.97012350494891
C           20.56969227269218       -0.10897560999560        0.10035406985042
C           21.78669093684936       -0.11485418775856        0.09360852428737

          :  Hamiltonian                  GFN1-xTB          :
         :: total energy            -257.710785815102 Eh    ::
         :: gradient norm              0.000273184661 Eh/a0 ::
         :: HOMO-LUMO gap              0.003849790060 eV    ::
         :: SCC energy              -261.130913882379 Eh    ::
         :: repulsion energy           3.550460404716 Eh    ::

    * Orbital Energies and Occupations

         #    Occupation            Energy/Eh            Energy/eV
      -------------------------------------------------------------
         1        2.0000           -0.8035647             -21.8661
       ...           ...                  ...                  ...
       218        2.0000           -0.3936412             -10.7115
       219        2.0000           -0.3936058             -10.7106
       220        2.0000           -0.3904520             -10.6247
       221        2.0000           -0.3904468             -10.6246
       222        2.0000           -0.3902336             -10.6188
       223        2.0000           -0.3901812             -10.6174
       224        2.0000           -0.3901718             -10.6171
       225        2.0000           -0.3901136             -10.6155
       226        2.0000           -0.3770700             -10.2606
       227        2.0000           -0.3770610             -10.2604
       228        2.0000           -0.3761532             -10.2356
       229        2.0000           -0.3623072              -9.8589
       230        1.0372           -0.3374196              -9.1817 (HOMO)
       231        0.9628           -0.3372782              -9.1778 (LUMO)
       232                         -0.3197532              -8.7009
       233                         -0.3090752              -8.4104
       234                         -0.3090748              -8.4104
       235                         -0.3032759              -8.2526
       236                         -0.2778925              -7.5618
       237                         -0.2693942              -7.3306
       238                         -0.2514495              -6.8423
       239                         -0.2514416              -6.8421
       240                         -0.2507679              -6.8237
       241                         -0.2500052              -6.8030
       ...                                ...                  ...
       486                          1.3554107              36.8826
      -------------------------------------------------------------
                  HL-Gap            0.0001415 Eh            0.0038 eV

Wiberg/Mayer (AO) data.
largest (>0.10) Wiberg bond orders for each atom

     #   Z sym  total        # sym  WBO       # sym  WBO       # sym  WBO
 ---------------------------------------------------------------------------
     1  29 Cu   2.187 --     7 N    0.505    34 N    0.505    35 N    0.503
                            12 N    0.503
     2   6 C    3.930 --    33 C    1.361     3 C    1.361    46 H    0.972
     3   6 C    3.919 --     2 C    1.361     7 N    1.232     4 C    1.170
     4   6 C    3.955 --     5 C    1.657     3 C    1.170    47 H    0.976
     5   6 C    3.958 --     4 C    1.657     6 C    1.172    48 H    0.975
     6   6 C    3.913 --     8 C    1.326     7 N    1.236     5 C    1.172
     7   7 N    3.244 --     6 C    1.236     3 C    1.232     1 Cu   0.505
     8   6 C    3.934 --     9 C    1.331     6 C    1.326    36 C    1.014
     9   6 C    3.908 --     8 C    1.331    12 N    1.221    10 C    1.179
    10   6 C    3.955 --    11 C    1.644     9 C    1.179    49 H    0.975
    11   6 C    3.957 --    10 C    1.644    13 C    1.186    50 H    0.969
    12   7 N    3.248 --    13 C    1.256     9 C    1.221     1 Cu   0.503
    13   6 C    3.904 --    14 C    1.264    12 N    1.256    11 C    1.186
    14   6 C    3.940 --    13 C    1.264    15 C    1.264   145 C    1.174
    15   6 C    3.904 --    14 C    1.264    35 N    1.257    16 C    1.186
    16   6 C    3.957 --    17 C    1.643    15 C    1.186    51 H    0.969
    17   6 C    3.955 --    16 C    1.643    18 C    1.179    52 H    0.975
    18   6 C    3.909 --    19 C    1.331    35 N    1.221    17 C    1.179
    19   6 C    3.934 --    18 C    1.331    30 C    1.325    20 C    1.015
    20   6 C    3.978 --    27 C    1.343    21 C    1.343    19 C    1.015
                            25 C    0.101
    21   6 C    3.903 --    24 C    1.362    20 C    1.343    22 O    1.031
    22   8 O    2.145 --    21 C    1.031    23 C    0.936
    23   6 C    3.908 --    54 H    0.983    55 H    0.980    53 H    0.980
                            22 O    0.936
    24   6 C    3.983 --    25 C    1.442    21 C    1.362    56 H    0.969
    25   6 C    3.992 --    24 C    1.442    26 C    1.442    57 H    0.974
                            20 C    0.101
    26   6 C    3.983 --    25 C    1.442    27 C    1.362    58 H    0.969
    27   6 C    3.903 --    26 C    1.362    20 C    1.343    28 O    1.030
    28   8 O    2.144 --    27 C    1.030    29 C    0.936
    29   6 C    3.908 --    59 H    0.983    60 H    0.980    61 H    0.980
                            28 O    0.936
    30   6 C    3.913 --    19 C    1.325    34 N    1.237    31 C    1.172
    31   6 C    3.958 --    32 C    1.657    30 C    1.172    62 H    0.975
    32   6 C    3.955 --    31 C    1.657    33 C    1.170    63 H    0.976
    33   6 C    3.919 --     2 C    1.361    34 N    1.232    32 C    1.170
    34   7 N    3.244 --    30 C    1.237    33 C    1.232     1 Cu   0.505
    35   7 N    3.248 --    15 C    1.257    18 C    1.221     1 Cu   0.503
    36   6 C    3.978 --    43 C    1.344    37 C    1.343     8 C    1.014
                            41 C    0.101
    37   6 C    3.903 --    40 C    1.362    36 C    1.343    38 O    1.031
    38   8 O    2.145 --    37 C    1.031    39 C    0.936
    39   6 C    3.908 --    64 H    0.983    66 H    0.980    65 H    0.980
                            38 O    0.936
    40   6 C    3.983 --    41 C    1.442    37 C    1.362    67 H    0.969
    41   6 C    3.992 --    40 C    1.442    42 C    1.442    68 H    0.974
                            36 C    0.101
    42   6 C    3.983 --    41 C    1.442    43 C    1.362    69 H    0.969
    43   6 C    3.903 --    42 C    1.362    36 C    1.344    44 O    1.030
    44   8 O    2.144 --    43 C    1.030    45 C    0.936
    45   6 C    3.908 --    71 H    0.983    72 H    0.980    70 H    0.980
                            44 O    0.936
    46   1 H    1.002 --     2 C    0.972
    47   1 H    0.999 --     4 C    0.976
    48   1 H    1.002 --     5 C    0.975
    49   1 H    1.002 --    10 C    0.975
    50   1 H    1.007 --    11 C    0.969
    51   1 H    1.007 --    16 C    0.969
    52   1 H    1.002 --    17 C    0.975
    53   1 H    1.009 --    23 C    0.980
    54   1 H    1.016 --    23 C    0.983
    55   1 H    1.009 --    23 C    0.980
    56   1 H    1.000 --    24 C    0.969
    57   1 H    1.003 --    25 C    0.974
    58   1 H    1.000 --    26 C    0.969
    59   1 H    1.016 --    29 C    0.983
    60   1 H    1.009 --    29 C    0.980
    61   1 H    1.009 --    29 C    0.980
    62   1 H    1.002 --    31 C    0.975
    63   1 H    0.999 --    32 C    0.976
    64   1 H    1.016 --    39 C    0.983
    65   1 H    1.009 --    39 C    0.980
    66   1 H    1.009 --    39 C    0.980
    67   1 H    1.000 --    40 C    0.969
    68   1 H    1.003 --    41 C    0.974
    69   1 H    1.000 --    42 C    0.969
    70   1 H    1.009 --    45 C    0.980
    71   1 H    1.016 --    45 C    0.983
    72   1 H    1.009 --    45 C    0.980
    73  29 Cu   2.187 --    79 N    0.505   106 N    0.505   107 N    0.503
                            84 N    0.503
    74   6 C    3.930 --   105 C    1.361    75 C    1.361   118 H    0.972
    75   6 C    3.919 --    74 C    1.361    79 N    1.232    76 C    1.170
    76   6 C    3.955 --    77 C    1.657    75 C    1.170   119 H    0.976
    77   6 C    3.958 --    76 C    1.657    78 C    1.172   120 H    0.975
    78   6 C    3.913 --    80 C    1.326    79 N    1.236    77 C    1.172
    79   7 N    3.244 --    78 C    1.236    75 C    1.232    73 Cu   0.505
    80   6 C    3.934 --    81 C    1.331    78 C    1.326   108 C    1.014
    81   6 C    3.908 --    80 C    1.331    84 N    1.221    82 C    1.179
    82   6 C    3.955 --    83 C    1.644    81 C    1.179   121 H    0.975
    83   6 C    3.957 --    82 C    1.644    85 C    1.186   122 H    0.969
    84   7 N    3.248 --    85 C    1.256    81 C    1.221    73 Cu   0.503
    85   6 C    3.904 --    86 C    1.264    84 N    1.256    83 C    1.186
    86   6 C    3.940 --    85 C    1.264    87 C    1.264   146 C    1.174
    87   6 C    3.904 --    86 C    1.264   107 N    1.257    88 C    1.186
    88   6 C    3.957 --    89 C    1.643    87 C    1.186   123 H    0.969
    89   6 C    3.955 --    88 C    1.643    90 C    1.179   124 H    0.975
    90   6 C    3.909 --    91 C    1.331   107 N    1.221    89 C    1.179
    91   6 C    3.934 --    90 C    1.331   102 C    1.325    92 C    1.015
    92   6 C    3.978 --    99 C    1.343    93 C    1.343    91 C    1.015
                            97 C    0.101
    93   6 C    3.903 --    96 C    1.362    92 C    1.343    94 O    1.031
    94   8 O    2.145 --    93 C    1.031    95 C    0.936
    95   6 C    3.908 --   126 H    0.983   127 H    0.980   125 H    0.980
                            94 O    0.936
    96   6 C    3.983 --    97 C    1.442    93 C    1.362   128 H    0.969
    97   6 C    3.992 --    96 C    1.442    98 C    1.442   129 H    0.974
                            92 C    0.101
    98   6 C    3.983 --    97 C    1.442    99 C    1.362   130 H    0.969
    99   6 C    3.903 --    98 C    1.362    92 C    1.343   100 O    1.030
   100   8 O    2.144 --    99 C    1.030   101 C    0.936
   101   6 C    3.908 --   131 H    0.983   132 H    0.980   133 H    0.980
                           100 O    0.936
   102   6 C    3.913 --    91 C    1.325   106 N    1.237   103 C    1.172
   103   6 C    3.958 --   104 C    1.657   102 C    1.172   134 H    0.975
   104   6 C    3.955 --   103 C    1.657   105 C    1.170   135 H    0.976
   105   6 C    3.919 --    74 C    1.361   106 N    1.232   104 C    1.170
   106   7 N    3.244 --   102 C    1.237   105 C    1.232    73 Cu   0.505
   107   7 N    3.248 --    87 C    1.257    90 C    1.221    73 Cu   0.503
   108   6 C    3.978 --   115 C    1.344   109 C    1.343    80 C    1.014
                           113 C    0.101
   109   6 C    3.903 --   112 C    1.362   108 C    1.343   110 O    1.031
   110   8 O    2.145 --   109 C    1.031   111 C    0.936
   111   6 C    3.908 --   136 H    0.983   138 H    0.980   137 H    0.980
                           110 O    0.936
   112   6 C    3.983 --   113 C    1.442   109 C    1.362   139 H    0.969
   113   6 C    3.992 --   112 C    1.442   114 C    1.442   140 H    0.974
                           108 C    0.101
   114   6 C    3.983 --   113 C    1.442   115 C    1.362   141 H    0.969
   115   6 C    3.903 --   114 C    1.362   108 C    1.344   116 O    1.030
   116   8 O    2.144 --   115 C    1.030   117 C    0.936
   117   6 C    3.908 --   143 H    0.983   144 H    0.980   142 H    0.980
                           116 O    0.936
   118   1 H    1.002 --    74 C    0.972
   119   1 H    0.999 --    76 C    0.976
   120   1 H    1.002 --    77 C    0.975
   121   1 H    1.002 --    82 C    0.975
   122   1 H    1.007 --    83 C    0.969
   123   1 H    1.007 --    88 C    0.969
   124   1 H    1.002 --    89 C    0.975
   125   1 H    1.009 --    95 C    0.980
   126   1 H    1.016 --    95 C    0.983
   127   1 H    1.009 --    95 C    0.980
   128   1 H    1.000 --    96 C    0.969
   129   1 H    1.003 --    97 C    0.974
   130   1 H    1.000 --    98 C    0.969
   131   1 H    1.016 --   101 C    0.983
   132   1 H    1.009 --   101 C    0.980
   133   1 H    1.009 --   101 C    0.980
   134   1 H    1.002 --   103 C    0.975
   135   1 H    0.999 --   104 C    0.976
   136   1 H    1.016 --   111 C    0.983
   137   1 H    1.009 --   111 C    0.980
   138   1 H    1.009 --   111 C    0.980
   139   1 H    1.000 --   112 C    0.969
   140   1 H    1.003 --   113 C    0.974
   141   1 H    1.000 --   114 C    0.969
   142   1 H    1.009 --   117 C    0.980
   143   1 H    1.016 --   117 C    0.983
   144   1 H    1.009 --   117 C    0.980
   145   6 C    3.936 --   146 C    2.583    14 C    1.174
   146   6 C    3.936 --   145 C    2.583    86 C    1.174
 ---------------------------------------------------------------------------

           -------------------------------------------------
          | TOTAL ENERGY             -257.710785815102 Eh   |
          | GRADIENT NORM               0.000273184661 Eh/α |
          | HOMO-LUMO GAP               0.003849790060 eV   |
           -------------------------------------------------

 * finished run on 2022/07/30 at 11:53:37.552
