   * xtb version 6.5.1 (b24c23e) compiled by 'conda@728c89f4b128' on 2022-07-12
          program call               : xtb NMA_C8_2.xyz --gfn 1 --opt -T 48

   ID    Z sym.   atoms
    1    6 C      1-5, 7-11, 13-18, 20-25, 27-31, 33-39, 68-72, 74-78, 80-85,
                  87-92, 94-98, 100-106, 135-142
    2    7 N      6, 12, 19, 26, 32, 40, 73, 79, 86, 93, 99, 107
    3    1 H      41-67, 108-134
########################################################################
[WARNING] Please study the warnings concerning your input carefully
-1- prog_main_parseArguments: Unknown option '-T' provided
########################################################################

          :  Hamiltonian                  GFN1-xTB          :
 * total energy  :  -227.4166467 Eh     change        0.2251852E-09 Eh
 * total energy  :  -227.6228355 Eh     change       -0.2061888E+00 Eh
 * total energy  :  -227.6991750 Eh     change       -0.7633944E-01 Eh
 * total energy  :  -227.7292868 Eh     change       -0.3011189E-01 Eh
 * total energy  :  -227.7467724 Eh     change       -0.1748556E-01 Eh
 * total energy  :  -227.7602434 Eh     change       -0.1347097E-01 Eh
 * total energy  :  -227.7705729 Eh     change       -0.1032949E-01 Eh
 * total energy  :  -227.7774657 Eh     change       -0.6892874E-02 Eh
 * total energy  :  -227.7837930 Eh     change       -0.6327275E-02 Eh
 * total energy  :  -227.7889448 Eh     change       -0.5151814E-02 Eh
 * total energy  :  -227.8347357 Eh     change       -0.8091195E-05 Eh
 * total energy  :  -227.8347451 Eh     change       -0.9435956E-05 Eh
 * total energy  :  -227.8347562 Eh     change       -0.1109725E-04 Eh
 * total energy  :  -227.8347684 Eh     change       -0.1213818E-04 Eh
 * total energy  :  -227.8347796 Eh     change       -0.1125724E-04 Eh
 * total energy  :  -227.8347897 Eh     change       -0.1005183E-04 Eh
 * total energy  :  -227.8347994 Eh     change       -0.9692943E-05 Eh
 * total energy  :  -227.8348103 Eh     change       -0.1094490E-04 Eh
 * total energy  :  -227.8348131 Eh     change       -0.2792197E-05 Eh
   *** GEOMETRY OPTIMIZATION CONVERGED AFTER 122 ITERATIONS ***

 final structure:
================
142
 xtb: 6.5.1 (b24c23e)
C           11.65316835991011        0.56785527545730        0.00000399462177
C           12.24605044955988        0.60618606571742       -1.25581299816658
C           11.57603445197371        0.71180953371669       -2.50640820047277
C           12.51802210114669        0.65424326951934       -3.49536021663698
C           13.79583760206954        0.53013207829543       -2.88020700909509
N           13.58041015566826        0.50244040087353       -1.53104117310292
C           15.04464189149933        0.42993813931349       -3.50635150598539
C           15.05937815835957        0.47841975590155       -4.98659656519742
C           15.58608992542802       -0.58495609128763       -5.72272928723477
C           15.59203808469285       -0.56545522989356       -7.10669860491190
C           15.06820390605122        0.53255549684433       -7.79531868745609
N           15.09650345106036        0.62871806092618       -9.17871264536708
C           15.14677338932978       -0.58384495300190       -9.98463767489543
C           14.55484154450034        1.60928494912366       -7.06177264292770
C           14.54544584244879        1.57774027912199       -5.67992526035480
C           16.26190578234052        0.28646644109235       -2.83454040155044
C           17.55509820830093        0.30490857232242       -3.49360176127586
C           18.48231638369746        0.17880890883554       -2.52128400033838
N           16.42602428569976        0.15664186939629       -1.48889052702767
C           17.75446752495156        0.08078123445232       -1.27150842765683
C           18.39961372812388       -0.07233686592037       -0.02693714601801
C           17.77295436404626       -0.18251231994110        1.22972444613297
C           18.42669110561839       -0.35035280410702        2.47856740479911
C           17.46765917582633       -0.40917104942664        3.45213170507309
C           16.19757708644308       -0.27950238590962        2.82598548450340
N           16.43464521950989       -0.14340252191069        1.48314683304113
C           14.94523373461869       -0.24006080680726        3.45031215964057
C           14.92258249010781       -0.46674550361525        4.91334182754782
C           14.40488423432474        0.49260503500703        5.78552986633289
C           14.38218325057767        0.27891379113287        7.15331204721149
C           14.87998366445393       -0.91367437888551        7.68654777825957
N           14.82811024091883       -1.20534268946016        9.04105806187084
C           14.77224880340603       -0.12092311029544       10.01205076274069
C           15.39194800531307       -1.88310862144237        6.81519912604892
C           15.41840160487839       -1.65786264219888        5.45225739276346
C           13.73443313656530       -0.00650571682641        2.78782328828702
C           12.43297167409868        0.00343958063548        3.43676498571493
C           11.52526289651566        0.25127601450101        2.47072331150698
C           12.26850959360358        0.37056550684062        1.22921690066138
N           13.59531647518512        0.21189997642298        1.45851543660301
H           10.57244785530311        0.66978248051078        0.00847686693936
H           10.50778072591183        0.80436444990931       -2.62191035867221
H           12.34542877502886        0.68255197491052       -4.55902653993056
H           14.31393222534047        0.39725140204539       -0.83805116918216
H           15.97846613839779       -1.45065845407719       -5.20022147594898
H           16.00568424504742       -1.40901897430979       -7.64552535221837
H           14.42999195842648        1.30187177683884       -9.53749571748057
H           14.34912652211385       -1.28369825015255       -9.71003627078718
H           15.03133834455010       -0.29820153958101      -11.03019926663045
H           16.11293454638694       -1.07473625693984       -9.86194954455929
H           14.16311285701057        2.47395038625476       -7.58721571163147
H           14.15579499982321        2.42538287320623       -5.12667398479758
H           17.71221207455120        0.42546939742456       -4.55323931378572
H           19.55635583934785        0.15582299972984       -2.61455926322606
H           19.49531997533634       -0.41276273772413        2.60685475345659
H           17.62470594242609       -0.51443858137435        4.51325384004939
H           15.70855989904012       -0.01719586719020        0.78558538824597
H           14.03431023378841        1.43081079499459        5.38704195546566
H           13.97498227775960        1.04519543216462        7.80148106778853
H           15.47948492840639       -1.93253712250599        9.31079535606517
H           13.80458544526809        0.37969068278409        9.95834044013171
H           15.56810305830947        0.61329580981800        9.84246858334954
H           14.88657972763666       -0.55309764904095       11.00615923493309
H           15.76767715697136       -2.81772492522443        7.21825192457592
H           15.80739361068274       -2.42291251694776        4.78905769138187
H           12.25853235350878       -0.17295641191352        4.48595527472303
H           10.45288934825685        0.33325455054254        2.55651960353101
C           36.88424276584601        0.57244580245755       -0.03118363316091
C           36.29141566346272        0.67270339724864        1.22125251238464
C           36.96138546923127        0.84320338748627        2.46469542624945
C           36.01965253475404        0.83430378484570        3.45553383627834
C           34.74200075154696        0.67650022407833        2.84782140382430
N           34.95731750737585        0.58041071191273        1.50176375235052
C           33.49336208357806        0.60610845507773        3.47836444631738
C           33.47789718133787        0.73040576816777        4.95411626635165
C           32.95073360195718       -0.29406382485425        5.74325182205097
C           32.94302245935843       -0.20365387449476        7.12436602901478
C           33.46559700049335        0.92843248457096        7.75645419098623
N           33.43509455810768        1.09562227033701        9.13301575067188
C           33.38318923390724       -0.07375330493664       10.00029879019326
C           33.97978436206055        1.96619274973245        6.96926350971314
C           33.99082638426584        1.86391513554705        5.59084779054433
C           32.27650917629737        0.42568621442647        2.81466575400388
C           30.98307295920988        0.47607963015734        3.47158962005178
C           30.05639806322695        0.29735893882309        2.50703212783463
N           32.11302622775498        0.22555228465736        1.47759413770239
C           30.78479684729833        0.13568918578899        1.26422415496007
C           30.14024026066494       -0.08349752976589        0.02927060020788
C           30.76723285941642       -0.25782361645447       -1.21992507059702
C           30.11389322536822       -0.49270744777744       -2.45812529733391
C           31.07293904495642       -0.59825620769831       -3.42771509250331
C           32.34263592871701       -0.43139456643091       -2.80964076498706
N           32.10534752913733       -0.22722541238113       -1.47549119043674
C           33.59462752907343       -0.41840822752227       -3.43576368881098
C           33.61758976910019       -0.71864640773644       -4.88552817015972
C           34.12927735779991        0.19813267119281       -5.80570987441229
C           34.15117873548024       -0.08408886238790       -7.16104268104307
C           33.65875068850534       -1.30451624770623       -7.63270702746807
N           33.70982181300167       -1.66345461376480       -8.97102702204696
C           33.75546087509935       -0.62848602558034       -9.99513673542506
C           33.15333541252828       -2.23157630876215       -6.71280300507644
C           33.12748610002407       -1.93803151750551       -5.36291000104136
C           34.80456957881126       -0.14676292589723       -2.78641427890864
C           36.10584726718203       -0.16430181011864       -3.43552992670925
C           37.01284390052825        0.13419364325960       -2.48324869689689
C           36.26939179047775        0.31231870661703       -1.24890679463526
N           34.94308974936447        0.13816785058368       -1.46968701303022
H           37.96470356033362        0.67654122558253       -0.04497304220447
H           38.02947414714672        0.94360803224339        2.57508172582317
H           36.19237509371800        0.91713147075481        4.51632721009630
H           34.22386247277080        0.43849584078483        0.81527865509414
H           32.55927046946638       -1.18557161668376        5.26535366466024
H           32.52889306455638       -1.01864626265205        7.70515948354183
H           34.10107262835767        1.78633178902145        9.45781876551710
H           34.18256667804304       -0.78587506159759        9.76506869340157
H           33.49450934611919        0.26564893788758       11.03012760512791
H           32.41799769076221       -0.57149587393118        9.89969098062854
H           34.37068674993957        2.85676593622597        7.45016872979070
H           34.38084193510253        2.68231449830637        4.99542350509852
H           30.82529992387768        0.65176039445707        4.52339401169291
H           28.98239103862306        0.27700161782503        2.60122442497430
H           29.04548701697943       -0.56584081745906       -2.58254388098392
H           30.91607863521964       -0.75902164740954       -4.48188263943021
H           32.83115111754049       -0.06223978863540       -0.78576838322041
H           34.49554134711631        1.15709428442567       -5.45558411505439
H           34.55350574946731        0.65057083261683       -7.84773283162922
H           33.06272899340465       -2.40756691659168       -9.20221520243773
H           34.72075266917035       -0.12099662837302       -9.97132852736923
H           32.95661838911123        0.10930430722690       -9.85828422391686
H           33.63857025720731       -1.11022388637517      -10.96589581843114
H           32.78203032187786       -3.18727053587237       -7.06763741718327
H           32.74333406105186       -2.67062661006161       -4.66135660054858
H           36.28061760607736       -0.39165568360762       -4.47481744585103
H           38.08491319804803        0.21554027446375       -2.57336116262065
C           19.80367661250805       -0.11999081571363       -0.02442527541793
C           21.02829564093453       -0.14955491676096       -0.01524312645498
C           22.37017401677218       -0.17310273953397       -0.00810839341737
C           23.60116176416858       -0.18794651382775       -0.00135758555995
C           24.93854693566267       -0.19008582789636        0.00796960688165
C           26.16956530688446       -0.18098509492649        0.01523862409727
C           27.51149253194554       -0.16028059813312        0.02108393066181
C           28.73622774053121       -0.13237944193595        0.02896300805254

          :  Hamiltonian                  GFN1-xTB          :
         :: total energy            -227.834813122814 Eh    ::
         :: gradient norm              0.000304215909 Eh/a0 ::
         :: HOMO-LUMO gap              0.975523116872 eV    ::
         :: SCC energy              -231.642525537254 Eh    ::
         :: repulsion energy           3.920362959730 Eh    ::

    * Orbital Energies and Occupations

         #    Occupation            Energy/Eh            Energy/eV
      -------------------------------------------------------------
         1        2.0000           -0.7952605             -21.6401
       ...           ...                  ...                  ...
       197        2.0000           -0.4076475             -11.0927
       198        2.0000           -0.4067099             -11.0671
       199        2.0000           -0.4066891             -11.0666
       200        2.0000           -0.4041950             -10.9987
       201        2.0000           -0.3987569             -10.8507
       202        2.0000           -0.3938036             -10.7159
       203        2.0000           -0.3930777             -10.6962
       204        2.0000           -0.3906676             -10.6306
       205        2.0000           -0.3906369             -10.6298
       206        2.0000           -0.3898776             -10.6091
       207        2.0000           -0.3888547             -10.5813
       208        2.0000           -0.3748596             -10.2004
       209        2.0000           -0.3682314             -10.0201 (HOMO)
       210                         -0.3323816              -9.0446 (LUMO)
       211                         -0.3233273              -8.7982
       212                         -0.3213764              -8.7451
       213                         -0.3212063              -8.7405
       214                         -0.2944955              -8.0136
       215                         -0.2917061              -7.9377
       216                         -0.2853332              -7.7643
       217                         -0.2668350              -7.2610
       218                         -0.2555636              -6.9542
       219                         -0.2555554              -6.9540
       220                         -0.2555432              -6.9537
       ...                                ...                  ...
       460                          1.6139185              43.9170
      -------------------------------------------------------------
                  HL-Gap            0.0358498 Eh            0.9755 eV

Wiberg/Mayer (AO) data.
largest (>0.10) Wiberg bond orders for each atom

     #   Z sym  total        # sym  WBO       # sym  WBO       # sym  WBO
 ---------------------------------------------------------------------------
     1   6 C    3.922 --    39 C    1.366     2 C    1.344    41 H    0.971
     2   6 C    3.903 --     1 C    1.344     3 C    1.232     6 N    1.170
     3   6 C    3.951 --     4 C    1.591     2 C    1.232    42 H    0.977
     4   6 C    3.959 --     3 C    1.591     5 C    1.238    43 H    0.974
     5   6 C    3.894 --     7 C    1.299     4 C    1.238     6 N    1.177
     6   7 N    3.469 --     5 C    1.177     2 C    1.170    44 H    0.873
     7   6 C    3.939 --    16 C    1.333     5 C    1.299     8 C    1.036
     8   6 C    3.988 --     9 C    1.382    15 C    1.375     7 C    1.036
     9   6 C    3.986 --    10 C    1.466     8 C    1.382    45 H    0.972
    10   6 C    3.990 --     9 C    1.466    11 C    1.353    46 H    0.970
    11   6 C    3.952 --    10 C    1.353    14 C    1.345    12 N    1.109
    12   7 N    3.180 --    11 C    1.109    13 C    0.971    47 H    0.931
    13   6 C    3.968 --    49 H    0.990    50 H    0.986    48 H    0.984
                            12 N    0.971
    14   6 C    3.989 --    15 C    1.476    11 C    1.345    51 H    0.971
    15   6 C    3.987 --    14 C    1.476     8 C    1.375    52 H    0.973
    16   6 C    3.913 --     7 C    1.333    19 N    1.286    17 C    1.127
    17   6 C    3.966 --    18 C    1.707    16 C    1.127    53 H    0.974
    18   6 C    3.963 --    17 C    1.707    20 C    1.130    54 H    0.974
    19   7 N    3.021 --    20 C    1.344    16 C    1.286
    20   6 C    3.908 --    19 N    1.344    21 C    1.252    18 C    1.130
    21   6 C    3.935 --    20 C    1.252    22 C    1.248   135 C    1.195
    22   6 C    3.885 --    23 C    1.251    21 C    1.248    26 N    1.190
    23   6 C    3.958 --    24 C    1.580    22 C    1.251    55 H    0.975
    24   6 C    3.955 --    23 C    1.580    25 C    1.244    56 H    0.974
    25   6 C    3.897 --    27 C    1.306    24 C    1.244    26 N    1.164
    26   7 N    3.473 --    22 C    1.190    25 C    1.164    57 H    0.873
    27   6 C    3.925 --    36 C    1.317    25 C    1.306    28 C    1.038
    28   6 C    3.987 --    29 C    1.383    35 C    1.372    27 C    1.038
    29   6 C    3.987 --    30 C    1.465    28 C    1.383    58 H    0.972
    30   6 C    3.989 --    29 C    1.465    31 C    1.353    59 H    0.970
    31   6 C    3.951 --    30 C    1.353    34 C    1.344    32 N    1.111
    32   7 N    3.180 --    31 C    1.111    33 C    0.971    60 H    0.931
    33   6 C    3.968 --    63 H    0.990    61 H    0.986    62 H    0.984
                            32 N    0.971
    34   6 C    3.989 --    35 C    1.477    31 C    1.344    64 H    0.971
    35   6 C    3.986 --    34 C    1.477    28 C    1.372    65 H    0.973
    36   6 C    3.927 --    40 N    1.318    27 C    1.317    37 C    1.120
    37   6 C    3.967 --    38 C    1.719    36 C    1.120    66 H    0.973
    38   6 C    3.966 --    37 C    1.719    39 C    1.118    67 H    0.976
    39   6 C    3.930 --     1 C    1.366    40 N    1.299    38 C    1.118
    40   7 N    3.010 --    36 C    1.318    39 C    1.299
    41   1 H    1.002 --     1 C    0.971
    42   1 H    0.998 --     3 C    0.977
    43   1 H    1.006 --     4 C    0.974
    44   1 H    0.986 --     6 N    0.873
    45   1 H    1.006 --     9 C    0.972
    46   1 H    1.001 --    10 C    0.970
    47   1 H    0.966 --    12 N    0.931
    48   1 H    1.003 --    13 C    0.984
    49   1 H    1.007 --    13 C    0.990
    50   1 H    1.012 --    13 C    0.986
    51   1 H    0.999 --    14 C    0.971
    52   1 H    1.005 --    15 C    0.973
    53   1 H    1.005 --    17 C    0.974
    54   1 H    1.003 --    18 C    0.974
    55   1 H    1.002 --    23 C    0.975
    56   1 H    1.005 --    24 C    0.974
    57   1 H    0.988 --    26 N    0.873
    58   1 H    1.006 --    29 C    0.972
    59   1 H    1.001 --    30 C    0.970
    60   1 H    0.966 --    32 N    0.931
    61   1 H    1.012 --    33 C    0.986
    62   1 H    1.003 --    33 C    0.984
    63   1 H    1.007 --    33 C    0.990
    64   1 H    0.999 --    34 C    0.971
    65   1 H    1.005 --    35 C    0.973
    66   1 H    1.006 --    37 C    0.973
    67   1 H    0.999 --    38 C    0.976
    68   6 C    3.922 --   106 C    1.366    69 C    1.344   108 H    0.971
    69   6 C    3.903 --    68 C    1.344    70 C    1.232    73 N    1.170
    70   6 C    3.951 --    71 C    1.591    69 C    1.232   109 H    0.977
    71   6 C    3.959 --    70 C    1.591    72 C    1.238   110 H    0.974
    72   6 C    3.894 --    74 C    1.299    71 C    1.238    73 N    1.177
    73   7 N    3.469 --    72 C    1.177    69 C    1.170   111 H    0.873
    74   6 C    3.939 --    83 C    1.333    72 C    1.299    75 C    1.037
    75   6 C    3.988 --    76 C    1.382    82 C    1.375    74 C    1.037
    76   6 C    3.986 --    77 C    1.466    75 C    1.382   112 H    0.972
    77   6 C    3.990 --    76 C    1.466    78 C    1.353   113 H    0.970
    78   6 C    3.952 --    77 C    1.353    81 C    1.345    79 N    1.110
    79   7 N    3.180 --    78 C    1.110    80 C    0.971   114 H    0.931
    80   6 C    3.968 --   116 H    0.990   117 H    0.986   115 H    0.984
                            79 N    0.971
    81   6 C    3.989 --    82 C    1.476    78 C    1.345   118 H    0.971
    82   6 C    3.987 --    81 C    1.476    75 C    1.375   119 H    0.973
    83   6 C    3.913 --    74 C    1.333    86 N    1.286    84 C    1.127
    84   6 C    3.966 --    85 C    1.707    83 C    1.127   120 H    0.974
    85   6 C    3.963 --    84 C    1.707    87 C    1.130   121 H    0.974
    86   7 N    3.021 --    87 C    1.344    83 C    1.286
    87   6 C    3.908 --    86 N    1.344    88 C    1.252    85 C    1.130
    88   6 C    3.935 --    87 C    1.252    89 C    1.248   142 C    1.195
    89   6 C    3.885 --    90 C    1.251    88 C    1.248    93 N    1.190
    90   6 C    3.958 --    91 C    1.580    89 C    1.251   122 H    0.975
    91   6 C    3.955 --    90 C    1.580    92 C    1.244   123 H    0.974
    92   6 C    3.897 --    94 C    1.306    91 C    1.244    93 N    1.164
    93   7 N    3.473 --    89 C    1.190    92 C    1.164   124 H    0.873
    94   6 C    3.925 --   103 C    1.318    92 C    1.306    95 C    1.037
    95   6 C    3.987 --    96 C    1.383   102 C    1.372    94 C    1.037
    96   6 C    3.987 --    97 C    1.465    95 C    1.383   125 H    0.972
    97   6 C    3.989 --    96 C    1.465    98 C    1.353   126 H    0.970
    98   6 C    3.951 --    97 C    1.353   101 C    1.344    99 N    1.110
    99   7 N    3.180 --    98 C    1.110   100 C    0.971   127 H    0.931
   100   6 C    3.968 --   130 H    0.990   128 H    0.986   129 H    0.984
                            99 N    0.971
   101   6 C    3.989 --   102 C    1.477    98 C    1.344   131 H    0.971
   102   6 C    3.986 --   101 C    1.477    95 C    1.372   132 H    0.973
   103   6 C    3.927 --   107 N    1.318    94 C    1.318   104 C    1.120
   104   6 C    3.967 --   105 C    1.719   103 C    1.120   133 H    0.973
   105   6 C    3.966 --   104 C    1.719   106 C    1.118   134 H    0.976
   106   6 C    3.930 --    68 C    1.366   107 N    1.299   105 C    1.118
   107   7 N    3.010 --   103 C    1.318   106 C    1.299
   108   1 H    1.002 --    68 C    0.971
   109   1 H    0.998 --    70 C    0.977
   110   1 H    1.006 --    71 C    0.974
   111   1 H    0.986 --    73 N    0.873
   112   1 H    1.006 --    76 C    0.972
   113   1 H    1.001 --    77 C    0.970
   114   1 H    0.966 --    79 N    0.931
   115   1 H    1.003 --    80 C    0.984
   116   1 H    1.007 --    80 C    0.990
   117   1 H    1.012 --    80 C    0.986
   118   1 H    0.999 --    81 C    0.971
   119   1 H    1.005 --    82 C    0.973
   120   1 H    1.005 --    84 C    0.974
   121   1 H    1.003 --    85 C    0.974
   122   1 H    1.002 --    90 C    0.975
   123   1 H    1.005 --    91 C    0.974
   124   1 H    0.988 --    93 N    0.873
   125   1 H    1.006 --    96 C    0.972
   126   1 H    1.001 --    97 C    0.970
   127   1 H    0.966 --    99 N    0.931
   128   1 H    1.012 --   100 C    0.986
   129   1 H    1.003 --   100 C    0.984
   130   1 H    1.007 --   100 C    0.990
   131   1 H    0.999 --   101 C    0.971
   132   1 H    1.005 --   102 C    0.973
   133   1 H    1.006 --   104 C    0.973
   134   1 H    0.999 --   105 C    0.976
   135   6 C    3.876 --   136 C    2.434    21 C    1.195   138 C    0.186
   136   6 C    3.931 --   135 C    2.434   137 C    1.347
   137   6 C    3.892 --   138 C    2.332   136 C    1.347   140 C    0.182
   138   6 C    3.924 --   137 C    2.332   139 C    1.372   135 C    0.186
   139   6 C    3.924 --   140 C    2.332   138 C    1.372   142 C    0.186
   140   6 C    3.892 --   139 C    2.332   141 C    1.347   137 C    0.182
   141   6 C    3.931 --   142 C    2.434   140 C    1.347
   142   6 C    3.876 --   141 C    2.434    88 C    1.195   139 C    0.186
 ---------------------------------------------------------------------------

           -------------------------------------------------
          | TOTAL ENERGY             -227.834813122814 Eh   |
          | GRADIENT NORM               0.000304215909 Eh/α |
          | HOMO-LUMO GAP               0.975523116872 eV   |
           -------------------------------------------------

 * finished run on 2022/07/31 at 09:24:36.792
