   * xtb version 6.5.1 (b24c23e) compiled by 'conda@728c89f4b128' on 2022-07-12
          program call               : xtb Co_H_C4_4.xyz --gfn 1 --opt -T 48

   ID    Z sym.   atoms
    1   27 Co     1, 37, 85, 120
    2    6 C      2-6, 8-11, 13-18, 20-24, 38-42, 44-47, 49-54, 56-60, 73-84,
                  86-90, 92-95, 97-102, 104-108, 121-125, 127-130, 132-137,
                  139-143
    3    7 N      7, 12, 19, 25, 43, 48, 55, 61, 91, 96, 103, 109, 126, 131,
                  138, 144
    4    1 H      26-36, 62-72, 110-119, 145-154

          :  Hamiltonian                  GFN1-xTB          :
 * total energy  :  -278.0050323 Eh     change        0.1877095E-07 Eh
 * total energy  :  -280.8135202 Eh     change       -0.2808488E+01 Eh
 * total energy  :  -281.2246267 Eh     change       -0.4111066E+00 Eh
 * total energy  :  -281.4528936 Eh     change       -0.2282669E+00 Eh
 * total energy  :  -281.5769790 Eh     change       -0.1240854E+00 Eh
 * total energy  :  -281.6731148 Eh     change       -0.9613582E-01 Eh
 * total energy  :  -281.7597951 Eh     change       -0.8668030E-01 Eh
 * total energy  :  -281.8124858 Eh     change       -0.5269067E-01 Eh
 * total energy  :  -281.8451973 Eh     change       -0.3271151E-01 Eh
 * total energy  :  -281.8713689 Eh     change       -0.2617155E-01 Eh
 * total energy  :  -281.9474017 Eh     change       -0.2835087E-04 Eh
 * total energy  :  -281.9474146 Eh     change       -0.1294615E-04 Eh
 * total energy  :  -281.9474241 Eh     change       -0.9480079E-05 Eh
 * total energy  :  -281.9474365 Eh     change       -0.1243851E-04 Eh
 * total energy  :  -281.9474464 Eh     change       -0.9889841E-05 Eh
 * total energy  :  -281.9474551 Eh     change       -0.8623825E-05 Eh
 * total energy  :  -281.9474636 Eh     change       -0.8537918E-05 Eh
 * total energy  :  -281.9474702 Eh     change       -0.6636081E-05 Eh
 * total energy  :  -281.9474735 Eh     change       -0.3285027E-05 Eh
   *** GEOMETRY OPTIMIZATION CONVERGED AFTER 68 ITERATIONS ***

 final structure:
================
154
 xtb: 6.5.1 (b24c23e)
Co          24.26807351726831       -0.02599828277596       -0.02145075902557
C           20.85903381765246       -0.04577271846587       -0.02865472986095
C           21.52007622638117       -0.88879695857275       -0.89436824775030
C           20.84764649850119       -1.77364666941389       -1.79929818307739
C           21.81049356890133       -2.44368098185050       -2.47293532126529
C           23.06666538234785       -1.96596149507634       -1.97581743028041
N           22.88138222208704       -1.01001858799245       -1.01113011492916
C           24.28407011595142       -2.43471879252928       -2.41997453434342
C           25.49331006450931       -1.98468812241925       -1.94227945794548
C           26.75318501035937       -2.48314641014860       -2.40379508590083
C           27.70842856714012       -1.80905656426098       -1.72187302177230
N           25.67209406262313       -1.01397611085641       -0.98345766853918
C           27.02663814177491       -0.90215630262888       -0.84997444410523
C           27.69652484695778       -0.02161029313330        0.00186134675335
C           27.01307853302978        0.86170530741978        0.83992711732041
C           27.68069370550981        1.77801266239126        1.71290821479293
C           26.71453277488743        2.45912369685486        2.37209995805222
C           25.46230727933173        1.95284869675704        1.89840008500152
N           25.65657167105688        0.97304414106091        0.95192226047728
C           24.24569892815573        2.39889173821256        2.36085375058124
C           23.03572744305789        1.91317343198882        1.91459810502655
C           21.77202111699190        2.37763040483597        2.40511803100389
C           20.81995116756282        1.68919737963490        1.73471510299879
C           21.50645226441904        0.80791533114028        0.83690361413466
N           22.86571328487060        0.94799003699522        0.95633759921555
H           19.77539729431937       -0.05292724514696       -0.03021883625727
H           19.77578298849271       -1.85377181049335       -1.88830002586235
H           21.70515821905782       -3.19681033994110       -3.23774898835004
H           24.28957330550514       -3.20200087516584       -3.18538035271891
H           26.86823737488287       -3.24962619811297       -3.15358189821003
H           28.78059577326638       -1.90054607023108       -1.78953605757720
H           28.75162099797926        1.87171525782197        1.79551408024228
H           26.81739906639013        3.23418287501113        3.11480297186912
H           24.23899798845031        3.17300086882848        3.11933957839491
H           21.65468512898882        3.13435213641910        3.16462024008392
H           19.74689865444276        1.75525534764650        1.82087830130653
Co          64.61644365647616        0.00209529436900        0.00053195901237
C           68.00920275874014        0.02581586375922       -0.16722747194601
C           67.33866166745587        1.22672956289464       -0.25170857430610
C           67.99321965577302        2.49358809479735       -0.39707048033287
C           67.03632413438882        3.44184210651283       -0.26893156232399
C           65.79862866756257        2.75110504123412       -0.05875503984807
N           65.98728836137543        1.39394455867459       -0.08489391519738
C           64.60228990406542        3.38459790757641        0.20452994324343
C           63.40700340982172        2.71654600988175        0.34530659733284
C           62.15443509259749        3.37260059520798        0.56912051079604
C           61.19700358633870        2.41904211105143        0.48208118904993
N           63.22259866941504        1.36411754926654        0.16939114783629
C           61.87005316781957        1.18451669813644        0.21709251896817
C           61.20096910608129       -0.01616521441736       -0.03311446901202
C           61.88858374470384       -1.21723592215133       -0.22195869416425
C           61.23228958834207       -2.47302438521347       -0.42181750503206
C           62.19471668734157       -3.42474550540312       -0.38155268472910
C           63.43590048645552       -2.74342383743617       -0.17173588786845
N           63.23961016651069       -1.38332436067342       -0.10936955363716
C           64.64002981219559       -3.38662664995862        0.00775193583269
C           65.84186794677288       -2.72352029410114        0.13706976316079
C           67.10557100358623       -3.38781877428752        0.26201492840306
C           68.05714666537844       -2.42864181718011        0.18620247920937
C           67.37122198387090       -1.18009939718626        0.02923008039655
N           66.01273231657129       -1.36698414759409        0.03570181788793
H           69.09073182767260        0.03283900091112       -0.23408368261166
H           69.05255346917670        2.61658642060866       -0.55805775064606
H           67.13620532918478        4.51512407991269       -0.30565002658490
H           64.59909124314251        4.46538826750040        0.28413808243140
H           62.04322190863996        4.42980256241882        0.75035295513867
H           60.12821863715743        2.52262718540327        0.57991729431833
H           60.16894229575793       -2.59126230088628       -0.55558264403651
H           62.09443788540961       -4.49400124776309       -0.47949122249134
H           64.64661518111591       -4.47026418747040        0.02116351013069
H           67.22474321144705       -4.45387516235742        0.37416302930734
H           69.12985229355711       -2.53313735122087        0.22676205691719
C           30.32247160212928       -0.01534687858364        0.01677080105440
C           29.09995058411671       -0.02135720950966        0.01275335602335
C           31.67085995852815       -0.01211560379230        0.01828857059500
C           32.89364715060129       -0.00743051165675        0.01506792107159
C           43.79096618763705       -0.02918401391021       -0.00428693459726
C           42.56756414424173       -0.02847901609608       -0.01161557278035
C           45.13797420461226       -0.03320375359915       -0.00250854212517
C           46.36136969079733       -0.03788771373318       -0.00531361475418
C           57.22721888232228       -0.02993088704467       -0.08457489811570
C           56.00455473717158       -0.03357835732588       -0.08118467470535
C           58.57564563649828       -0.02400529500473       -0.07801156569823
C           59.79800005252365       -0.02099899467857       -0.06099306428841
Co          37.73139704129549       -0.00625529730246       -0.01069762226013
C           34.29611503906623       -0.00501904605155        0.00709854736953
C           34.97829668610880        0.88967236069050        0.83536208144306
C           34.30909479745717        1.81476427543287        1.69683697275692
C           35.27479796108434        2.52262107962525        2.32929067261906
C           36.52611883614510        2.02183664572509        1.85001634606283
N           36.33426567172130        1.01639354486992        0.93233131685646
C           37.74400096716146        2.50694011091634        2.27214186690100
C           38.95648177241838        2.03010526214537        1.82837551244137
C           40.21339842267546        2.53957765753286        2.28392912778861
C           41.17179727493155        1.82756284385235        1.64541910420495
N           39.13858268118668        1.01713888844731        0.91590310453580
C           40.49269932502303        0.89062063759732        0.80435975958103
C           41.16636216279553       -0.02114435983470       -0.01327528036942
C           40.48382071823904       -0.92258410449378       -0.83478485852462
C           41.15358456574828       -1.86082692288539       -1.68181531424038
C           40.18819038823591       -2.55508747049750       -2.32934699011305
C           38.93642763348256       -2.03527453092386       -1.87133868436365
N           39.12851470512077       -1.03210719940709       -0.95017060477768
C           37.71906488587474       -2.49720376578748       -2.31756182218016
C           36.50613574274500       -2.01211683919137       -1.88149484039013
C           35.24957802536425       -2.50875341755287       -2.35125153080887
C           34.29098580999518       -1.81180518412910       -1.69635428048511
C           34.96965917629203       -0.89453489529392       -0.83388315065575
N           36.32448458324099       -1.01698104109119       -0.95048620809562
H           33.23815346533831        1.89743010507884        1.78977221612638
H           35.17115259333955        3.31305535718380        3.05543216811494
H           37.74777710862760        3.30993809996927        3.00026675473909
H           40.32533286229718        3.33742253627473        3.00067085636704
H           42.24371028415496        1.91370736846004        1.72260125026049
H           42.22460547411583       -1.95899226071401       -1.75733476478818
H           40.29215024025812       -3.34835499677906       -3.05235412885933
H           37.71445065582055       -3.29235862762830       -3.05424013132505
H           35.13777620110618       -3.29043476993508       -3.08559876689158
H           33.21909587938855       -1.89587289774883       -1.77599546211447
Co          51.18232884276932       -0.03807119430820       -0.04085820519252
C           47.76218505740076       -0.04090024877642       -0.01082126309684
C           48.44889153363312        0.80331985847161        0.86744175608722
C           47.79372604092505        1.67213072820682        1.79601459418996
C           48.76038073485712        2.43282366853371        2.36352826006496
C           49.99929898254566        2.02332411144176        1.77626478392283
N           49.80009641243600        0.99170115415564        0.88857058155419
C           51.19816060914223        2.66537910258551        1.99424015093119
C           52.39045808244114        2.26945550531205        1.42749756825358
C           53.63364969684010        2.94504377485385        1.63888783653652
C           54.59041837585387        2.18628562797818        1.05203590971539
N           52.57657797775514        1.12697063377899        0.68597178505294
C           53.92541422272770        1.05187256245116        0.48923106840639
C           54.60238016980342       -0.03650936984650       -0.06879887546000
C           53.91869599689728       -1.12916685499480       -0.60970234760598
C           54.57659570646350       -2.26382326330731       -1.18030520616008
C           53.61056724369777       -3.03168040687779       -1.73943892021418
C           52.36921545645104       -2.35997840289835       -1.50562388858436
N           52.56597314797543       -1.21315776923922       -0.77339884953720
C           51.16797196473570       -2.76142165592446       -2.04898238056542
C           49.97276915070773       -2.11713299628155       -1.81742997887947
C           48.72581258914715       -2.52543728640969       -2.38801923449166
C           47.76829221963782       -1.75894297891469       -1.81283017034629
C           48.43681856724279       -0.88891110239940       -0.89501078427598
N           49.78682886898645       -1.08306897442954       -0.92969543277858
H           46.72958393019706        1.69057028493984        1.96865502695378
H           48.66266419779427        3.21216436078542        3.10239997813771
H           51.20392352831224        3.53193843400402        2.64531272885355
H           53.74101433790434        3.87250140570133        2.17846027194651
H           55.65424684937175        2.35552383740548        1.00602137725191
H           55.64210077223413       -2.42713886711521       -1.15751806639069
H           53.71020301549704       -3.96217005975976       -2.27521892976866
H           51.16398433108367       -3.63170062583490       -2.69505226072147
H           48.61706079437373       -3.30655442697132       -3.12345997421904
H           46.70218059805298       -1.77467031655595       -1.97299774224805

          :  Hamiltonian                  GFN1-xTB          :
         :: total energy            -281.947473515387 Eh    ::
         :: gradient norm              0.000526638475 Eh/a0 ::
         :: HOMO-LUMO gap              0.001813453771 eV    ::
         :: SCC energy              -286.547009040570 Eh    ::
         :: repulsion energy           4.733934712492 Eh    ::

    * Orbital Energies and Occupations

         #    Occupation            Energy/Eh            Energy/eV
      -------------------------------------------------------------
         1        2.0000           -0.7750604             -21.0905
       ...           ...                  ...                  ...
       251        2.0000           -0.3971551             -10.8071
       252        1.9999           -0.3950081             -10.7487
       253        1.9999           -0.3947717             -10.7423
       254        1.9999           -0.3945246             -10.7356
       255        1.9999           -0.3944412             -10.7333
       256        1.9998           -0.3942723             -10.7287
       257        1.9998           -0.3942306             -10.7276
       258        1.9998           -0.3942296             -10.7275
       259        1.9998           -0.3940164             -10.7217
       260        1.9976           -0.3916458             -10.6572
       261        1.4773           -0.3862582             -10.5106
       262        1.1703           -0.3855979             -10.4927
       263        1.1430           -0.3855448             -10.4912 (HOMO)
       264        1.1085           -0.3854781             -10.4894 (LUMO)
       265        1.1044           -0.3854701             -10.4892
       266                         -0.3481260              -9.4730
       267                         -0.3401634              -9.2563
       268                         -0.3316818              -9.0255
       269                         -0.3315820              -9.0228
       270                         -0.3315184              -9.0211
       271                         -0.3289606              -8.9515
       272                         -0.3288944              -8.9497
       273                         -0.3260608              -8.8726
       274                         -0.3072520              -8.3608
       ...                                ...                  ...
       552                          1.5118448              41.1394
      -------------------------------------------------------------
                  HL-Gap            0.0000666 Eh            0.0018 eV

Wiberg/Mayer (AO) data.
largest (>0.10) Wiberg bond orders for each atom

     #   Z sym  total        # sym  WBO       # sym  WBO       # sym  WBO
 ---------------------------------------------------------------------------
     1  27 Co   2.984 --     7 N    0.633    25 N    0.633    12 N    0.628
                            19 N    0.628
     2   6 C    3.932 --    24 C    1.366     3 C    1.366    26 H    0.970
     3   6 C    3.924 --     2 C    1.366     7 N    1.208     4 C    1.170
     4   6 C    3.960 --     5 C    1.655     3 C    1.170    27 H    0.975
     5   6 C    3.962 --     4 C    1.655     6 C    1.171    28 H    0.975
     6   6 C    3.921 --     8 C    1.359     7 N    1.211     5 C    1.171
     7   7 N    3.349 --     6 C    1.211     3 C    1.208     1 Co   0.633
     8   6 C    3.937 --     9 C    1.376     6 C    1.359    29 H    0.970
     9   6 C    3.917 --     8 C    1.376    12 N    1.190    10 C    1.174
    10   6 C    3.957 --    11 C    1.645     9 C    1.174    30 H    0.975
    11   6 C    3.961 --    10 C    1.645    13 C    1.184    31 H    0.973
    12   7 N    3.350 --    13 C    1.239     9 C    1.190     1 Co   0.628
    13   6 C    3.904 --    14 C    1.261    12 N    1.239    11 C    1.184
    14   6 C    3.937 --    13 C    1.261    15 C    1.261    74 C    1.190
    15   6 C    3.904 --    14 C    1.261    19 N    1.239    16 C    1.184
    16   6 C    3.961 --    17 C    1.645    15 C    1.184    32 H    0.973
    17   6 C    3.957 --    16 C    1.645    18 C    1.174    33 H    0.975
    18   6 C    3.917 --    20 C    1.376    19 N    1.190    17 C    1.174
    19   7 N    3.350 --    15 C    1.239    18 C    1.190     1 Co   0.628
    20   6 C    3.937 --    18 C    1.376    21 C    1.359    34 H    0.970
    21   6 C    3.921 --    20 C    1.359    25 N    1.211    22 C    1.171
    22   6 C    3.962 --    23 C    1.655    21 C    1.171    35 H    0.975
    23   6 C    3.960 --    22 C    1.655    24 C    1.170    36 H    0.975
    24   6 C    3.924 --     2 C    1.366    25 N    1.208    23 C    1.170
    25   7 N    3.349 --    21 C    1.211    24 C    1.208     1 Co   0.633
    26   1 H    1.000 --     2 C    0.970
    27   1 H    0.997 --     4 C    0.975
    28   1 H    0.997 --     5 C    0.975
    29   1 H    1.000 --     8 C    0.970
    30   1 H    0.997 --    10 C    0.975
    31   1 H    1.002 --    11 C    0.973
    32   1 H    1.002 --    16 C    0.973
    33   1 H    0.997 --    17 C    0.975
    34   1 H    1.000 --    20 C    0.970
    35   1 H    0.997 --    22 C    0.975
    36   1 H    0.997 --    23 C    0.975
    37  27 Co   3.014 --    43 N    0.637    61 N    0.637    48 N    0.632
                            55 N    0.632
    38   6 C    3.933 --    39 C    1.367    60 C    1.365    62 H    0.970
    39   6 C    3.924 --    38 C    1.367    43 N    1.205    40 C    1.169
    40   6 C    3.960 --    41 C    1.655    39 C    1.169    63 H    0.975
    41   6 C    3.962 --    40 C    1.655    42 C    1.171    64 H    0.975
    42   6 C    3.921 --    44 C    1.358    43 N    1.210    41 C    1.171
    43   7 N    3.350 --    42 C    1.210    39 C    1.205    37 Co   0.637
    44   6 C    3.938 --    45 C    1.377    42 C    1.358    65 H    0.970
    45   6 C    3.917 --    44 C    1.377    48 N    1.188    46 C    1.174
    46   6 C    3.957 --    47 C    1.645    45 C    1.174    66 H    0.975
    47   6 C    3.962 --    46 C    1.645    49 C    1.184    67 H    0.974
    48   7 N    3.351 --    49 C    1.238    45 C    1.188    37 Co   0.632
    49   6 C    3.904 --    50 C    1.260    48 N    1.238    47 C    1.184
    50   6 C    3.937 --    51 C    1.262    49 C    1.260    84 C    1.190
    51   6 C    3.904 --    50 C    1.262    55 N    1.236    52 C    1.184
    52   6 C    3.961 --    53 C    1.645    51 C    1.184    68 H    0.974
    53   6 C    3.957 --    52 C    1.645    54 C    1.175    69 H    0.975
    54   6 C    3.917 --    56 C    1.374    55 N    1.190    53 C    1.175
    55   7 N    3.351 --    51 C    1.236    54 C    1.190    37 Co   0.632
    56   6 C    3.938 --    54 C    1.374    57 C    1.361    70 H    0.970
    57   6 C    3.921 --    56 C    1.361    61 N    1.208    58 C    1.170
    58   6 C    3.962 --    59 C    1.655    57 C    1.170    71 H    0.975
    59   6 C    3.960 --    58 C    1.655    60 C    1.170    72 H    0.975
    60   6 C    3.924 --    38 C    1.365    61 N    1.207    59 C    1.170
    61   7 N    3.350 --    57 C    1.208    60 C    1.207    37 Co   0.637
    62   1 H    1.000 --    38 C    0.970
    63   1 H    0.997 --    40 C    0.975
    64   1 H    0.997 --    41 C    0.975
    65   1 H    1.000 --    44 C    0.970
    66   1 H    0.997 --    46 C    0.975
    67   1 H    1.002 --    47 C    0.974
    68   1 H    1.002 --    52 C    0.974
    69   1 H    0.997 --    53 C    0.975
    70   1 H    1.000 --    56 C    0.970
    71   1 H    0.997 --    58 C    0.975
    72   1 H    0.997 --    59 C    0.975
    73   6 C    3.932 --    74 C    2.467    75 C    1.315
    74   6 C    3.917 --    73 C    2.467    14 C    1.190    76 C    0.198
    75   6 C    3.927 --    76 C    2.464    73 C    1.315
    76   6 C    3.921 --    75 C    2.464    86 C    1.195    74 C    0.198
    77   6 C    3.925 --    78 C    2.455    79 C    1.322
    78   6 C    3.916 --    77 C    2.455    98 C    1.200    80 C    0.197
    79   6 C    3.925 --    80 C    2.455    77 C    1.322
    80   6 C    3.916 --    79 C    2.455   121 C    1.200    78 C    0.197
    81   6 C    3.926 --    82 C    2.465    83 C    1.314
    82   6 C    3.920 --    81 C    2.465   133 C    1.194    84 C    0.198
    83   6 C    3.932 --    84 C    2.468    81 C    1.314
    84   6 C    3.917 --    83 C    2.468    50 C    1.190    82 C    0.198
    85  27 Co   2.939 --   109 N    0.619    91 N    0.619    96 N    0.619
                           103 N    0.618
    86   6 C    3.919 --    87 C    1.257   108 C    1.256    76 C    1.195
    87   6 C    3.905 --    86 C    1.257    91 N    1.242    88 C    1.187
    88   6 C    3.960 --    89 C    1.640    87 C    1.187   110 H    0.973
    89   6 C    3.958 --    88 C    1.640    90 C    1.178   111 H    0.975
    90   6 C    3.915 --    92 C    1.365    91 N    1.196    89 C    1.178
    91   7 N    3.339 --    87 C    1.242    90 C    1.196    85 Co   0.619
    92   6 C    3.927 --    93 C    1.370    90 C    1.365   112 H    0.970
    93   6 C    3.916 --    92 C    1.370    96 N    1.193    94 C    1.177
    94   6 C    3.958 --    95 C    1.641    93 C    1.177   113 H    0.975
    95   6 C    3.960 --    94 C    1.641    97 C    1.186   114 H    0.973
    96   7 N    3.338 --    97 C    1.245    93 C    1.193    85 Co   0.619
    97   6 C    3.904 --    98 C    1.253    96 N    1.245    95 C    1.186
    98   6 C    3.918 --    99 C    1.254    97 C    1.253    78 C    1.200
    99   6 C    3.905 --    98 C    1.254   103 N    1.245   100 C    1.186
   100   6 C    3.960 --   101 C    1.641    99 C    1.186   115 H    0.973
   101   6 C    3.958 --   100 C    1.641   102 C    1.177   116 H    0.975
   102   6 C    3.916 --   104 C    1.370   103 N    1.193   101 C    1.177
   103   7 N    3.338 --    99 C    1.245   102 C    1.193    85 Co   0.618
   104   6 C    3.927 --   102 C    1.370   105 C    1.365   117 H    0.970
   105   6 C    3.915 --   104 C    1.365   109 N    1.196   106 C    1.178
   106   6 C    3.958 --   107 C    1.640   105 C    1.178   118 H    0.975
   107   6 C    3.960 --   106 C    1.640   108 C    1.187   119 H    0.973
   108   6 C    3.905 --    86 C    1.256   109 N    1.242   107 C    1.187
   109   7 N    3.339 --   108 C    1.242   105 C    1.196    85 Co   0.619
   110   1 H    1.002 --    88 C    0.973
   111   1 H    0.997 --    89 C    0.975
   112   1 H    1.000 --    92 C    0.970
   113   1 H    0.997 --    94 C    0.975
   114   1 H    1.002 --    95 C    0.973
   115   1 H    1.002 --   100 C    0.973
   116   1 H    0.997 --   101 C    0.975
   117   1 H    1.000 --   104 C    0.970
   118   1 H    0.997 --   106 C    0.975
   119   1 H    1.002 --   107 C    0.973
   120  27 Co   2.978 --   138 N    0.625   131 N    0.624   126 N    0.624
                           144 N    0.624
   121   6 C    3.918 --   122 C    1.253   143 C    1.253    80 C    1.200
   122   6 C    3.904 --   121 C    1.253   126 N    1.243   123 C    1.186
   123   6 C    3.960 --   124 C    1.641   122 C    1.186   145 H    0.974
   124   6 C    3.958 --   123 C    1.641   125 C    1.177   146 H    0.975
   125   6 C    3.916 --   127 C    1.370   126 N    1.190   124 C    1.177
   126   7 N    3.339 --   122 C    1.243   125 C    1.190   120 Co   0.624
   127   6 C    3.927 --   125 C    1.370   128 C    1.364   147 H    0.970
   128   6 C    3.915 --   127 C    1.364   131 N    1.194   129 C    1.179
   129   6 C    3.958 --   130 C    1.640   128 C    1.179   148 H    0.975
   130   6 C    3.960 --   129 C    1.640   132 C    1.187   149 H    0.974
   131   7 N    3.341 --   132 C    1.239   128 C    1.194   120 Co   0.624
   132   6 C    3.905 --   133 C    1.256   131 N    1.239   130 C    1.187
   133   6 C    3.919 --   134 C    1.257   132 C    1.256    82 C    1.194
   134   6 C    3.905 --   133 C    1.257   138 N    1.239   135 C    1.187
   135   6 C    3.960 --   136 C    1.640   134 C    1.187   150 H    0.974
   136   6 C    3.958 --   135 C    1.640   137 C    1.179   151 H    0.975
   137   6 C    3.915 --   139 C    1.365   138 N    1.194   136 C    1.179
   138   7 N    3.340 --   134 C    1.239   137 C    1.194   120 Co   0.625
   139   6 C    3.927 --   140 C    1.369   137 C    1.365   152 H    0.970
   140   6 C    3.916 --   139 C    1.369   144 N    1.190   141 C    1.178
   141   6 C    3.958 --   142 C    1.641   140 C    1.178   153 H    0.975
   142   6 C    3.960 --   141 C    1.641   143 C    1.186   154 H    0.974
   143   6 C    3.904 --   121 C    1.253   144 N    1.243   142 C    1.186
   144   7 N    3.339 --   143 C    1.243   140 C    1.190   120 Co   0.624
   145   1 H    1.002 --   123 C    0.974
   146   1 H    0.997 --   124 C    0.975
   147   1 H    1.000 --   127 C    0.970
   148   1 H    0.997 --   129 C    0.975
   149   1 H    1.002 --   130 C    0.974
   150   1 H    1.002 --   135 C    0.974
   151   1 H    0.997 --   136 C    0.975
   152   1 H    1.000 --   139 C    0.970
   153   1 H    0.997 --   141 C    0.975
   154   1 H    1.002 --   142 C    0.974
 ---------------------------------------------------------------------------

           -------------------------------------------------
          | TOTAL ENERGY             -281.947473515387 Eh   |
          | GRADIENT NORM               0.000526638475 Eh/α |
          | HOMO-LUMO GAP               0.001813453771 eV   |
           -------------------------------------------------

 * finished run on 2022/07/29 at 22:11:18.950
