   * xtb version 6.5.1 (b24c23e) compiled by 'conda@728c89f4b128' on 2022-07-12
          program call               : xtb H_C10_2.xyz --gfn 1 --opt -T 48

   ID    Z sym.   atoms
    1    6 C      1-5, 7-10, 12-17, 19-23, 38-42, 44-47, 49-54, 56-60, 75-84
    2    7 N      6, 11, 18, 24, 43, 48, 55, 61
    3    1 H      25-37, 62-74
########################################################################
[WARNING] Please study the warnings concerning your input carefully
-1- prog_main_parseArguments: Unknown option '-T' provided
########################################################################

          :  Hamiltonian                  GFN1-xTB          :
 * total energy  :  -142.2191804 Eh     change       -0.2599165E-09 Eh
 * total energy  :  -144.6110114 Eh     change       -0.2391831E+01 Eh
 * total energy  :  -144.8175319 Eh     change       -0.2065205E+00 Eh
 * total energy  :  -144.8866735 Eh     change       -0.6914152E-01 Eh
 * total energy  :  -144.9026188 Eh     change       -0.1594538E-01 Eh
 * total energy  :  -144.9070582 Eh     change       -0.4439385E-02 Eh
 * total energy  :  -144.9082247 Eh     change       -0.1166437E-02 Eh
 * total energy  :  -144.9079099 Eh     change        0.3147970E-03 Eh
 * total energy  :  -144.9089928 Eh     change       -0.1082961E-02 Eh
 * total energy  :  -144.9076610 Eh     change        0.1331861E-02 Eh
 * total energy  :  -144.9094967 Eh     change       -0.6569410E-04 Eh
 * total energy  :  -144.9095627 Eh     change       -0.6598234E-04 Eh
 * total energy  :  -144.9096073 Eh     change       -0.4461996E-04 Eh
 * total energy  :  -144.9096302 Eh     change       -0.2284319E-04 Eh
 * total energy  :  -144.9096457 Eh     change       -0.1552360E-04 Eh
 * total energy  :  -144.9096590 Eh     change       -0.1331387E-04 Eh
 * total energy  :  -144.9096691 Eh     change       -0.1013371E-04 Eh
 * total energy  :  -144.9096761 Eh     change       -0.6909959E-05 Eh
 * total energy  :  -144.9096791 Eh     change       -0.3056656E-05 Eh
   *** GEOMETRY OPTIMIZATION CONVERGED AFTER 22 ITERATIONS ***

 final structure:
================
84
 xtb: 6.5.1 (b24c23e)
C            0.50822977672963       -0.09112663252641       -0.00301457756282
C            1.14298555075666       -1.32505489124552       -0.06844036311022
C            0.53946457458204       -2.61373353903971       -0.13503181512090
C            1.53916620732797       -3.54412108971846       -0.18522984222439
C            2.78458049147082       -2.85341823764891       -0.15072600781475
N            2.49452987186288       -1.52149626704096       -0.08062763841459
C            4.05815052967969       -3.40951393311632       -0.18099263868419
C            5.27160414250874       -2.73794024693632       -0.14595784960255
C            6.55605150732452       -3.41440822822227       -0.18117918819368
C            7.49685835429670       -2.44883083058315       -0.12948949951090
N            5.45248254168448       -1.39087116460259       -0.07496073210113
C            6.78326598624079       -1.18613573793305       -0.06336829609899
C            7.42783789494168        0.06742891238255        0.00217801289176
C            6.76799184712555        1.30920831738315        0.06462527604542
C            7.36572413412412        2.59687645766383        0.13023706161583
C            6.36186659104267        3.52456418225031        0.17713918239985
C            5.12073952740088        2.82920329200000        0.14178842472342
N            5.41878594055402        1.49493919645021        0.07368109185852
C            3.84844060309726        3.38621982813392        0.17137895255588
C            2.63349757443751        2.71276085246753        0.13856733981630
C            1.34259242329157        3.38251356734129        0.17555436983363
C            0.40799665439521        2.41204614989606        0.12720349922144
C            1.12880064091417        1.15075127708796        0.06054319437758
N            2.46515841228175        1.37137903096138        0.06957933042787
H           -0.57648805731957       -0.10813889806428       -0.00213724856845
H           -0.52437319415042       -2.79046007205757       -0.14272116688406
H            1.43681859515288       -4.61628122047980       -0.24118512733530
H            3.18393348846608       -0.77824940593112       -0.04260303170375
H            4.09891553873215       -4.49257275299496       -0.23795768476575
H            6.68688044820689       -4.48366698944927       -0.23770668219801
H            8.57038931150580       -2.55120362839761       -0.13443032860517
H            8.42875025969037        2.77719558489878        0.13959656960888
H            6.46049687944628        4.59700517646903        0.23164879428039
H            4.73201733069973        0.74893883193880        0.03579549264594
H            3.80962589226155        4.46937843947792        0.22694689506509
H            1.20573869262599        4.45126991390078        0.23117234267067
H           -0.66677570117017        2.50594078999974        0.13417045128207
C           28.65561109554389        0.09106593155481       -0.01646139173367
C           28.02089395752453        1.30658327118710       -0.23882975745175
C           28.62439570207632        2.57589041343213       -0.47112808169286
C           27.62464187558264        3.49239315487190       -0.63864531335039
C           26.37923408815103        2.81210782105549       -0.51403148249502
N           26.66931322010666        1.50014715469014       -0.27411662032178
C           25.10571759567798        3.36016617989259       -0.61398099748500
C           23.89216660542224        2.69882560422706       -0.49331385592135
C           22.60778203463394        3.36529773528203       -0.61464604071476
C           21.66693552126659        2.41402387211855       -0.44135074931588
N           23.71119273112193        1.37165493123782       -0.25161188233845
C           22.38045367064160        1.17001399396022       -0.21482157092953
C           21.73542242568248       -0.06483975958171        0.00974771642439
C           22.39498922815960       -1.28827406942382        0.23207439084841
C           21.79743521240458       -2.55680678092243        0.46314607558409
C           22.80143351959528       -3.47025493757872        0.63086469615549
C           24.04251924976259       -2.78502669010727        0.50679900305666
N           23.74430489342182       -1.47090922387270        0.26630077745820
C           25.31480943390173       -3.33353703148082        0.60828802628614
C           26.52986916076221       -2.67028728371720        0.48782890562856
C           27.82068184849491       -3.33034452403218        0.60893586262706
C           28.75547380631268       -2.37467314493257        0.43442966826162
C           28.03494740633973       -1.13210219165293        0.20709884822590
N           26.69850920772038       -1.34909769502888        0.24640125808815
H           29.74033353907108        0.10772167853741       -0.01938949124223
H           29.68822200068530        2.74992282420375       -0.50316093735213
H           27.72676527068134        4.54849451026585       -0.83192605241781
H           25.98045681863385        0.76757967234859       -0.14002825266156
H           25.06523751047175        4.42712195856479       -0.80864114635957
H           22.47683897035878        4.41871595351344       -0.80645163386120
H           20.59343303467249        2.51502846453822       -0.45983000713752
H           20.73443130670212       -2.73476185417516        0.49468792975709
H           22.70295447930603       -4.52662242296924        0.82382683995873
H           24.43040316053320       -0.73534586821207        0.13279747192996
H           25.35358510052174       -4.40040617449408        0.80353760693687
H           27.95722853225272       -4.38314151358133        0.80137508019735
H           29.83022986632095       -2.46746747285521        0.45160357739693
C            8.83153760583735        0.08623681077741        0.00618582034915
C           10.05671719458143        0.08624133086631        0.00753834649940
C           11.39827603471150        0.07490120657223        0.01091267574094
C           12.63000446572857        0.04818374846708        0.01170100117962
C           13.96517241165042        0.02234483131683        0.01469020517964
C           15.19832335814056       -0.01133290654765        0.01547857537722
C           16.53341245149418       -0.03715816984622        0.01715123076612
C           17.76507049846973       -0.06555825880839        0.01696193236055
C           19.10651036169113       -0.07862387451764        0.01445608945668
C           20.33174327494063       -0.08256023985993        0.01438609021295

          :  Hamiltonian                  GFN1-xTB          :
         :: total energy            -144.909679113399 Eh    ::
         :: gradient norm              0.000946400040 Eh/a0 ::
         :: HOMO-LUMO gap              1.063153780735 eV    ::
         :: SCC energy              -147.514062187808 Eh    ::
         :: repulsion energy           2.667450235737 Eh    ::

    * Orbital Energies and Occupations

         #    Occupation            Energy/Eh            Energy/eV
      -------------------------------------------------------------
         1        2.0000           -0.8046312             -21.8951
       ...           ...                  ...                  ...
       121        2.0000           -0.4224425             -11.4952
       122        2.0000           -0.4213350             -11.4651
       123        2.0000           -0.4213089             -11.4644
       124        2.0000           -0.4171751             -11.3519
       125        2.0000           -0.4170959             -11.3498
       126        2.0000           -0.4168201             -11.3423
       127        2.0000           -0.4167466             -11.3403
       128        2.0000           -0.4106930             -11.1755
       129        2.0000           -0.4032472             -10.9729
       130        2.0000           -0.3997319             -10.8773
       131        2.0000           -0.3996197             -10.8742
       132        2.0000           -0.3884404             -10.5700
       133        2.0000           -0.3811747             -10.3723 (HOMO)
       134                         -0.3421045              -9.3091 (LUMO)
       135                         -0.3340090              -9.0888
       136                         -0.3315556              -9.0221
       137                         -0.3313776              -9.0172
       138                         -0.3097703              -8.4293
       139                         -0.3063405              -8.3359
       140                         -0.2951269              -8.0308
       141                         -0.2824781              -7.6866
       142                         -0.2437178              -6.6319
       143                         -0.2386071              -6.4928
       144                         -0.2311324              -6.2894
       ...                                ...                  ...
       284                          1.6184955              44.0415
      -------------------------------------------------------------
                  HL-Gap            0.0390702 Eh            1.0632 eV

Wiberg/Mayer (AO) data.
largest (>0.10) Wiberg bond orders for each atom

     #   Z sym  total        # sym  WBO       # sym  WBO       # sym  WBO
 ---------------------------------------------------------------------------
     1   6 C    3.930 --    23 C    1.364     2 C    1.349    25 H    0.972
     2   6 C    3.903 --     1 C    1.349     3 C    1.225     6 N    1.172
     3   6 C    3.954 --     4 C    1.602     2 C    1.225    26 H    0.977
     4   6 C    3.958 --     3 C    1.602     5 C    1.227    27 H    0.977
     5   6 C    3.897 --     7 C    1.342     4 C    1.227     6 N    1.174
     6   7 N    3.472 --     5 C    1.174     2 C    1.172    28 H    0.873
     7   6 C    3.945 --     8 C    1.379     5 C    1.342    29 H    0.971
     8   6 C    3.915 --     7 C    1.379    11 N    1.277     9 C    1.119
     9   6 C    3.965 --    10 C    1.717     8 C    1.119    30 H    0.976
    10   6 C    3.964 --     9 C    1.717    12 C    1.124    31 H    0.975
    11   7 N    3.027 --    12 C    1.354     8 C    1.277
    12   6 C    3.907 --    11 N    1.354    13 C    1.249    10 C    1.124
    13   6 C    3.943 --    14 C    1.253    12 C    1.249    75 C    1.196
    14   6 C    3.884 --    13 C    1.253    15 C    1.244    18 N    1.193
    15   6 C    3.959 --    16 C    1.590    14 C    1.244    32 H    0.975
    16   6 C    3.953 --    15 C    1.590    17 C    1.232    33 H    0.977
    17   6 C    3.899 --    19 C    1.351    16 C    1.232    18 N    1.161
    18   7 N    3.476 --    14 C    1.193    17 C    1.161    34 H    0.873
    19   6 C    3.930 --    20 C    1.363    17 C    1.351    35 H    0.971
    20   6 C    3.930 --    19 C    1.363    24 N    1.309    21 C    1.112
    21   6 C    3.967 --    22 C    1.730    20 C    1.112    36 H    0.976
    22   6 C    3.966 --    21 C    1.730    23 C    1.113    37 H    0.976
    23   6 C    3.929 --     1 C    1.364    24 N    1.307    22 C    1.113
    24   7 N    3.016 --    20 C    1.309    23 C    1.307
    25   1 H    1.002 --     1 C    0.972
    26   1 H    0.998 --     3 C    0.977
    27   1 H    0.998 --     4 C    0.977
    28   1 H    0.986 --     6 N    0.873
    29   1 H    1.002 --     7 C    0.971
    30   1 H    0.998 --     9 C    0.976
    31   1 H    1.002 --    10 C    0.975
    32   1 H    1.001 --    15 C    0.975
    33   1 H    0.998 --    16 C    0.977
    34   1 H    0.987 --    18 N    0.873
    35   1 H    1.002 --    19 C    0.971
    36   1 H    0.998 --    21 C    0.976
    37   1 H    0.998 --    22 C    0.976
    38   6 C    3.930 --    60 C    1.364    39 C    1.349    62 H    0.972
    39   6 C    3.903 --    38 C    1.349    40 C    1.225    43 N    1.172
    40   6 C    3.954 --    41 C    1.602    39 C    1.225    63 H    0.977
    41   6 C    3.958 --    40 C    1.602    42 C    1.227    64 H    0.977
    42   6 C    3.897 --    44 C    1.342    41 C    1.227    43 N    1.174
    43   7 N    3.472 --    42 C    1.174    39 C    1.172    65 H    0.873
    44   6 C    3.945 --    45 C    1.380    42 C    1.342    66 H    0.971
    45   6 C    3.915 --    44 C    1.380    48 N    1.277    46 C    1.119
    46   6 C    3.965 --    47 C    1.717    45 C    1.119    67 H    0.976
    47   6 C    3.964 --    46 C    1.717    49 C    1.124    68 H    0.974
    48   7 N    3.027 --    49 C    1.354    45 C    1.277
    49   6 C    3.907 --    48 N    1.354    50 C    1.249    47 C    1.124
    50   6 C    3.943 --    51 C    1.253    49 C    1.249    84 C    1.196
    51   6 C    3.884 --    50 C    1.253    52 C    1.244    55 N    1.193
    52   6 C    3.959 --    53 C    1.590    51 C    1.244    69 H    0.975
    53   6 C    3.953 --    52 C    1.590    54 C    1.232    70 H    0.977
    54   6 C    3.899 --    56 C    1.351    53 C    1.232    55 N    1.161
    55   7 N    3.476 --    51 C    1.193    54 C    1.161    71 H    0.873
    56   6 C    3.930 --    57 C    1.363    54 C    1.351    72 H    0.971
    57   6 C    3.930 --    56 C    1.363    61 N    1.309    58 C    1.112
    58   6 C    3.967 --    59 C    1.730    57 C    1.112    73 H    0.976
    59   6 C    3.966 --    58 C    1.730    60 C    1.113    74 H    0.976
    60   6 C    3.929 --    38 C    1.364    61 N    1.307    59 C    1.113
    61   7 N    3.016 --    57 C    1.309    60 C    1.307
    62   1 H    1.002 --    38 C    0.972
    63   1 H    0.998 --    40 C    0.977
    64   1 H    0.998 --    41 C    0.977
    65   1 H    0.986 --    43 N    0.873
    66   1 H    1.002 --    44 C    0.971
    67   1 H    0.998 --    46 C    0.976
    68   1 H    1.002 --    47 C    0.974
    69   1 H    1.001 --    52 C    0.975
    70   1 H    0.998 --    53 C    0.977
    71   1 H    0.987 --    55 N    0.873
    72   1 H    1.002 --    56 C    0.971
    73   1 H    0.998 --    58 C    0.976
    74   1 H    0.998 --    59 C    0.976
    75   6 C    3.871 --    76 C    2.431    13 C    1.196    78 C    0.184
    76   6 C    3.933 --    75 C    2.431    77 C    1.350
    77   6 C    3.879 --    78 C    2.320    76 C    1.350    80 C    0.178
    78   6 C    3.924 --    77 C    2.320    79 C    1.384    75 C    0.184
    79   6 C    3.892 --    80 C    2.297    78 C    1.384    82 C    0.178
    80   6 C    3.893 --    79 C    2.297    81 C    1.384    77 C    0.178
    81   6 C    3.924 --    82 C    2.319    80 C    1.384    84 C    0.184
    82   6 C    3.879 --    81 C    2.319    83 C    1.351    79 C    0.178
    83   6 C    3.933 --    84 C    2.431    82 C    1.351
    84   6 C    3.871 --    83 C    2.431    50 C    1.196    81 C    0.184
 ---------------------------------------------------------------------------

           -------------------------------------------------
          | TOTAL ENERGY             -144.909679113399 Eh   |
          | GRADIENT NORM               0.000946400040 Eh/α |
          | HOMO-LUMO GAP               1.063153780735 eV   |
           -------------------------------------------------

 * finished run on 2022/07/26 at 18:24:32.347
