   * xtb version 6.5.1 (b24c23e) compiled by 'conda@728c89f4b128' on 2022-07-12
          program call               : xtb Co_Ph2Me_C8_2.xyz --gfn 1 --opt -T 48

   ID    Z sym.   atoms
    1   27 Co     1, 69
    2    6 C      2-6, 8-11, 13-31, 34-41, 70-74, 76-79, 81-99, 102-109,
                  137-144
    3    7 N      7, 12, 32, 33, 75, 80, 100, 101
    4    1 H      42-68, 110-136
########################################################################
[WARNING] Please study the warnings concerning your input carefully
-1- prog_main_parseArguments: Unknown option '-T' provided
########################################################################

          :  Hamiltonian                  GFN1-xTB          :
 * total energy  :  -229.6612749 Eh     change        0.4952597E-08 Eh
 * total energy  :  -230.4167043 Eh     change       -0.7554294E+00 Eh
 * total energy  :  -230.5441400 Eh     change       -0.1274357E+00 Eh
 * total energy  :  -230.5978733 Eh     change       -0.5373330E-01 Eh
 * total energy  :  -230.6195029 Eh     change       -0.2162963E-01 Eh
 * total energy  :  -230.6304224 Eh     change       -0.1091943E-01 Eh
 * total energy  :  -230.6380974 Eh     change       -0.7675034E-02 Eh
 * total energy  :  -230.6437099 Eh     change       -0.5612440E-02 Eh
 * total energy  :  -230.6477253 Eh     change       -0.4015487E-02 Eh
 * total energy  :  -230.6508042 Eh     change       -0.3078905E-02 Eh
 * total energy  :  -230.6614565 Eh     change       -0.1657219E-04 Eh
 * total energy  :  -230.6614704 Eh     change       -0.1395205E-04 Eh
 * total energy  :  -230.6614842 Eh     change       -0.1374756E-04 Eh
 * total energy  :  -230.6615012 Eh     change       -0.1705376E-04 Eh
 * total energy  :  -230.6615221 Eh     change       -0.2087242E-04 Eh
 * total energy  :  -230.6615430 Eh     change       -0.2090750E-04 Eh
 * total energy  :  -230.6615607 Eh     change       -0.1774002E-04 Eh
 * total energy  :  -230.6615758 Eh     change       -0.1503158E-04 Eh
 * total energy  :  -230.6615793 Eh     change       -0.3503333E-05 Eh
   *** GEOMETRY OPTIMIZATION CONVERGED AFTER 68 ITERATIONS ***

 final structure:
================
144
 xtb: 6.5.1 (b24c23e)
Co          12.96436720508366        0.13136389149413       -0.25694830039063
C            9.66492924452242        0.34105548402192       -0.88559313175708
C           10.25933040873737        1.37205116695074       -0.18862331017663
C            9.54746677644379        2.49664945628548        0.33688664420662
C           10.47023494234468        3.31382695916510        0.89706507413485
C           11.75070628563517        2.70912281455682        0.67136291975456
N           11.60148792996952        1.48371720409111        0.06972117077081
C           12.96370374115711        3.34885119486080        0.88358723528333
C           14.17115778938054        2.74402633522373        0.56247462354788
C           15.43417079793363        3.41726993678638        0.57668631883413
C           16.37488821723155        2.49186668911837        0.26857453211279
N           14.33550706226605        1.42368564828627        0.21778695873925
C           15.68618780419269        1.25375087352350        0.08660885489065
C           16.33686215561664        0.02317886316147       -0.02688543820788
C           15.63113911151548       -1.18091215545680       -0.09518860074752
C           16.25602711406210       -2.46449619646205       -0.04972513669335
C           15.27445067257975       -3.38094257665919       -0.22700109124639
C           14.05497180907997       -2.65146067340313       -0.40682043374056
C           12.88169008932694       -3.22210643246732       -0.87407001683388
C           12.85142429818166       -4.68470311331912       -1.12248005171737
C           12.76923943500617       -5.17242021158664       -2.42461646847548
C           12.76326463579620       -6.54303390773958       -2.66553990081594
C           12.66507715114760       -7.06242047756858       -4.07452459429739
C           12.83332336812397       -7.42340530482212       -1.59131561310940
C           12.91382840583636       -6.94991848173337       -0.28392955858573
C           13.00472114525911       -7.92048558633410        0.86249233841416
C           12.92611046589574       -5.57890990147555       -0.05543823564864
C           11.76506394649474       -2.45558200805735       -1.17976854475136
C           10.56544923199855       -2.97360017089973       -1.76887674310502
C            9.67966780095751       -1.95117831117980       -1.82040107982181
C           10.32576847341987       -0.81841412701042       -1.22966566246581
N           11.61635695222517       -1.12657193058490       -0.87746631852160
N           14.28153311547236       -1.29983332805889       -0.26903973129334
C           12.98052968604742        4.73835024785894        1.39623480100550
C           12.33581669510006        5.75803119627045        0.69695464576257
C           12.36206998430262        7.06525483902869        1.17027662966653
C           11.68586327032698        8.16654793453981        0.39918992728854
C           13.04021807915565        7.34921727851722        2.35191242480473
C           13.69214611950495        6.34331195761535        3.05939166915049
C           14.40795299730982        6.66185657479453        4.34417448252722
C           13.66026268128031        5.03995609940177        2.57595852086052
H            8.61032759194977        0.42118779892247       -1.12186558458622
H            8.47742740383068        2.62076984488292        0.28484358935321
H           10.31278283778548        4.24955991421226        1.40844738114206
H           15.57039318723231        4.46622550452454        0.78364309958187
H           17.44271657358399        2.61607394357117        0.18732584535312
H           17.31174291066700       -2.62581450208291        0.09803684807475
H           15.36041079604543       -4.45449590781064       -0.26880506574318
H           12.73124211117060       -4.47565174408291       -3.25478646312662
H           13.12125285639086       -8.04893571218246       -4.15831643297669
H           11.61589123336278       -7.14631743140131       -4.36705299925492
H           13.15762106393072       -6.38479787448648       -4.77233309730116
H           12.82908281559793       -8.49331831622223       -1.77289011652736
H           12.87717414662895       -7.41108669195474        1.81742504077009
H           12.24038738127385       -8.69352601011902        0.77131916301853
H           13.98063038767195       -8.41058362033526        0.86041267562999
H           12.98307915005753       -5.19574217224161        0.95746750893405
H           10.42867866044618       -3.99360883808952       -2.08956366149193
H            8.66656478592951       -1.95212066885751       -2.19015283967788
H           11.82901201044072        5.52909448141530       -0.23409918638523
H           11.27349188283470        8.91594414689657        1.07534426044917
H           10.88226270252443        7.77016529911297       -0.22158549207177
H           12.40891121048789        8.66070467133570       -0.25377201044546
H           13.06371489883525        8.36811511364873        2.72467508653033
H           13.69981847647781        6.65401581915606        5.17589952460994
H           14.86392317723480        7.65123657178212        4.29785205429357
H           15.18380976171428        5.92457358292595        4.55063327736734
H           14.15494253796571        4.24523353496855        3.12358420161469
Co          31.44493162952908        0.22346462204254       -0.20676655144649
C           34.73870415483127        0.79125618395700       -0.59142891494546
C           34.14929919928047       -0.16889554317833       -1.38692741482919
C           34.86485049210457       -0.98075926847597       -2.32311871312390
C           33.94662832409523       -1.75512154001859       -2.94790080827117
C           32.66468128219196       -1.38131600597461       -2.42537534517704
N           32.80943152957893       -0.45934492701411       -1.41788970238062
C           31.45276205813076       -1.77788337792055       -2.97288679096536
C           30.24321349418200       -1.30827639032167       -2.47904842515512
C           28.97996759820977       -1.52039859222242       -3.11783943860751
C           28.03790555354747       -0.96581951462140       -2.31714826915611
N           30.07717448012925       -0.60323962941912       -1.31103584867286
C           28.72589520008847       -0.43561339578488       -1.18316204965331
C           28.07405499266630        0.01847743162171       -0.03444518773858
C           28.77884125772673        0.42336446895005        1.10220991930697
C           28.15443684697405        0.73229737193916        2.34911951606850
C           29.13608876595613        1.15630673268029        3.18069912433742
C           30.35475381165248        1.13165524194211        2.42841655319096
C           31.52608138096922        1.74347352193839        2.84580959585561
C           31.55949951619942        2.37822531750267        4.18664892035349
C           31.63668853938409        3.76378992380586        4.30672792871601
C           31.64992071920051        4.36330583011430        5.56263164078734
C           31.74431174036118        5.86022676846792        5.68515455608424
C           31.59164408044450        3.56422657389109        6.69927916739964
C           31.51516495759705        2.17748912884843        6.59429026156533
C           31.43739867368579        1.33297107468259        7.83737358620644
C           31.49576610516375        1.58985601712544        5.33485801092361
C           32.63903039248955        1.83439904372706        2.02041212688353
C           33.83439633461694        2.55294736936188        2.35077191133884
C           34.71856920275290        2.32569945034409        1.35116488462902
C           34.07613294900873        1.43912017046575        0.42877273097519
N           32.78851297851416        1.17717187586121        0.82639134432192
N           30.12788901077502        0.62676286116689        1.16716978047513
C           31.43535221003318       -2.66669357929387       -4.15747910140152
C           32.07281439776408       -2.28836403755226       -5.33855431081888
C           32.04119500741673       -3.11692890625052       -6.45490043941145
C           32.70976178304414       -2.69395468001808       -7.73508592969342
C           31.36379016732829       -4.33063743642284       -6.38484488471596
C           30.71868068976575       -4.72063295251039       -5.21479812360018
C           30.00115103660555       -6.04170218370485       -5.14803166883590
C           30.75750535541845       -3.88441203449375       -4.10461952272704
H           35.79158222043487        1.00317025052653       -0.73631768162820
H           35.93420575652920       -0.95594474814710       -2.46090319876113
H           34.10820609054686       -2.50566033358024       -3.70450849389698
H           28.84418642203683       -2.01819885298489       -4.06409975118293
H           26.96965361771251       -0.92870158305625       -2.45753552079682
H           27.09908827049944        0.63255794202102        2.54585065411504
H           29.05063443139672        1.49128080193269        4.20158060447949
H           31.66559843175408        4.37707072785503        3.41276882642150
H           31.29617911552843        6.20331963392240        6.61779227306774
H           32.79250290756204        6.16789044660685        5.67757482577453
H           31.24204107771196        6.34987738555578        4.85049540482848
H           31.60210408830423        4.02602730947389        7.68128629486640
H           31.56405947271030        0.27662874633541        7.60127992152268
H           32.20845780071743        1.62897835642923        8.55010390301199
H           30.46605252245770        1.46509061455042        8.31862187357956
H           31.44229472838671        0.51109175026915        5.23761020242955
H           33.96950751891909        3.14556183517272        3.24099962242229
H           35.72858427414994        2.68894006669457        1.24623340664672
H           32.57723944012321       -1.32970015222345       -5.38985251019865
H           33.12309427957556       -3.55620513756981       -8.25906514622754
H           33.51152309106823       -1.98202601319622       -7.53873299769492
H           31.98175749980320       -2.21459719954460       -8.39355451601228
H           31.33496806419226       -4.97916641109743       -7.25446271642303
H           30.70792697296536       -6.83684489751032       -4.90009700670932
H           29.54435572667485       -6.28265507471614       -6.10833974393430
H           29.22552442542798       -6.02472117936548       -4.38229632033367
H           30.26870602508533       -4.18194900045556       -3.18335591732459
C           17.73949162343552       -0.00638165687036       -0.01459075128776
C           18.96390088996209       -0.02438361016320       -0.01232344614481
C           20.30612663312057       -0.03078308869293        0.00042107923254
C           21.53680909979760       -0.02537022633909        0.01338545948311
C           22.87430028982188       -0.01830072336778        0.01902658453806
C           24.10493397208864       -0.00231707421779        0.02564055846687
C           25.44712632369525        0.00940455473036        0.01740312243987
C           26.67149534863486        0.00922906689019       -0.00196343364940

          :  Hamiltonian                  GFN1-xTB          :
         :: total energy            -230.661579273613 Eh    ::
         :: gradient norm              0.000805634555 Eh/a0 ::
         :: HOMO-LUMO gap              0.006268384376 eV    ::
         :: SCC energy              -234.509481569222 Eh    ::
         :: repulsion energy           3.968401245251 Eh    ::

    * Orbital Energies and Occupations

         #    Occupation            Energy/Eh            Energy/eV
      -------------------------------------------------------------
         1        2.0000           -0.7691010             -20.9283
       ...           ...                  ...                  ...
       204        2.0000           -0.4141984             -11.2709
       205        2.0000           -0.4113605             -11.1937
       206        2.0000           -0.3946088             -10.7379
       207        2.0000           -0.3945570             -10.7364
       208        2.0000           -0.3942478             -10.7280
       209        2.0000           -0.3940070             -10.7215
       210        1.9998           -0.3903129             -10.6210
       211        1.9998           -0.3902895             -10.6203
       212        1.9998           -0.3901899             -10.6176
       213        1.9998           -0.3901686             -10.6170
       214        1.9973           -0.3876311             -10.5480
       215        1.9592           -0.3850482             -10.4777
       216        1.0826           -0.3815263             -10.3819 (HOMO)
       217        0.9616           -0.3812959             -10.3756 (LUMO)
       218                         -0.3347875              -9.1100
       219                         -0.3305458              -8.9946
       220                         -0.3251429              -8.8476
       221                         -0.3250621              -8.8454
       222                         -0.3007890              -8.1849
       223                         -0.3000858              -8.1657
       224                         -0.2907055              -7.9105
       225                         -0.2906763              -7.9097
       226                         -0.2855084              -7.7691
       227                         -0.2786713              -7.5830
       ...                                ...                  ...
       478                          1.6061212              43.7048
      -------------------------------------------------------------
                  HL-Gap            0.0002304 Eh            0.0063 eV

Wiberg/Mayer (AO) data.
largest (>0.10) Wiberg bond orders for each atom

     #   Z sym  total        # sym  WBO       # sym  WBO       # sym  WBO
 ---------------------------------------------------------------------------
     1  27 Co   3.068 --     7 N    0.643    33 N    0.640    32 N    0.640
                            12 N    0.636
     2   6 C    3.931 --    31 C    1.368     3 C    1.360    42 H    0.970
     3   6 C    3.925 --     2 C    1.360     7 N    1.205     4 C    1.176
     4   6 C    3.959 --     5 C    1.648     3 C    1.176    43 H    0.975
     5   6 C    3.963 --     4 C    1.648     6 C    1.176    44 H    0.973
     6   6 C    3.921 --     8 C    1.325     7 N    1.207     5 C    1.176
     7   7 N    3.347 --     6 C    1.207     3 C    1.205     1 Co   0.643
     8   6 C    3.936 --     6 C    1.325     9 C    1.323    34 C    1.029
     9   6 C    3.916 --     8 C    1.323    12 N    1.199    10 C    1.184
    10   6 C    3.959 --    11 C    1.635     9 C    1.184    45 H    0.973
    11   6 C    3.961 --    10 C    1.635    13 C    1.191    46 H    0.973
    12   7 N    3.353 --    13 C    1.224     9 C    1.199     1 Co   0.636
    13   6 C    3.904 --    14 C    1.262    12 N    1.224    11 C    1.191
    14   6 C    3.938 --    13 C    1.262    15 C    1.257   137 C    1.190
    15   6 C    3.904 --    14 C    1.257    33 N    1.233    16 C    1.190
    16   6 C    3.962 --    17 C    1.639    15 C    1.190    47 H    0.974
    17   6 C    3.959 --    16 C    1.639    18 C    1.180    48 H    0.973
    18   6 C    3.916 --    19 C    1.338    33 N    1.189    17 C    1.180
    19   6 C    3.935 --    18 C    1.338    28 C    1.318    20 C    1.019
    20   6 C    3.988 --    21 C    1.403    27 C    1.395    19 C    1.019
                            24 C    0.104
    21   6 C    3.987 --    22 C    1.412    20 C    1.403    49 H    0.972
                            25 C    0.104
    22   6 C    3.988 --    24 C    1.421    21 C    1.412    23 C    1.020
                            27 C    0.103
    23   6 C    3.995 --    22 C    1.020    50 H    0.983    52 H    0.982
                            51 H    0.971
    24   6 C    3.989 --    22 C    1.421    25 C    1.411    53 H    0.972
                            20 C    0.104
    25   6 C    3.988 --    27 C    1.421    24 C    1.411    26 C    1.020
                            21 C    0.104
    26   6 C    3.995 --    25 C    1.020    54 H    0.985    55 H    0.978
                            56 H    0.973
    27   6 C    3.987 --    25 C    1.421    20 C    1.395    57 H    0.972
                            22 C    0.103
    28   6 C    3.920 --    19 C    1.318    32 N    1.214    29 C    1.178
    29   6 C    3.963 --    30 C    1.649    28 C    1.178    58 H    0.973
    30   6 C    3.960 --    29 C    1.649    31 C    1.173    59 H    0.975
    31   6 C    3.925 --     2 C    1.368    32 N    1.199    30 C    1.173
    32   7 N    3.350 --    28 C    1.214    31 C    1.199     1 Co   0.640
    33   7 N    3.350 --    15 C    1.233    18 C    1.189     1 Co   0.640
    34   6 C    3.988 --    35 C    1.395    41 C    1.394     8 C    1.029
                            38 C    0.103
    35   6 C    3.986 --    36 C    1.417    34 C    1.395    60 H    0.971
                            39 C    0.103
    36   6 C    3.988 --    35 C    1.417    38 C    1.415    37 C    1.020
                            41 C    0.103
    37   6 C    3.995 --    36 C    1.020    62 H    0.984    61 H    0.982
                            63 H    0.971
    38   6 C    3.988 --    36 C    1.415    39 C    1.414    64 H    0.972
                            34 C    0.103
    39   6 C    3.988 --    41 C    1.418    38 C    1.414    40 C    1.020
                            35 C    0.103
    40   6 C    3.995 --    39 C    1.020    67 H    0.984    66 H    0.982
                            65 H    0.971
    41   6 C    3.985 --    39 C    1.418    34 C    1.394    68 H    0.972
                            36 C    0.103
    42   1 H    1.000 --     2 C    0.970
    43   1 H    0.998 --     4 C    0.975
    44   1 H    1.005 --     5 C    0.973
    45   1 H    1.004 --    10 C    0.973
    46   1 H    1.001 --    11 C    0.973
    47   1 H    1.001 --    16 C    0.974
    48   1 H    1.005 --    17 C    0.973
    49   1 H    1.002 --    21 C    0.972
    50   1 H    1.004 --    23 C    0.983
    51   1 H    1.006 --    23 C    0.971
    52   1 H    1.004 --    23 C    0.982
    53   1 H    1.000 --    24 C    0.972
    54   1 H    1.004 --    26 C    0.985
    55   1 H    1.005 --    26 C    0.978
    56   1 H    1.006 --    26 C    0.973
    57   1 H    1.002 --    27 C    0.972
    58   1 H    1.005 --    29 C    0.973
    59   1 H    0.998 --    30 C    0.975
    60   1 H    1.004 --    35 C    0.971
    61   1 H    1.004 --    37 C    0.982
    62   1 H    1.004 --    37 C    0.984
    63   1 H    1.006 --    37 C    0.971
    64   1 H    1.000 --    38 C    0.972
    65   1 H    1.006 --    40 C    0.971
    66   1 H    1.004 --    40 C    0.982
    67   1 H    1.004 --    40 C    0.984
    68   1 H    1.003 --    41 C    0.972
    69  27 Co   3.068 --    75 N    0.643   100 N    0.640   101 N    0.639
                            80 N    0.636
    70   6 C    3.931 --    99 C    1.368    71 C    1.360   110 H    0.970
    71   6 C    3.925 --    70 C    1.360    75 N    1.205    72 C    1.176
    72   6 C    3.959 --    73 C    1.648    71 C    1.176   111 H    0.975
    73   6 C    3.963 --    72 C    1.648    74 C    1.176   112 H    0.972
    74   6 C    3.921 --    76 C    1.325    75 N    1.207    73 C    1.176
    75   7 N    3.347 --    74 C    1.207    71 C    1.205    69 Co   0.643
    76   6 C    3.936 --    74 C    1.325    77 C    1.323   102 C    1.030
    77   6 C    3.916 --    76 C    1.323    80 N    1.199    78 C    1.184
    78   6 C    3.959 --    79 C    1.635    77 C    1.184   113 H    0.973
    79   6 C    3.961 --    78 C    1.635    81 C    1.191   114 H    0.973
    80   7 N    3.353 --    81 C    1.224    77 C    1.199    69 Co   0.636
    81   6 C    3.904 --    82 C    1.262    80 N    1.224    79 C    1.191
    82   6 C    3.938 --    81 C    1.262    83 C    1.257   144 C    1.190
    83   6 C    3.904 --    82 C    1.257   101 N    1.233    84 C    1.190
    84   6 C    3.962 --    85 C    1.639    83 C    1.190   115 H    0.974
    85   6 C    3.959 --    84 C    1.639    86 C    1.180   116 H    0.973
    86   6 C    3.916 --    87 C    1.338   101 N    1.189    85 C    1.180
    87   6 C    3.935 --    86 C    1.338    96 C    1.318    88 C    1.019
    88   6 C    3.988 --    89 C    1.403    95 C    1.395    87 C    1.019
                            92 C    0.104
    89   6 C    3.987 --    90 C    1.412    88 C    1.403   117 H    0.972
                            93 C    0.104
    90   6 C    3.988 --    92 C    1.421    89 C    1.412    91 C    1.020
                            95 C    0.103
    91   6 C    3.995 --    90 C    1.020   118 H    0.983   120 H    0.982
                           119 H    0.971
    92   6 C    3.989 --    90 C    1.421    93 C    1.410   121 H    0.972
                            88 C    0.104
    93   6 C    3.988 --    95 C    1.421    92 C    1.410    94 C    1.020
                            89 C    0.104
    94   6 C    3.995 --    93 C    1.020   122 H    0.985   123 H    0.978
                           124 H    0.973
    95   6 C    3.987 --    93 C    1.421    88 C    1.395   125 H    0.972
                            90 C    0.103
    96   6 C    3.920 --    87 C    1.318   100 N    1.214    97 C    1.178
    97   6 C    3.963 --    98 C    1.649    96 C    1.178   126 H    0.973
    98   6 C    3.960 --    97 C    1.649    99 C    1.173   127 H    0.975
    99   6 C    3.925 --    70 C    1.368   100 N    1.199    98 C    1.173
   100   7 N    3.350 --    96 C    1.214    99 C    1.199    69 Co   0.640
   101   7 N    3.350 --    83 C    1.233    86 C    1.189    69 Co   0.639
   102   6 C    3.988 --   103 C    1.395   109 C    1.394    76 C    1.030
                           106 C    0.102
   103   6 C    3.986 --   104 C    1.417   102 C    1.395   128 H    0.971
                           107 C    0.103
   104   6 C    3.988 --   103 C    1.417   106 C    1.415   105 C    1.020
                           109 C    0.103
   105   6 C    3.995 --   104 C    1.020   130 H    0.984   129 H    0.982
                           131 H    0.971
   106   6 C    3.988 --   104 C    1.415   107 C    1.414   132 H    0.972
                           102 C    0.102
   107   6 C    3.988 --   109 C    1.418   106 C    1.414   108 C    1.020
                           103 C    0.103
   108   6 C    3.995 --   107 C    1.020   135 H    0.984   134 H    0.982
                           133 H    0.971
   109   6 C    3.985 --   107 C    1.418   102 C    1.394   136 H    0.972
                           104 C    0.103
   110   1 H    1.000 --    70 C    0.970
   111   1 H    0.998 --    72 C    0.975
   112   1 H    1.005 --    73 C    0.972
   113   1 H    1.004 --    78 C    0.973
   114   1 H    1.001 --    79 C    0.973
   115   1 H    1.001 --    84 C    0.974
   116   1 H    1.005 --    85 C    0.973
   117   1 H    1.002 --    89 C    0.972
   118   1 H    1.004 --    91 C    0.983
   119   1 H    1.006 --    91 C    0.971
   120   1 H    1.004 --    91 C    0.982
   121   1 H    1.000 --    92 C    0.972
   122   1 H    1.004 --    94 C    0.985
   123   1 H    1.005 --    94 C    0.978
   124   1 H    1.006 --    94 C    0.973
   125   1 H    1.002 --    95 C    0.972
   126   1 H    1.005 --    97 C    0.973
   127   1 H    0.998 --    98 C    0.975
   128   1 H    1.004 --   103 C    0.971
   129   1 H    1.004 --   105 C    0.982
   130   1 H    1.004 --   105 C    0.984
   131   1 H    1.006 --   105 C    0.971
   132   1 H    1.000 --   106 C    0.972
   133   1 H    1.006 --   108 C    0.971
   134   1 H    1.004 --   108 C    0.982
   135   1 H    1.004 --   108 C    0.984
   136   1 H    1.003 --   109 C    0.972
   137   6 C    3.873 --   138 C    2.437    14 C    1.190   140 C    0.185
   138   6 C    3.932 --   137 C    2.437   139 C    1.345
   139   6 C    3.888 --   140 C    2.333   138 C    1.345   142 C    0.181
   140   6 C    3.922 --   139 C    2.333   141 C    1.370   137 C    0.185
   141   6 C    3.922 --   142 C    2.333   140 C    1.370   144 C    0.185
   142   6 C    3.888 --   141 C    2.333   143 C    1.345   139 C    0.181
   143   6 C    3.932 --   144 C    2.437   142 C    1.345
   144   6 C    3.873 --   143 C    2.437    82 C    1.190   141 C    0.185
 ---------------------------------------------------------------------------

           -------------------------------------------------
          | TOTAL ENERGY             -230.661579273613 Eh   |
          | GRADIENT NORM               0.000805634555 Eh/α |
          | HOMO-LUMO GAP               0.006268384376 eV   |
           -------------------------------------------------

 * finished run on 2022/07/30 at 01:14:26.562
