   * xtb version 6.5.1 (b24c23e) compiled by 'conda@728c89f4b128' on 2022-07-12
          program call               : xtb Ni_PhNO2_C2_2.xyz --gfn 1 --opt -T 48

   ID    Z sym.   atoms
    1   28 Ni     1, 61
    2    6 C      2-6, 8-12, 16-20, 22-27, 29-33, 37-42, 62-66, 68-72, 76-80,
                  82-87, 89-93, 97-102, 121, 122
    3    7 N      7, 13, 21, 28, 34, 43, 67, 73, 81, 88, 94, 103
    4    8 O      14, 15, 35, 36, 74, 75, 95, 96
    5    1 H      44-60, 104-120
########################################################################
[WARNING] Please study the warnings concerning your input carefully
-1- prog_main_parseArguments: Unknown option '-T' provided
########################################################################

          :  Hamiltonian                  GFN1-xTB          :
 * total energy  :  -241.2192550 Eh     change       -0.1104922E-08 Eh
 * total energy  :  -241.4100322 Eh     change       -0.1907772E+00 Eh
 * total energy  :  -241.4984395 Eh     change       -0.8840726E-01 Eh
 * total energy  :  -241.5186795 Eh     change       -0.2024007E-01 Eh
 * total energy  :  -241.5289815 Eh     change       -0.1030200E-01 Eh
 * total energy  :  -241.5321057 Eh     change       -0.3124122E-02 Eh
 * total energy  :  -241.5355677 Eh     change       -0.3462083E-02 Eh
 * total energy  :  -241.5369988 Eh     change       -0.1431061E-02 Eh
 * total energy  :  -241.5380872 Eh     change       -0.1088359E-02 Eh
 * total energy  :  -241.5386661 Eh     change       -0.5788856E-03 Eh
 * total energy  :  -241.5407560 Eh     change       -0.7298484E-05 Eh
 * total energy  :  -241.5407622 Eh     change       -0.6139390E-05 Eh
 * total energy  :  -241.5407689 Eh     change       -0.6759579E-05 Eh
 * total energy  :  -241.5407740 Eh     change       -0.5068833E-05 Eh
 * total energy  :  -241.5407819 Eh     change       -0.7869588E-05 Eh
 * total energy  :  -241.5407885 Eh     change       -0.6651840E-05 Eh
 * total energy  :  -241.5407944 Eh     change       -0.5871611E-05 Eh
 * total energy  :  -241.5408011 Eh     change       -0.6727336E-05 Eh
 * total energy  :  -241.5408027 Eh     change       -0.1593286E-05 Eh
   *** GEOMETRY OPTIMIZATION CONVERGED AFTER 44 ITERATIONS ***

 final structure:
================
122
 xtb: 6.5.1 (b24c23e)
Ni          17.23755659475753       -0.06059641737455       -0.03381786035977
C           13.85066125147911       -0.07136495690467       -0.16907001779373
C           14.50478299986827       -1.28585670293488       -0.17483667303269
C           13.83473905388444       -2.55043193755080       -0.19334998523070
C           14.79472823118524       -3.49677463619602       -0.31360078648088
C           16.05030265184944       -2.80711966279492       -0.38653503448495
N           15.86494793799787       -1.45479107702654       -0.25047363560185
C           17.26823468460577       -3.42722840614664       -0.63782062262835
C           17.28057902249105       -4.88399042219424       -0.89976196664066
C           18.00448140116672       -5.74569089920228       -0.07023991292541
C           18.00632495469051       -7.10892805718969       -0.30377990633985
C           17.28357249202186       -7.61426268809313       -1.38065542297957
N           17.27851254821239       -9.04578086122974       -1.62824339859916
O           16.63844143776551       -9.44656569795520       -2.56613461457724
O           17.91315952871627       -9.74293289334278       -0.87932232264183
C           16.56313711899297       -6.77272435453064       -2.22335278290320
C           16.56288005295274       -5.41189931346615       -1.97752143872771
C           18.47191689210246       -2.73312702894864       -0.66566184127871
C           19.72909671592580       -3.32468744984167       -1.01035756360753
C           20.67218517090050       -2.36841320746726       -0.83228364363353
N           18.64003083460605       -1.41120023354546       -0.32505753254723
C           19.99107809625617       -1.19702024327429       -0.38093454846417
C           20.64655874610678       -0.03717787663666        0.03975895184496
C           19.95700954583774        1.10672411741903        0.45020874964281
C           20.60057264477356        2.27658935444072        0.95682268682874
C           19.63544443641068        3.21294279244103        1.12243036932890
C           18.40380534662724        2.61334774772743        0.70653662932835
N           18.60627809437507        1.30174339790908        0.34450902374181
C           17.19640006413612        3.29640296524584        0.62186962848740
C           17.17998734292043        4.74863546845446        0.90692691901732
C           16.38710751331786        5.25738037376364        1.94015926917405
C           16.36593045498900        6.61420943375497        2.20699904404430
C           17.14044043780911        7.47098644449427        1.43019396353295
N           17.11669304741462        8.89788607964483        1.70178523026746
O           16.41203579797512        9.28250663637121        2.59925847335812
O           17.80230932829739        9.60771074560428        1.01199419630063
C           17.93591475024476        6.98510885958928        0.39647660762161
C           17.95424933459971        5.62602866036869        0.14146604018626
C           16.00458515280366        2.67245115986890        0.27332926957082
C           14.75368776526548        3.35565858860212        0.11290824399308
C           13.81513017762732        2.40672117953273       -0.11124941760002
C           14.49397109328248        1.14670071062091       -0.09819551620403
N           15.84173586251161        1.32229965010350        0.09512752344899
H           12.76811200555726       -0.07473985403287       -0.21644142939588
H           12.76645581630794       -2.67723226306755       -0.12139233532682
H           14.67621140289498       -4.56749231620551       -0.34840885722828
H           18.55276280684786       -5.34094721858432        0.77245788822101
H           18.55660180579159       -7.78592864186918        0.33853621741401
H           16.01362958664245       -7.19058441677903       -3.05827938256968
H           16.01471737660721       -4.74463683072111       -2.63233231235266
H           19.86242585021615       -4.33800557156449       -1.35228604194924
H           21.73607604724519       -2.43723279730816       -0.98973402827929
H           21.65559642429329        2.35637988736453        1.16167009050549
H           19.73833545600138        4.21789160459491        1.49785284902070
H           15.79730718789734        4.57856408201250        2.54500993487367
H           15.75894847468721        7.01734382112362        3.00871165731429
H           18.52656094412400        7.67357582187497       -0.19584416202352
H           18.55927718427745        5.23642960148761       -0.66892186861376
H           14.62395352820512        4.42446919825243        0.16305698324799
H           12.75567267597050        2.52843850424104       -0.27014348919297
Ni          28.09054181060160        0.06882612530980       -0.00847848964847
C           31.47742677699995        0.12956787763310       -0.13004451041554
C           30.82331786357746        1.25759521533550        0.32005987858470
C           31.49336276377194        2.43683485061983        0.77709995376237
C           30.53337486577114        3.35921981898331        1.02048228012834
C           29.27780143466001        2.74724435785519        0.69424406785645
N           29.46315336713475        1.44256920994942        0.31329365754003
C           28.05986653945105        3.41633037258379        0.69380702900142
C           28.04751257002753        4.86502391767164        0.99720625318851
C           27.32361073705924        5.35281357347727        2.08931338653158
C           27.32179273409679        6.70415246473069        2.38399692384299
C           28.04455202421142        7.57640513478277        1.57517897190356
N           28.04971173608766        8.99628965575096        1.88250045957431
O           28.68967758318794        9.71951705896003        1.16323849093824
O           27.41479643745053        9.36181626139698        2.83797707589439
C           28.76495421266342        7.11225375129425        0.47839581396241
C           28.76522008782099        5.75853703411167        0.19603750541818
C           26.85618856897182        2.78330695078130        0.40772430881802
C           25.59901031608534        3.46095584956754        0.30997597880232
C           24.65592208911053        2.50768102335452        0.11649042007098
N           26.68807455076596        1.43011134625069        0.22781604880535
C           25.33702762473342        1.25251236901205        0.09568396647934
C           24.68153957913151        0.01955073361963        0.05080463582068
C           25.37108725732230       -1.19479807905383        0.00240761739961
C           24.72753215515892       -2.46927415896358        0.03345308605457
C           25.69266379228782       -3.39940813352327       -0.16410740298919
C           26.92429549870844       -2.68761194521013       -0.32487091199630
N           26.72181519116477       -1.33595416822411       -0.16870994226171
C           28.13169501976384       -3.28907032243417       -0.65952237066163
C           28.14811962346448       -4.74224051285910       -0.93976090698688
C           28.94107744871062       -5.60124841188466       -0.17270720580666
C           28.96226628897125       -6.95914469075536       -0.43405854201425
C           28.18769694964077       -7.46219027611987       -1.47537758094446
N           28.21145467057406       -8.88682837330038       -1.75858654644255
O           28.91615979051135       -9.57987361755161       -1.07083212859700
O           27.52577990426291       -9.28625703845618       -2.66415010323359
C           27.39214254758634       -6.62419889647515       -2.25145385096791
C           27.37378862156483       -5.26865264460517       -1.97828553005462
C           29.32349020398231       -2.57992697704070       -0.74876553907022
C           30.57436566551800       -3.15310231288134       -1.15377196806260
C           31.51292679938762       -2.18935345511817       -1.00575358682360
C           30.83410126848679       -1.02617647334517       -0.52112695972931
N           29.48634274042507       -1.26146618401228       -0.40769410674428
H           32.55997564348246        0.15045289260595       -0.17271041702574
H           32.56164502854057        2.52739535894353        0.89136799579891
H           30.65189263468095        4.36485856655839        1.38972295984749
H           26.77528178096828        4.66162186881304        2.71872967862776
H           26.77143800978313        7.09093056278808        3.23324515614532
H           29.31452145943684        7.81268699395130       -0.13888601028464
H           29.31341954608208        5.38548497702471       -0.66117227950535
H           25.46568090997765        4.52855253367492        0.37295169015534
H           23.59203188847116        2.63051843829561       -0.00367083702692
H           23.67251215654328       -2.62005442951999        0.19345979842795
H           25.58977374120073       -4.47180629642172       -0.19285607504126
H           29.53091824020767       -5.19871962855282        0.64249721868611
H           29.56929342034569       -7.63344781271324        0.15799020483975
H           26.80145397955138       -7.04037559404920       -3.05865659336946
H           26.76872916368206       -4.60364323753877       -2.58346238769287
H           30.70408399898987       -4.16272256803814       -1.50809053162894
H           32.57237564052748       -2.24259787229986       -1.19873908412081
C           22.05610146716767       -0.02018627738243        0.05270433191706
C           23.27199739614161       -0.00104971017767        0.05643246619563

          :  Hamiltonian                  GFN1-xTB          :
         :: total energy            -241.540802705736 Eh    ::
         :: gradient norm              0.000216832738 Eh/a0 ::
         :: HOMO-LUMO gap              1.246713003456 eV    ::
         :: SCC energy              -244.755886824098 Eh    ::
         :: repulsion energy           3.327949955257 Eh    ::

    * Orbital Energies and Occupations

         #    Occupation            Energy/Eh            Energy/eV
      -------------------------------------------------------------
         1        2.0000           -0.9243390             -25.1525
       ...           ...                  ...                  ...
       201        2.0000           -0.4540916             -12.3565
       202        2.0000           -0.4251154             -11.5680
       203        2.0000           -0.4239646             -11.5367
       204        2.0000           -0.4239060             -11.5351
       205        2.0000           -0.4236421             -11.5279
       206        2.0000           -0.4236034             -11.5268
       207        2.0000           -0.4226489             -11.5009
       208        2.0000           -0.4226469             -11.5008
       209        2.0000           -0.4215637             -11.4713
       210        2.0000           -0.4215619             -11.4713
       211        2.0000           -0.4214321             -11.4678
       212        2.0000           -0.4214313             -11.4677
       213        2.0000           -0.4112579             -11.1909 (HOMO)
       214                         -0.3654421              -9.9442 (LUMO)
       215                         -0.3611299              -9.8268
       216                         -0.3611267              -9.8268
       217                         -0.3529966              -9.6055
       218                         -0.3529784              -9.6050
       219                         -0.3514764              -9.5642
       220                         -0.3513443              -9.5606
       221                         -0.3482387              -9.4761
       222                         -0.3452640              -9.3951
       223                         -0.3452516              -9.3948
       224                         -0.3213333              -8.7439
       ...                                ...                  ...
       430                          1.3176559              35.8552
      -------------------------------------------------------------
                  HL-Gap            0.0458159 Eh            1.2467 eV

Wiberg/Mayer (AO) data.
largest (>0.10) Wiberg bond orders for each atom

     #   Z sym  total        # sym  WBO       # sym  WBO       # sym  WBO
 ---------------------------------------------------------------------------
     1  28 Ni   3.017 --     7 N    0.664    43 N    0.664    28 N    0.660
                            21 N    0.660
     2   6 C    3.936 --    42 C    1.365     3 C    1.364    44 H    0.969
     3   6 C    3.920 --     2 C    1.364     7 N    1.212     4 C    1.173
     4   6 C    3.960 --     5 C    1.651     3 C    1.173    45 H    0.974
     5   6 C    3.963 --     4 C    1.651     6 C    1.174    46 H    0.972
     6   6 C    3.921 --     8 C    1.321     7 N    1.223     5 C    1.174
     7   7 N    3.401 --     6 C    1.223     3 C    1.212     1 Ni   0.664
     8   6 C    3.937 --    18 C    1.322     6 C    1.321     9 C    1.034
     9   6 C    3.985 --    10 C    1.384    17 C    1.383     8 C    1.034
    10   6 C    3.987 --    11 C    1.463     9 C    1.384    47 H    0.971
                            16 C    0.102
    11   6 C    3.987 --    10 C    1.463    12 C    1.388    48 H    0.964
                            17 C    0.102
    12   6 C    3.942 --    11 C    1.388    16 C    1.387    13 N    0.920
    13   7 N    3.866 --    15 O    1.455    14 O    1.455    12 C    0.920
    14   8 O    1.830 --    13 N    1.455    15 O    0.252
    15   8 O    1.830 --    13 N    1.455    14 O    0.252
    16   6 C    3.987 --    17 C    1.464    12 C    1.387    49 H    0.964
                            10 C    0.102
    17   6 C    3.987 --    16 C    1.464     9 C    1.383    50 H    0.971
                            11 C    0.102
    18   6 C    3.915 --     8 C    1.322    21 N    1.211    19 C    1.183
    19   6 C    3.959 --    20 C    1.636    18 C    1.183    51 H    0.973
    20   6 C    3.962 --    19 C    1.636    22 C    1.191    52 H    0.970
    21   7 N    3.404 --    22 C    1.234    18 C    1.211     1 Ni   0.660
    22   6 C    3.907 --    23 C    1.270    21 N    1.234    20 C    1.191
    23   6 C    3.945 --    22 C    1.270    24 C    1.269   121 C    1.169
    24   6 C    3.907 --    23 C    1.269    28 N    1.235    25 C    1.191
    25   6 C    3.962 --    26 C    1.635    24 C    1.191    53 H    0.970
    26   6 C    3.958 --    25 C    1.635    27 C    1.183    54 H    0.973
    27   6 C    3.915 --    29 C    1.323    28 N    1.210    26 C    1.183
    28   7 N    3.405 --    24 C    1.235    27 C    1.210     1 Ni   0.660
    29   6 C    3.937 --    27 C    1.323    39 C    1.320    30 C    1.034
    30   6 C    3.985 --    31 C    1.383    38 C    1.383    29 C    1.034
    31   6 C    3.987 --    32 C    1.463    30 C    1.383    55 H    0.971
                            37 C    0.102
    32   6 C    3.987 --    31 C    1.463    33 C    1.388    56 H    0.964
                            38 C    0.102
    33   6 C    3.941 --    32 C    1.388    37 C    1.387    34 N    0.920
    34   7 N    3.866 --    36 O    1.455    35 O    1.455    33 C    0.920
    35   8 O    1.830 --    34 N    1.455    36 O    0.252
    36   8 O    1.830 --    34 N    1.455    35 O    0.252
    37   6 C    3.987 --    38 C    1.464    33 C    1.387    57 H    0.964
                            31 C    0.102
    38   6 C    3.987 --    37 C    1.464    30 C    1.383    58 H    0.971
                            32 C    0.102
    39   6 C    3.921 --    29 C    1.320    43 N    1.223    40 C    1.174
    40   6 C    3.963 --    41 C    1.651    39 C    1.174    59 H    0.972
    41   6 C    3.960 --    40 C    1.651    42 C    1.173    60 H    0.974
    42   6 C    3.920 --     2 C    1.365    43 N    1.211    41 C    1.173
    43   7 N    3.401 --    39 C    1.223    42 C    1.211     1 Ni   0.664
    44   1 H    0.999 --     2 C    0.969
    45   1 H    0.997 --     4 C    0.974
    46   1 H    1.003 --     5 C    0.972
    47   1 H    1.003 --    10 C    0.971
    48   1 H    1.006 --    11 C    0.964
    49   1 H    1.006 --    16 C    0.964
    50   1 H    1.003 --    17 C    0.971
    51   1 H    1.003 --    19 C    0.973
    52   1 H    1.004 --    20 C    0.970
    53   1 H    1.004 --    25 C    0.970
    54   1 H    1.003 --    26 C    0.973
    55   1 H    1.003 --    31 C    0.971
    56   1 H    1.006 --    32 C    0.964
    57   1 H    1.006 --    37 C    0.964
    58   1 H    1.003 --    38 C    0.971
    59   1 H    1.003 --    40 C    0.972
    60   1 H    0.997 --    41 C    0.974
    61  28 Ni   3.017 --    67 N    0.664   103 N    0.664    88 N    0.660
                            81 N    0.660
    62   6 C    3.936 --   102 C    1.365    63 C    1.364   104 H    0.969
    63   6 C    3.920 --    62 C    1.364    67 N    1.212    64 C    1.173
    64   6 C    3.960 --    65 C    1.651    63 C    1.173   105 H    0.974
    65   6 C    3.963 --    64 C    1.651    66 C    1.174   106 H    0.972
    66   6 C    3.921 --    68 C    1.321    67 N    1.223    65 C    1.174
    67   7 N    3.401 --    66 C    1.223    63 C    1.212    61 Ni   0.664
    68   6 C    3.937 --    78 C    1.322    66 C    1.321    69 C    1.034
    69   6 C    3.985 --    70 C    1.384    77 C    1.383    68 C    1.034
    70   6 C    3.987 --    71 C    1.463    69 C    1.384   107 H    0.971
                            76 C    0.102
    71   6 C    3.987 --    70 C    1.463    72 C    1.388   108 H    0.964
                            77 C    0.102
    72   6 C    3.942 --    71 C    1.388    76 C    1.387    73 N    0.920
    73   7 N    3.866 --    75 O    1.455    74 O    1.455    72 C    0.920
    74   8 O    1.830 --    73 N    1.455    75 O    0.252
    75   8 O    1.830 --    73 N    1.455    74 O    0.252
    76   6 C    3.987 --    77 C    1.464    72 C    1.387   109 H    0.964
                            70 C    0.102
    77   6 C    3.987 --    76 C    1.464    69 C    1.383   110 H    0.971
                            71 C    0.102
    78   6 C    3.915 --    68 C    1.322    81 N    1.211    79 C    1.183
    79   6 C    3.959 --    80 C    1.636    78 C    1.183   111 H    0.973
    80   6 C    3.962 --    79 C    1.636    82 C    1.191   112 H    0.970
    81   7 N    3.404 --    82 C    1.234    78 C    1.211    61 Ni   0.660
    82   6 C    3.907 --    83 C    1.270    81 N    1.234    80 C    1.191
    83   6 C    3.945 --    82 C    1.270    84 C    1.269   122 C    1.169
    84   6 C    3.907 --    83 C    1.269    88 N    1.235    85 C    1.191
    85   6 C    3.962 --    86 C    1.635    84 C    1.191   113 H    0.970
    86   6 C    3.958 --    85 C    1.635    87 C    1.183   114 H    0.973
    87   6 C    3.915 --    89 C    1.323    88 N    1.210    86 C    1.183
    88   7 N    3.405 --    84 C    1.235    87 C    1.210    61 Ni   0.660
    89   6 C    3.937 --    87 C    1.323    99 C    1.320    90 C    1.034
    90   6 C    3.985 --    91 C    1.383    98 C    1.383    89 C    1.034
    91   6 C    3.987 --    92 C    1.463    90 C    1.383   115 H    0.971
                            97 C    0.102
    92   6 C    3.987 --    91 C    1.463    93 C    1.388   116 H    0.964
                            98 C    0.102
    93   6 C    3.941 --    92 C    1.388    97 C    1.387    94 N    0.920
    94   7 N    3.866 --    96 O    1.455    95 O    1.455    93 C    0.920
    95   8 O    1.830 --    94 N    1.455    96 O    0.252
    96   8 O    1.830 --    94 N    1.455    95 O    0.252
    97   6 C    3.987 --    98 C    1.464    93 C    1.387   117 H    0.964
                            91 C    0.102
    98   6 C    3.987 --    97 C    1.464    90 C    1.383   118 H    0.971
                            92 C    0.102
    99   6 C    3.921 --    89 C    1.320   103 N    1.223   100 C    1.174
   100   6 C    3.963 --   101 C    1.651    99 C    1.174   119 H    0.972
   101   6 C    3.960 --   100 C    1.651   102 C    1.173   120 H    0.974
   102   6 C    3.920 --    62 C    1.365   103 N    1.211   101 C    1.173
   103   7 N    3.401 --    99 C    1.223   102 C    1.211    61 Ni   0.664
   104   1 H    0.999 --    62 C    0.969
   105   1 H    0.997 --    64 C    0.974
   106   1 H    1.003 --    65 C    0.972
   107   1 H    1.003 --    70 C    0.971
   108   1 H    1.006 --    71 C    0.964
   109   1 H    1.006 --    76 C    0.964
   110   1 H    1.003 --    77 C    0.971
   111   1 H    1.003 --    79 C    0.973
   112   1 H    1.004 --    80 C    0.970
   113   1 H    1.004 --    85 C    0.970
   114   1 H    1.003 --    86 C    0.973
   115   1 H    1.003 --    91 C    0.971
   116   1 H    1.006 --    92 C    0.964
   117   1 H    1.006 --    97 C    0.964
   118   1 H    1.003 --    98 C    0.971
   119   1 H    1.003 --   100 C    0.972
   120   1 H    0.997 --   101 C    0.974
   121   6 C    3.937 --   122 C    2.590    23 C    1.169
   122   6 C    3.937 --   121 C    2.590    83 C    1.169
 ---------------------------------------------------------------------------

           -------------------------------------------------
          | TOTAL ENERGY             -241.540802705736 Eh   |
          | GRADIENT NORM               0.000216832738 Eh/α |
          | HOMO-LUMO GAP               1.246713003456 eV   |
           -------------------------------------------------

 * finished run on 2022/07/30 at 04:45:00.789
