   * xtb version 6.5.1 (b24c23e) compiled by 'conda@728c89f4b128' on 2022-07-12
          program call               : xtb Zn_Ph3OH_C4_3.xyz --gfn 1 --opt -T 48

   ID    Z sym.   atoms
    1   30 Zn     1, 63, 133
    2    6 C      2-6, 8-11, 13, 15, 17-20, 22-27, 29-32, 34, 36, 38-42,
                  64-68, 70-73, 75, 77, 79-82, 84-89, 91-94, 96, 98, 100-104,
                  125-132, 134-138, 140-143, 145, 147, 149-152, 154-159,
                  161-164, 166, 168, 170-174
    3    7 N      7, 21, 28, 43, 69, 83, 90, 105, 139, 153, 160, 175
    4    8 O      12, 14, 16, 33, 35, 37, 74, 76, 78, 95, 97, 99, 144, 146,
                  148, 165, 167, 169
    5    1 H      44-62, 106-124, 176-193

          :  Hamiltonian                  GFN1-xTB          :
 * total energy  :  -374.2904922 Eh     change       -0.3583409E-08 Eh
 * total energy  :  -374.7181309 Eh     change       -0.4276387E+00 Eh
 * total energy  :  -374.8966334 Eh     change       -0.1785024E+00 Eh
 * total energy  :  -374.9993857 Eh     change       -0.1027524E+00 Eh
 * total energy  :  -375.0685234 Eh     change       -0.6913763E-01 Eh
 * total energy  :  -375.1054892 Eh     change       -0.3696582E-01 Eh
 * total energy  :  -375.1277768 Eh     change       -0.2228763E-01 Eh
 * total energy  :  -375.1408291 Eh     change       -0.1305232E-01 Eh
 * total energy  :  -375.1512376 Eh     change       -0.1040847E-01 Eh
 * total energy  :  -375.1598060 Eh     change       -0.8568437E-02 Eh
 * total energy  :  -375.2100612 Eh     change       -0.2725585E-04 Eh
 * total energy  :  -375.2100861 Eh     change       -0.2484937E-04 Eh
 * total energy  :  -375.2101036 Eh     change       -0.1755770E-04 Eh
 * total energy  :  -375.2101183 Eh     change       -0.1471627E-04 Eh
 * total energy  :  -375.2101288 Eh     change       -0.1046693E-04 Eh
 * total energy  :  -375.2101348 Eh     change       -0.5975865E-05 Eh
 * total energy  :  -375.2101398 Eh     change       -0.5030876E-05 Eh
 * total energy  :  -375.2101450 Eh     change       -0.5202408E-05 Eh
 * total energy  :  -375.2101497 Eh     change       -0.4655771E-05 Eh
   *** GEOMETRY OPTIMIZATION CONVERGED AFTER 62 ITERATIONS ***

 final structure:
================
193
 xtb: 6.5.1 (b24c23e)
Zn          33.24667573941526        0.01645277304152       -0.06178857743545
C           29.83906426080253        0.05776119547392       -0.18517222035222
C           30.47157002372242        1.29407225206472       -0.13330055845611
C           29.79921487986550        2.56234243446319       -0.08943575778664
C           30.75899122138837        3.51849259824739       -0.02385201528335
C           32.03138924962595        2.84613495886030       -0.03756890381296
N           31.82108421534819        1.49912879659222       -0.09681484614442
C           33.28279532342862        3.47089606862140        0.02874522827354
C           33.29930901293347        4.95565791348729        0.07533117701159
C           32.77817410033923        5.69745945619890       -0.98487079055958
C           32.79859768799398        7.08665168395219       -0.94105376475021
O           32.30173155437016        7.81686478333622       -1.96986245414966
C           33.33520173345939        7.73964807235846        0.16951929076326
O           33.33941538466628        9.11030396498141        0.18655778650481
C           33.85225072696252        6.99922736857951        1.22935811119751
O           34.35864858700769        7.70961325874027        2.28650792169237
C           33.83965064053292        5.61072296161287        1.18533683323730
C           34.52006085218142        2.81744216298505        0.05397906626062
C           35.80181720598052        3.46657501836834        0.06173747336066
C           36.74559885181652        2.49048085387552        0.06407678418668
N           34.71062059402686        1.46108219388040        0.04125178507674
C           36.05173049730389        1.23667213427736        0.05079834678131
C           36.68006867612664       -0.02541521911235        0.03395885013675
C           36.02328269738529       -1.27190139837518       -0.00383088461743
C           36.68825365691879       -2.54119596260439       -0.03929448839548
C           35.72268830753848       -3.49420148224197       -0.08486410123298
C           34.45602938217836       -2.81572279218394       -0.07135141564055
N           34.67725845685049       -1.46459898572475       -0.02763785728158
C           33.20472448331038       -3.43862955174676       -0.13087414533729
C           33.18665166986982       -4.92419244492503       -0.15605556323831
C           33.69366649550325       -5.64940792948013        0.92230951798497
C           33.67367425903019       -7.03908168478299        0.89995769235615
O           34.15686701721027       -7.75321157650457        1.94638987718524
C           33.15215379341864       -7.70913184293269       -0.20778570505547
O           33.14928067152866       -9.08011739260318       -0.20455101578622
C           32.64895266543096       -6.98518599006662       -1.28543598631909
O           32.15800307502353       -7.71198358719636       -2.33924743786387
C           32.66037457662125       -5.59608412467336       -1.26266363786630
C           31.96762064921374       -2.78347080875531       -0.17034461680262
C           30.68058796146850       -3.42694563137700       -0.18967457794676
C           29.74228808447137       -2.44725750969606       -0.21016892911094
C           30.44299642823788       -1.19397882174071       -0.19347521362718
N           31.78736692510604       -1.43102304929466       -0.16717276572867
H           28.75371053080591        0.07093612744802       -0.20913819275434
H           28.72827801529584        2.69211682382438       -0.10031726176198
H           30.62180333234015        4.58609708592077        0.03907969697798
H           32.37292816243680        5.20199678385851       -1.85768581465213
H           32.40763957691077        8.75804145576949       -1.75390327894653
H           33.74485220335601        9.39648260893573        1.02052042510560
H           34.69502910473695        7.11510389166846        2.96985195966613
H           34.23188431118827        5.04098475324333        2.01963410107194
H           35.95927227775125        4.53314915848798        0.05070181163432
H           37.81818871299044        2.60285606076403        0.06752454822346
H           37.75800499109291       -2.67785464549736       -0.03481393853397
H           35.85492201904518       -4.56294293614909       -0.13533471397283
H           34.08880104998217       -5.14005668262602        1.79180464011771
H           34.05549670932593       -8.69762703619671        1.74281424887833
H           32.75763204298929       -9.37865420923569       -1.04089827675719
H           31.82977384300513       -7.12760722558004       -3.03492206375745
H           32.27928032857684       -5.03959983912058       -2.11096593157242
H           30.51901219400226       -4.49307691115849       -0.17584154900002
H           28.66869208069250       -2.55258539466849       -0.22661044041049
Zn          60.20323383982131       -0.04677897513582       -0.03495654152031
C           63.60941408550068       -0.07590324829142       -0.20403359050972
C           62.97486548502386       -1.30947757271020       -0.28675941760421
C           63.64476975498471       -2.57478755950843       -0.39935971780211
C           62.68369864960775       -3.53134466671803       -0.43262032819778
C           61.41287511832435       -2.86091469973685       -0.35112547600854
N           61.62543655300744       -1.51636131851633       -0.25633675941718
C           60.16101656182154       -3.48819173679329       -0.34165113796867
C           60.14204620432731       -4.96843115397841       -0.46735957078176
C           60.64339529243169       -5.58200272207581       -1.61535825913833
C           60.62042004199027       -6.96684270421157       -1.73307299480231
O           61.09791898403762       -7.57257610730885       -2.84820292035416
C           60.10153280276732       -7.74431465184908       -0.69670755689288
O           60.09456608187700       -9.10780742939712       -0.83880220648970
C           59.60444770624356       -7.13196682238268        0.45073400691864
O           59.11489250296540       -7.96024544996662        1.42719716759717
C           59.61916035452582       -5.74774841626142        0.56813184894122
C           58.92550262132315       -2.84149084397661       -0.22646795162963
C           57.64271254971979       -3.48658234749197       -0.27919744827475
C           56.70079414057444       -2.51663307181641       -0.15536911004651
N           58.73734596135457       -1.49256348362314       -0.08109651964606
C           57.39679846679780       -1.26992288084716       -0.03225265221295
C           56.77109109225548       -0.01359952135489        0.10189147748124
C           57.43025554657661        1.22821287518245        0.20205304804402
C           56.76764251261404        2.49383404460059        0.32011574391112
C           57.73469490487358        3.44483004927542        0.37435911479943
C           58.99993194912777        2.76811608881198        0.29564974975930
N           58.77628806474243        1.42103322233841        0.18659896831481
C           60.25155909587206        3.39279061055393        0.29255654467229
C           60.27234192603882        4.87168266985832        0.43609774422407
C           59.78640486697886        5.46974241774894        1.59873888640137
C           59.80949442154103        6.85300875475342        1.73390481861388
O           59.34713314080395        7.44372241177919        2.86317042643357
C           60.31260024128780        7.64426848157040        0.70005131284444
O           60.31927519341914        9.00576995313387        0.85919859299631
C           60.79424782320920        7.04720235403407       -0.46189085686676
O           61.26809010465571        7.88851511132510       -1.43514416746722
C           60.78012415021853        5.66446317309314       -0.59656674886038
C           61.48681080910282        2.74590554981714        0.16278872330768
C           62.77458527390090        3.38707856191896        0.19947993428929
C           63.71074801277103        2.41575160484935        0.05542941988039
C           63.00800214575853        1.16891374500563       -0.06115019113154
N           61.66454822510306        1.40187113422331        0.00981300747168
H           64.69433240397798       -0.08693623207554       -0.24362499415337
H           64.71516571713175       -2.70323068728876       -0.43975254509032
H           62.81908997062123       -4.59912949538068       -0.49649665418307
H           61.03498484456830       -4.98841921052462       -2.43134287430903
H           60.99213200286665       -8.53235509896715       -2.74213824616532
H           59.70202938873326       -9.48842982749605       -0.03711058708594
H           58.79126904282225       -7.44844095104882        2.18004517019672
H           59.24210210056220       -5.27868332471114        1.46942479719904
H           57.48345023842995       -4.54484437112277       -0.41037946011821
H           55.62809635891271       -2.62795269726140       -0.15374598976331
H           55.69828457105242        2.63003317176733        0.35154996820704
H           57.60454512618042        4.51241279848962        0.44889301021446
H           59.40535213971903        4.86505574802051        2.41159990955924
H           59.44486497665356        8.40531039032304        2.76575843419246
H           60.69334921069364        9.39793055950349        0.05416490701977
H           61.57985906044988        7.38668393614018       -2.19948375838643
H           61.14471685455152        5.20747913030972       -1.50915017120780
H           62.93804296530507        4.44478890472743        0.33164097519952
H           64.78422061992566        2.52195251498467        0.03655390088561
C           39.30811808982337       -0.04329381178791        0.03636499576515
C           38.08567557713473       -0.03915625524485        0.03993070286607
C           40.65750604528029       -0.04400792692457        0.02882007785571
C           41.88007852896040       -0.04103688540872        0.01700710909591
C           52.79385971585607        0.01020691845834        0.10719797075458
C           51.57144490416309        0.00877292699948        0.08720544422399
C           54.14318078472748        0.00698273726101        0.11753731100255
C           55.36563273427222        0.00132039965036        0.11865218085149
Zn          46.72643610651072       -0.01456132819326        0.01763568005951
C           43.28509824737984       -0.03380335012625        0.00976217639282
C           43.92298637447824        1.21993315165239        0.10950658478721
C           43.23855860710484        2.47125044951845        0.24247388869142
C           44.18937809995121        3.43938846151585        0.30006633505928
C           45.46438647986981        2.78738565635390        0.19558499521612
N           45.26525459505166        1.43641729877963        0.08975322084275
C           46.70675569678718        3.43127338540742        0.22536084193242
C           46.69503440079886        4.91427520929588        0.30305551952370
C           47.25886799779226        5.56894929263215        1.39841936350385
C           47.24828079149609        6.95847310202653        1.48637785034680
O           47.78527026308721        7.60574671302054        2.55398583850756
C           46.67374892337924        7.71431394734920        0.45962475803568
O           46.65103137697811        9.07204565684659        0.51356793871967
C           46.11577814222964        7.05153715736757       -0.63658448529640
O           45.57347005895337        7.85032232205347       -1.61104050441056
C           46.11669070094700        5.66630933087723       -0.72114494534579
C           47.95683152082162        2.80352879249900        0.18945321006855
C           49.22534799136404        3.47649207276389        0.17916841704573
C           50.18673749713703        2.51809442132459        0.13997242702347
N           48.17065006311291        1.45144643745523        0.13890014500367
C           49.51544557920130        1.25279170982937        0.11340856726153
C           50.16659106071106        0.00302454989004        0.06409593039366
C           49.52910830461029       -1.25183393487725       -0.01416855280635
C           50.21265764726933       -2.51066529619943       -0.04750208970956
C           49.26206531835719       -3.47619016822845       -0.13506400175005
C           47.98785731130449       -2.81432690967334       -0.16289287875009
N           48.18709032692815       -1.46203473058876       -0.07836793292813
C           46.74588681017327       -3.45399550514816       -0.23854626395209
C           46.75697865558020       -4.93481093356008       -0.36629693376409
C           47.33772293396235       -5.52969975657212       -1.48665982692182
C           47.33616140552638       -6.91374798219644       -1.61698450596496
O           47.88243449584596       -7.50370671113591       -2.70652538484848
C           46.75859003818663       -7.70298583232382       -0.62106089282019
O           46.78073998100812       -9.08274344905694       -0.78255100944099
C           46.21316358810374       -7.11173514483951        0.51708086504944
O           45.68349383501709       -7.88467526280847        1.50788414048671
C           46.19530175377974       -5.72663666902888        0.63571005355365
C           45.49578115978453       -2.82683031796469       -0.20763458413668
C           44.22839716292090       -3.49238106949791       -0.32298299012451
C           43.26645036317847       -2.53693887818848       -0.24874635631347
C           43.93635747890354       -1.27913780213429       -0.09961028249470
N           45.28112771182601       -1.47999996948351       -0.08253172795032
H           42.16753490865317        2.58739717591781        0.29201592623728
H           44.04085476105762        4.50080080183833        0.41746792312483
H           47.69500793873387        4.99262366120835        2.20665240958055
H           48.15530943020752        6.97966399865484        3.18999454855551
H           46.21320729385264        9.39890416902888       -0.28882557758759
H           45.21245453446841        7.31643546015330       -2.33057305841664
H           45.68808293100056        5.17644570575334       -1.58762833863956
H           49.36297079660896        4.54575791260255        0.18851546145791
H           51.25692001506859        2.64995647008696        0.12097547252882
H           51.28318662085879       -2.63320287646337       -0.00394822834294
H           49.40933582017407       -4.54366572516207       -0.16652614763198
H           47.77041962544526       -4.92407803911063       -2.27244064356842
H           47.79126203369518       -8.46648476081789       -2.60961268875252
H           45.91637672436629       -9.46352515156623       -0.57953518462571
H           45.98689426335040       -8.79885902193952        1.41176744426191
H           45.76829620889391       -5.27675789842387        1.52265052901940
H           44.09275547842060       -4.55394783223406       -0.45330116449363
H           42.19670676237256       -2.66426594505516       -0.29857175940732

          :  Hamiltonian                  GFN1-xTB          :
         :: total energy            -375.210149674922 Eh    ::
         :: gradient norm              0.000715725865 Eh/a0 ::
         :: HOMO-LUMO gap              0.902061748323 eV    ::
         :: SCC energy              -380.269400129937 Eh    ::
         :: repulsion energy           5.231109121897 Eh    ::

    * Orbital Energies and Occupations

         #    Occupation            Energy/Eh            Energy/eV
      -------------------------------------------------------------
         1        2.0000           -0.8111686             -22.0730
       ...           ...                  ...                  ...
       311        2.0000           -0.4177500             -11.3676
       312        2.0000           -0.4154573             -11.3052
       313        2.0000           -0.4106746             -11.1750
       314        2.0000           -0.4093511             -11.1390
       315        2.0000           -0.4087717             -11.1232
       316        2.0000           -0.4080638             -11.1040
       317        2.0000           -0.4047882             -11.0148
       318        2.0000           -0.3932737             -10.7015
       319        2.0000           -0.3927607             -10.6876
       320        2.0000           -0.3921672             -10.6714
       321        2.0000           -0.3883861             -10.5685
       322        2.0000           -0.3808732             -10.3641
       323        2.0000           -0.3723288             -10.1316 (HOMO)
       324                         -0.3391786              -9.2295 (LUMO)
       325                         -0.3288843              -8.9494
       326                         -0.3256093              -8.8603
       327                         -0.3252669              -8.8510
       328                         -0.3246366              -8.8338
       329                         -0.3203035              -8.7159
       330                         -0.2986862              -8.1277
       331                         -0.2904305              -7.9030
       332                         -0.2868240              -7.8049
       333                         -0.2575133              -7.0073
       334                         -0.2553130              -6.9474
       ...                                ...                  ...
       660                          1.5198477              41.3572
      -------------------------------------------------------------
                  HL-Gap            0.0331502 Eh            0.9021 eV

Wiberg/Mayer (AO) data.
largest (>0.10) Wiberg bond orders for each atom

     #   Z sym  total        # sym  WBO       # sym  WBO       # sym  WBO
 ---------------------------------------------------------------------------
     1  30 Zn   1.997 --     7 N    0.460    43 N    0.459    28 N    0.457
                            21 N    0.456
     2   6 C    3.926 --     3 C    1.358    42 C    1.356    44 H    0.971
     3   6 C    3.922 --     2 C    1.358     7 N    1.233     4 C    1.171
     4   6 C    3.960 --     5 C    1.659     3 C    1.171    45 H    0.976
     5   6 C    3.963 --     4 C    1.659     6 C    1.172    46 H    0.973
     6   6 C    3.917 --     8 C    1.315     7 N    1.243     5 C    1.172
     7   7 N    3.293 --     6 C    1.243     3 C    1.233     1 Zn   0.460
     8   6 C    3.933 --    18 C    1.323     6 C    1.315     9 C    1.027
     9   6 C    3.989 --    10 C    1.399    17 C    1.387     8 C    1.027
    10   6 C    3.977 --     9 C    1.399    11 C    1.380    47 H    0.970
    11   6 C    3.917 --    10 C    1.380    13 C    1.325    12 O    1.051
    12   8 O    2.047 --    11 C    1.051    48 H    0.848
    13   6 C    3.904 --    15 C    1.341    11 C    1.325    14 O    1.020
    14   8 O    2.020 --    13 C    1.020    49 H    0.846
    15   6 C    3.905 --    17 C    1.384    13 C    1.341    16 O    1.013
    16   8 O    2.024 --    15 C    1.013    50 H    0.861
    17   6 C    3.973 --     9 C    1.387    15 C    1.384    51 H    0.969
    18   6 C    3.913 --     8 C    1.323    21 N    1.225    19 C    1.180
    19   6 C    3.959 --    20 C    1.644    18 C    1.180    52 H    0.974
    20   6 C    3.961 --    19 C    1.644    22 C    1.188    53 H    0.974
    21   7 N    3.296 --    22 C    1.263    18 C    1.225     1 Zn   0.456
    22   6 C    3.903 --    21 N    1.263    23 C    1.252    20 C    1.188
    23   6 C    3.937 --    24 C    1.254    22 C    1.252   126 C    1.191
    24   6 C    3.903 --    28 N    1.263    23 C    1.254    25 C    1.186
    25   6 C    3.962 --    26 C    1.646    24 C    1.186    54 H    0.974
    26   6 C    3.960 --    25 C    1.646    27 C    1.179    55 H    0.973
    27   6 C    3.912 --    29 C    1.325    28 N    1.224    26 C    1.179
    28   7 N    3.297 --    24 C    1.263    27 C    1.224     1 Zn   0.457
    29   6 C    3.933 --    27 C    1.325    39 C    1.314    30 C    1.026
    30   6 C    3.989 --    31 C    1.399    38 C    1.387    29 C    1.026
    31   6 C    3.977 --    30 C    1.399    32 C    1.380    56 H    0.970
    32   6 C    3.917 --    31 C    1.380    34 C    1.325    33 O    1.051
    33   8 O    2.047 --    32 C    1.051    57 H    0.848
    34   6 C    3.904 --    36 C    1.341    32 C    1.325    35 O    1.019
    35   8 O    2.019 --    34 C    1.019    58 H    0.847
    36   6 C    3.905 --    38 C    1.384    34 C    1.341    37 O    1.012
    37   8 O    2.023 --    36 C    1.012    59 H    0.861
    38   6 C    3.973 --    30 C    1.387    36 C    1.384    60 H    0.969
    39   6 C    3.918 --    29 C    1.314    43 N    1.244    40 C    1.173
    40   6 C    3.963 --    41 C    1.657    39 C    1.173    61 H    0.974
    41   6 C    3.960 --    40 C    1.657    42 C    1.172    62 H    0.976
    42   6 C    3.922 --     2 C    1.356    43 N    1.233    41 C    1.172
    43   7 N    3.293 --    39 C    1.244    42 C    1.233     1 Zn   0.459
    44   1 H    1.002 --     2 C    0.971
    45   1 H    0.998 --     4 C    0.976
    46   1 H    1.006 --     5 C    0.973
    47   1 H    1.000 --    10 C    0.970
    48   1 H    0.878 --    12 O    0.848
    49   1 H    0.876 --    14 O    0.846
    50   1 H    0.881 --    16 O    0.861
    51   1 H    1.001 --    17 C    0.969
    52   1 H    1.006 --    19 C    0.974
    53   1 H    1.003 --    20 C    0.974
    54   1 H    1.002 --    25 C    0.974
    55   1 H    1.006 --    26 C    0.973
    56   1 H    1.000 --    31 C    0.970
    57   1 H    0.878 --    33 O    0.848
    58   1 H    0.876 --    35 O    0.847
    59   1 H    0.882 --    37 O    0.861
    60   1 H    1.001 --    38 C    0.969
    61   1 H    1.006 --    40 C    0.974
    62   1 H    0.998 --    41 C    0.976
    63  30 Zn   1.997 --    69 N    0.460   105 N    0.459    90 N    0.457
                            83 N    0.456
    64   6 C    3.926 --    65 C    1.358   104 C    1.356   106 H    0.971
    65   6 C    3.922 --    64 C    1.358    69 N    1.233    66 C    1.171
    66   6 C    3.960 --    67 C    1.659    65 C    1.171   107 H    0.976
    67   6 C    3.963 --    66 C    1.659    68 C    1.172   108 H    0.973
    68   6 C    3.917 --    70 C    1.315    69 N    1.244    67 C    1.172
    69   7 N    3.293 --    68 C    1.244    65 C    1.233    63 Zn   0.460
    70   6 C    3.933 --    80 C    1.324    68 C    1.315    71 C    1.026
    71   6 C    3.989 --    72 C    1.399    79 C    1.387    70 C    1.026
    72   6 C    3.977 --    71 C    1.399    73 C    1.380   109 H    0.970
    73   6 C    3.917 --    72 C    1.380    75 C    1.325    74 O    1.051
    74   8 O    2.047 --    73 C    1.051   110 H    0.848
    75   6 C    3.904 --    77 C    1.341    73 C    1.325    76 O    1.019
    76   8 O    2.019 --    75 C    1.019   111 H    0.847
    77   6 C    3.905 --    79 C    1.384    75 C    1.341    78 O    1.012
    78   8 O    2.024 --    77 C    1.012   112 H    0.861
    79   6 C    3.973 --    71 C    1.387    77 C    1.384   113 H    0.969
    80   6 C    3.913 --    70 C    1.324    83 N    1.225    81 C    1.180
    81   6 C    3.959 --    82 C    1.644    80 C    1.180   114 H    0.974
    82   6 C    3.961 --    81 C    1.644    84 C    1.187   115 H    0.974
    83   7 N    3.296 --    84 C    1.263    80 C    1.225    63 Zn   0.456
    84   6 C    3.903 --    83 N    1.263    85 C    1.253    82 C    1.187
    85   6 C    3.937 --    86 C    1.254    84 C    1.253   132 C    1.191
    86   6 C    3.903 --    90 N    1.263    85 C    1.254    87 C    1.186
    87   6 C    3.962 --    88 C    1.647    86 C    1.186   116 H    0.974
    88   6 C    3.960 --    87 C    1.647    89 C    1.179   117 H    0.973
    89   6 C    3.912 --    91 C    1.326    90 N    1.224    88 C    1.179
    90   7 N    3.297 --    86 C    1.263    89 C    1.224    63 Zn   0.457
    91   6 C    3.933 --    89 C    1.326   101 C    1.314    92 C    1.025
    92   6 C    3.989 --    93 C    1.400   100 C    1.387    91 C    1.025
    93   6 C    3.977 --    92 C    1.400    94 C    1.380   118 H    0.970
    94   6 C    3.917 --    93 C    1.380    96 C    1.325    95 O    1.052
    95   8 O    2.047 --    94 C    1.052   119 H    0.848
    96   6 C    3.904 --    98 C    1.341    94 C    1.325    97 O    1.020
    97   8 O    2.020 --    96 C    1.020   120 H    0.847
    98   6 C    3.905 --   100 C    1.384    96 C    1.341    99 O    1.012
    99   8 O    2.023 --    98 C    1.012   121 H    0.861
   100   6 C    3.973 --    92 C    1.387    98 C    1.384   122 H    0.969
   101   6 C    3.917 --    91 C    1.314   105 N    1.244   102 C    1.173
   102   6 C    3.963 --   103 C    1.657   101 C    1.173   123 H    0.974
   103   6 C    3.960 --   102 C    1.657   104 C    1.172   124 H    0.976
   104   6 C    3.922 --    64 C    1.356   105 N    1.233   103 C    1.172
   105   7 N    3.293 --   101 C    1.244   104 C    1.233    63 Zn   0.459
   106   1 H    1.002 --    64 C    0.971
   107   1 H    0.998 --    66 C    0.976
   108   1 H    1.006 --    67 C    0.973
   109   1 H    1.000 --    72 C    0.970
   110   1 H    0.878 --    74 O    0.848
   111   1 H    0.876 --    76 O    0.847
   112   1 H    0.882 --    78 O    0.861
   113   1 H    1.001 --    79 C    0.969
   114   1 H    1.006 --    81 C    0.974
   115   1 H    1.003 --    82 C    0.974
   116   1 H    1.002 --    87 C    0.974
   117   1 H    1.005 --    88 C    0.973
   118   1 H    1.000 --    93 C    0.970
   119   1 H    0.878 --    95 O    0.848
   120   1 H    0.876 --    97 O    0.847
   121   1 H    0.882 --    99 O    0.861
   122   1 H    1.001 --   100 C    0.969
   123   1 H    1.006 --   102 C    0.974
   124   1 H    0.998 --   103 C    0.976
   125   6 C    3.934 --   126 C    2.472   127 C    1.311
   126   6 C    3.924 --   125 C    2.472    23 C    1.191   128 C    0.199
   127   6 C    3.931 --   128 C    2.471   125 C    1.311
   128   6 C    3.925 --   127 C    2.471   134 C    1.194   126 C    0.199
   129   6 C    3.931 --   130 C    2.471   131 C    1.311
   130   6 C    3.925 --   129 C    2.471   155 C    1.194   132 C    0.199
   131   6 C    3.934 --   132 C    2.472   129 C    1.311
   132   6 C    3.924 --   131 C    2.472    85 C    1.191   130 C    0.199
   133  30 Zn   1.994 --   160 N    0.458   175 N    0.456   139 N    0.456
                           153 N    0.456
   134   6 C    3.925 --   174 C    1.252   135 C    1.250   128 C    1.194
   135   6 C    3.903 --   139 N    1.264   134 C    1.250   136 C    1.190
   136   6 C    3.959 --   137 C    1.640   135 C    1.190   176 H    0.974
   137   6 C    3.960 --   136 C    1.640   138 C    1.184   177 H    0.974
   138   6 C    3.911 --   140 C    1.319   139 N    1.224   137 C    1.184
   139   7 N    3.290 --   135 C    1.264   138 C    1.224   133 Zn   0.456
   140   6 C    3.928 --   150 C    1.320   138 C    1.319   141 C    1.027
   141   6 C    3.989 --   142 C    1.393   149 C    1.385   140 C    1.027
   142   6 C    3.974 --   141 C    1.393   143 C    1.380   178 H    0.969
   143   6 C    3.915 --   142 C    1.380   145 C    1.323   144 O    1.042
   144   8 O    2.051 --   143 C    1.042   179 H    0.867
   145   6 C    3.916 --   147 C    1.329   143 C    1.323   146 O    1.049
   146   8 O    2.046 --   145 C    1.049   180 H    0.851
   147   6 C    3.904 --   149 C    1.390   145 C    1.329   148 O    1.012
   148   8 O    2.025 --   147 C    1.012   181 H    0.861
   149   6 C    3.974 --   147 C    1.390   141 C    1.385   182 H    0.969
   150   6 C    3.911 --   140 C    1.320   153 N    1.224   151 C    1.183
   151   6 C    3.960 --   152 C    1.641   150 C    1.183   183 H    0.973
   152   6 C    3.960 --   151 C    1.641   154 C    1.190   184 H    0.974
   153   7 N    3.290 --   154 C    1.264   150 C    1.224   133 Zn   0.456
   154   6 C    3.903 --   153 N    1.264   155 C    1.250   152 C    1.190
   155   6 C    3.925 --   156 C    1.252   154 C    1.250   130 C    1.194
   156   6 C    3.903 --   160 N    1.263   155 C    1.252   157 C    1.188
   157   6 C    3.960 --   158 C    1.643   156 C    1.188   185 H    0.974
   158   6 C    3.960 --   157 C    1.643   159 C    1.182   186 H    0.974
   159   6 C    3.910 --   161 C    1.320   160 N    1.224   158 C    1.182
   160   7 N    3.291 --   156 C    1.263   159 C    1.224   133 Zn   0.458
   161   6 C    3.927 --   171 C    1.321   159 C    1.320   162 C    1.025
   162   6 C    3.989 --   163 C    1.399   170 C    1.398   161 C    1.025
   163   6 C    3.976 --   162 C    1.399   164 C    1.376   187 H    0.970
   164   6 C    3.916 --   163 C    1.376   166 C    1.335   165 O    1.054
   165   8 O    2.050 --   164 C    1.054   188 H    0.848
   166   6 C    3.887 --   168 C    1.347   164 C    1.335   167 O    0.976
   167   8 O    1.978 --   166 C    0.976   189 H    0.864
   168   6 C    3.910 --   170 C    1.379   166 C    1.347   169 O    1.029
   169   8 O    2.031 --   168 C    1.029   190 H    0.862
   170   6 C    3.976 --   162 C    1.398   168 C    1.379   191 H    0.970
   171   6 C    3.910 --   161 C    1.321   175 N    1.224   172 C    1.182
   172   6 C    3.960 --   173 C    1.643   171 C    1.182   192 H    0.974
   173   6 C    3.960 --   172 C    1.643   174 C    1.188   193 H    0.974
   174   6 C    3.903 --   175 N    1.263   134 C    1.252   173 C    1.188
   175   7 N    3.291 --   174 C    1.263   171 C    1.224   133 Zn   0.456
   176   1 H    1.003 --   136 C    0.974
   177   1 H    1.006 --   137 C    0.974
   178   1 H    1.001 --   142 C    0.969
   179   1 H    0.887 --   144 O    0.867
   180   1 H    0.882 --   146 O    0.851
   181   1 H    0.882 --   148 O    0.861
   182   1 H    1.001 --   149 C    0.969
   183   1 H    1.006 --   151 C    0.973
   184   1 H    1.002 --   152 C    0.974
   185   1 H    1.002 --   157 C    0.974
   186   1 H    1.005 --   158 C    0.974
   187   1 H    1.000 --   163 C    0.970
   188   1 H    0.881 --   165 O    0.848
   189   1 H    0.885 --   167 O    0.864
   190   1 H    0.886 --   169 O    0.862
   191   1 H    1.000 --   170 C    0.970
   192   1 H    1.006 --   172 C    0.974
   193   1 H    1.002 --   173 C    0.974
 ---------------------------------------------------------------------------

           -------------------------------------------------
          | TOTAL ENERGY             -375.210149674922 Eh   |
          | GRADIENT NORM               0.000715725865 Eh/α |
          | HOMO-LUMO GAP               0.902061748323 eV   |
           -------------------------------------------------

 * finished run on 2022/07/30 at 12:14:12.328
