   * xtb version 6.5.1 (b24c23e) compiled by 'conda@728c89f4b128' on 2022-07-12
          program call               : xtb Fe_PhCHO_C8_2.xyz --gfn 1 --opt -T 48

   ID    Z sym.   atoms
    1   26 Fe     1, 61
    2    6 C      2-6, 8-13, 15-19, 21-26, 28-33, 35-40, 62-66, 68-73, 75-79,
                  81-86, 88-93, 95-100, 121-128
    3    7 N      7, 20, 27, 41, 67, 80, 87, 101
    4    8 O      14, 34, 74, 94
    5    1 H      42-60, 102-120
########################################################################
[WARNING] Please study the warnings concerning your input carefully
-1- prog_main_parseArguments: Unknown option '-T' provided
########################################################################

          :  Hamiltonian                  GFN1-xTB          :
 * total energy  :  -230.6558768 Eh     change       -0.7906323E-08 Eh
 * total energy  :  -231.0350469 Eh     change       -0.3791701E+00 Eh
 * total energy  :  -231.1188612 Eh     change       -0.8381436E-01 Eh
 * total energy  :  -231.1524115 Eh     change       -0.3355023E-01 Eh
 * total energy  :  -231.1652479 Eh     change       -0.1283639E-01 Eh
 * total energy  :  -231.1723352 Eh     change       -0.7087282E-02 Eh
 * total energy  :  -231.1766287 Eh     change       -0.4293554E-02 Eh
 * total energy  :  -231.1782691 Eh     change       -0.1640383E-02 Eh
 * total energy  :  -231.1806203 Eh     change       -0.2351235E-02 Eh
 * total energy  :  -231.1819444 Eh     change       -0.1324033E-02 Eh
 * total energy  :  -231.1859771 Eh     change       -0.1807027E-04 Eh
 * total energy  :  -231.1859924 Eh     change       -0.1535422E-04 Eh
 * total energy  :  -231.1859925 Eh     change       -0.9668193E-07 Eh
 * total energy  :  -231.1860037 Eh     change       -0.1115604E-04 Eh
 * total energy  :  -231.1860108 Eh     change       -0.7065501E-05 Eh
 * total energy  :  -231.1860160 Eh     change       -0.5195332E-05 Eh
 * total energy  :  -231.1860212 Eh     change       -0.5209762E-05 Eh
 * total energy  :  -231.1860306 Eh     change       -0.9447925E-05 Eh
 * total energy  :  -231.1860335 Eh     change       -0.2906873E-05 Eh
   *** GEOMETRY OPTIMIZATION CONVERGED AFTER 43 ITERATIONS ***

 final structure:
================
128
 xtb: 6.5.1 (b24c23e)
Fe          13.30169629796474        0.03262089664671       -0.11217430142613
C            9.91500892761899        0.08886584424088       -0.22287032880063
C           10.57719433581643        1.29728601363958       -0.16103300088027
C            9.90859054817339        2.56319523633961       -0.13346291410145
C           10.86485888043009        3.50246288775481        0.05421513704898
C           12.11917089758592        2.80949040001138        0.12233909059681
N           11.93020108852672        1.46157456469576       -0.01829480773057
C           13.33761127463040        3.42982168294095        0.37687035270003
C           13.35483046810116        4.89524934149948        0.59757899204991
C           13.72565813283631        5.41429235616379        1.84120203500657
C           13.73924981112234        6.78004351720539        2.04988552875436
C           13.38866221985568        7.65679238515393        1.01797605652449
C           13.41415571837979        9.11049704266268        1.26467325832794
O           13.72319306523657        9.60483272226230        2.31830455318186
C           13.02236629613900        7.13840290754983       -0.22629586108125
C           13.00332498460340        5.77034881019459       -0.43318586530096
C           14.54204270183877        2.74254915891441        0.41711135762250
C           15.81396169222075        3.37797891172246        0.59577150900173
C           16.75572748753382        2.41786555461674        0.43700688097121
N           14.70907152990272        1.39925463573484        0.17576958538621
C           16.05746502666715        1.19997163574899        0.16765008011234
C           16.70942260420828       -0.01107922695793       -0.09677073278562
C           16.02604963227370       -1.21442964608375       -0.30905428755845
C           16.69037800418721       -2.45412787344118       -0.56310029120151
C           15.72751186045000       -3.40514079040580       -0.62177198978985
C           14.47703980346154       -2.74088619276019       -0.40266049093407
N           14.67590516631645       -1.39151229382687       -0.23647217281751
C           13.25106545728205       -3.39145312250248       -0.36644696596101
C           13.23156640124112       -4.86710928159903       -0.48666329795869
C           12.58233018437963       -5.47953179675382       -1.56228161808974
C           12.56725332866089       -6.85804120744442       -1.67867767497461
C           13.19786205852835       -7.65222143184615       -0.71796874407408
C           13.19423683693655       -9.12341232767537       -0.81827212083138
O           13.72592277823898       -9.84982073868515       -0.01843033616814
C           13.84637804838098       -7.03955149430108        0.35936437868696
C           13.86568384378463       -5.66272486022593        0.47232413988648
C           12.04084070633793       -2.71652552845827       -0.24729300878652
C           10.76181688253039       -3.36519135932802       -0.20275862545761
C            9.82736910666804       -2.38611445259598       -0.18485944372150
C           10.53644116094006       -1.14237831394469       -0.19645436551034
N           11.88989086391454       -1.35694806403257       -0.20012335316788
H            8.83211883418829        0.10764758828721       -0.27240434554128
H            8.84260926529999        2.69415958217770       -0.23023107999731
H           10.74281903532114        4.56910691870665        0.14971109488120
H           13.98877590525422        4.73572649739699        2.64467377583316
H           14.02024517515922        7.19186259705029        3.01322642243631
H           13.12102032762252        9.72680371929697        0.38808612014477
H           12.75332034683757        7.81213688035399       -1.03332679171906
H           12.73039589493415        5.37059368738512       -1.40326938732447
H           15.95783801120065        4.42732325655998        0.79471741434954
H           17.82833162842263        2.51146697186335        0.48960884444160
H           17.75646016869736       -2.56665679781742       -0.67678383793169
H           15.84276184606273       -4.46032092936998       -0.80822195140277
H           12.10376081925398       -4.86520286815421       -2.31662385071930
H           12.06565045820039       -7.32516188137553       -2.51998841735577
H           12.65476535495957       -9.51833205153891       -1.70552236779948
H           14.33118303769401       -7.66445872551663        1.10171764845696
H           14.35944147266091       -5.19059529121322        1.31408573315521
H           10.61089665125485       -4.43225320157373       -0.18442016134885
H            8.75319612452972       -2.47749012803210       -0.15915554464173
Fe          31.84850409180529       -0.01982957447823       -0.11521299858917
C           35.23533505453494       -0.05645073019525       -0.23420234193171
C           34.57429056228820       -1.26199298010016       -0.34496588005872
C           35.24401393765538       -2.51830958157914       -0.49814483829113
C           34.28869350745506       -3.47564122030742       -0.44541358941100
C           33.03380625021195       -2.80058715629652       -0.27890577448904
N           33.22149761090117       -1.44618872913601       -0.22660374838293
C           31.81596088250844       -3.45188400679468       -0.11532283422998
C           31.79972031196231       -4.93384573209873       -0.10560504104152
C           31.42988887288903       -5.62475184185700        1.05172302985434
C           31.41605810632978       -7.00629075631529        1.06367299349694
C           31.76538989698549       -7.72710261934551       -0.08300375955589
C           31.73903744758617       -9.20112558856784       -0.04604726569170
O           31.43040855317728       -9.84040664283421        0.92663218070513
C           32.13108775253531       -7.03676195548262       -1.24092651032072
C           32.15044871200050       -5.65316293533006       -1.25075328399659
C           30.61088933056342       -2.77845102258736        0.02249879879770
C           29.33963231661605       -3.43415540469361        0.10905762262589
C           28.39689766783628       -2.46212745849381        0.09002227752375
N           30.44250553382551       -1.41465144768882       -0.02433638717370
C           29.09388458546198       -1.21752052377754       -0.00259973703129
C           28.44056306614262        0.01810106475764       -0.09087899656643
C           29.12273528576620        1.24014280706984       -0.13036143843843
C           28.45725968304276        2.50274502030581       -0.20573456104460
C           29.41939455424299        3.45331396414825       -0.13017223855354
C           30.67050117121842        2.76577444231447       -0.00831776966586
N           30.47278876829285        1.40625056611368       -0.03495542215590
C           31.89593704726726        3.40551424804504        0.11983602060903
C           31.91469923652682        4.88329189236522        0.21043432087548
C           32.56371455718904        5.64253039352384       -0.76725169240636
C           32.57937217320656        7.02353528946603       -0.68595383580985
C           31.94956473714338        7.67284070047874        0.37850586015133
C           31.95413856092361        9.14324466023736        0.48917566304122
O           31.42439710917993        9.74831926841970        1.38551695613188
C           31.30096937018560        6.91311411942553        1.35765748311451
C           31.28094982764286        5.53426677194669        1.27311565762398
C           33.10671755437204        2.72148210952013        0.14231582671624
C           34.38506956738411        3.35842973146215        0.27918823525323
C           35.32051202243589        2.38778081650116        0.15714350161347
C           34.61269655574169        1.15773548718488       -0.03194958894350
N           33.25901419334184        1.36925101359232       -0.00505503508174
H           36.31820388693144       -0.06678402415675       -0.28660166449304
H           36.31006054214888       -2.63311815791895       -0.61304555727782
H           34.41169046595132       -4.54492019433750       -0.50253782924175
H           31.16751095945649       -5.06751263862472        1.94385447850860
H           31.13562787426187       -7.55115251022726        1.95869427290367
H           32.03108451477160       -9.68635704803919       -1.00176636927946
H           32.39926453432521       -7.58868288523739       -2.13596358331878
H           32.42286985115124       -5.11931745516062       -2.15416681331335
H           29.19687907634257       -4.50131941619660        0.15572245572876
H           27.32439887697336       -2.56322537122163        0.12946637718292
H           27.39098560654782        2.62940697669963       -0.30115564869012
H           29.30322850845846        4.52417780899930       -0.16534953057901
H           33.04180339547396        5.14178530270520       -1.60160983679339
H           33.08094022729926        7.60563603811135       -1.45224735873054
H           32.49507960992617        9.66042113149191       -0.33183332322188
H           30.81667483915023        7.42600795779520        2.18167750739179
H           30.78712553245434        4.94711405479893        2.03905126375167
H           34.53486059264990        4.41206647330171        0.44990130451324
H           36.39458358458332        2.47568797092325        0.19581348664522
C           18.10959929709876       -0.01875763077860       -0.12945775143704
C           19.33591025034761       -0.01210160028600       -0.15127448244551
C           20.67509699045528       -0.00336340263286       -0.16748202793936
C           21.90779033885850        0.01096294644121       -0.17721863185462
C           23.24219108376872        0.02136941269704       -0.17370098653251
C           24.47498644727236        0.02993858883905       -0.16505311877819
C           25.81417207218499        0.03218812216842       -0.14614708171199
C           27.04039454323381        0.03002376351103       -0.12214106493485

          :  Hamiltonian                  GFN1-xTB          :
         :: total energy            -231.186033515520 Eh    ::
         :: gradient norm              0.000489572263 Eh/a0 ::
         :: HOMO-LUMO gap              0.090081249972 eV    ::
         :: SCC energy              -234.884737043734 Eh    ::
         :: repulsion energy           3.811860787054 Eh    ::

    * Orbital Energies and Occupations

         #    Occupation            Energy/Eh            Energy/eV
      -------------------------------------------------------------
         1        2.0000           -0.7932181             -21.5846
       ...           ...                  ...                  ...
       199        2.0000           -0.4399183             -11.9708
       200        2.0000           -0.4317114             -11.7475
       201        2.0000           -0.4230085             -11.5106
       202        2.0000           -0.4098614             -11.1529
       203        2.0000           -0.4098530             -11.1527
       204        2.0000           -0.4081334             -11.1059
       205        1.9927           -0.4024798             -10.9520
       206        1.9911           -0.4023001             -10.9471
       207        1.9459           -0.4005594             -10.8998
       208        1.9450           -0.4005433             -10.8993
       209        1.9381           -0.4004285             -10.8962
       210        1.9380           -0.4004266             -10.8962
       211        1.7064           -0.3988285             -10.8527 (HOMO)
       212        0.3025           -0.3955180             -10.7626 (LUMO)
       213        0.2405           -0.3952658             -10.7557
       214                         -0.3527952              -9.6000
       215                         -0.3438177              -9.3558
       216                         -0.3438021              -9.3553
       217                         -0.3416821              -9.2976
       218                         -0.3290090              -8.9528
       219                         -0.3286802              -8.9438
       220                         -0.3239303              -8.8146
       221                         -0.3238968              -8.8137
       222                         -0.3170136              -8.6264
       ...                                ...                  ...
       446                          1.5875552              43.1996
      -------------------------------------------------------------
                  HL-Gap            0.0033104 Eh            0.0901 eV

Wiberg/Mayer (AO) data.
largest (>0.10) Wiberg bond orders for each atom

     #   Z sym  total        # sym  WBO       # sym  WBO       # sym  WBO
 ---------------------------------------------------------------------------
     1  26 Fe   3.148 --    41 N    0.671     7 N    0.667    20 N    0.664
                            27 N    0.660
     2   6 C    3.925 --     3 C    1.364    40 C    1.363    42 H    0.970
     3   6 C    3.923 --     2 C    1.364     7 N    1.209     4 C    1.172
     4   6 C    3.959 --     5 C    1.651     3 C    1.172    43 H    0.975
     5   6 C    3.961 --     4 C    1.651     6 C    1.174    44 H    0.972
     6   6 C    3.920 --     8 C    1.312     7 N    1.226     5 C    1.174
     7   7 N    3.381 --     6 C    1.226     3 C    1.209     1 Fe   0.667
     8   6 C    3.926 --    17 C    1.335     6 C    1.312     9 C    1.026
     9   6 C    3.986 --    16 C    1.385    10 C    1.383     8 C    1.026
    10   6 C    3.987 --    11 C    1.470     9 C    1.383    45 H    0.972
                            15 C    0.101
    11   6 C    3.988 --    10 C    1.470    12 C    1.371    46 H    0.968
                            16 C    0.101
    12   6 C    3.984 --    15 C    1.379    11 C    1.371    13 C    1.048
    13   6 C    3.864 --    14 O    1.810    12 C    1.048    47 H    0.942
    14   8 O    2.005 --    13 C    1.810
    15   6 C    3.993 --    16 C    1.464    12 C    1.379    48 H    0.971
                            10 C    0.101
    16   6 C    3.987 --    15 C    1.464     9 C    1.385    49 H    0.972
                            11 C    0.101
    17   6 C    3.916 --     8 C    1.335    20 N    1.199    18 C    1.178
    18   6 C    3.956 --    19 C    1.640    17 C    1.178    50 H    0.973
    19   6 C    3.960 --    18 C    1.640    21 C    1.187    51 H    0.973
    20   7 N    3.383 --    21 C    1.246    17 C    1.199     1 Fe   0.664
    21   6 C    3.901 --    22 C    1.249    20 N    1.246    19 C    1.187
    22   6 C    3.926 --    23 C    1.251    21 C    1.249   121 C    1.205
    23   6 C    3.902 --    22 C    1.251    27 N    1.244    24 C    1.188
    24   6 C    3.959 --    25 C    1.638    23 C    1.188    52 H    0.973
    25   6 C    3.956 --    24 C    1.638    26 C    1.179    53 H    0.973
    26   6 C    3.916 --    28 C    1.330    27 N    1.203    25 C    1.179
    27   7 N    3.381 --    23 C    1.244    26 C    1.203     1 Fe   0.660
    28   6 C    3.927 --    26 C    1.330    37 C    1.313    29 C    1.032
    29   6 C    3.986 --    30 C    1.383    36 C    1.381    28 C    1.032
    30   6 C    3.987 --    31 C    1.465    29 C    1.383    54 H    0.972
                            35 C    0.101
    31   6 C    3.993 --    30 C    1.465    32 C    1.379    55 H    0.971
                            36 C    0.100
    32   6 C    3.983 --    31 C    1.379    35 C    1.370    33 C    1.048
    33   6 C    3.864 --    34 O    1.809    32 C    1.048    56 H    0.942
    34   8 O    2.005 --    33 C    1.809
    35   6 C    3.988 --    36 C    1.470    32 C    1.370    57 H    0.968
                            30 C    0.101
    36   6 C    3.987 --    35 C    1.470    29 C    1.381    58 H    0.972
                            31 C    0.100
    37   6 C    3.920 --    28 C    1.313    41 N    1.225    38 C    1.174
    38   6 C    3.961 --    39 C    1.650    37 C    1.174    59 H    0.972
    39   6 C    3.959 --    38 C    1.650    40 C    1.173    60 H    0.975
    40   6 C    3.923 --     2 C    1.363    41 N    1.209    39 C    1.173
    41   7 N    3.383 --    37 C    1.225    40 C    1.209     1 Fe   0.671
    42   1 H    1.000 --     2 C    0.970
    43   1 H    0.997 --     4 C    0.975
    44   1 H    1.004 --     5 C    0.972
    45   1 H    1.003 --    10 C    0.972
    46   1 H    1.004 --    11 C    0.968
    47   1 H    1.010 --    13 C    0.942
    48   1 H    1.000 --    15 C    0.971
    49   1 H    1.003 --    16 C    0.972
    50   1 H    1.003 --    18 C    0.973
    51   1 H    1.001 --    19 C    0.973
    52   1 H    1.001 --    24 C    0.973
    53   1 H    1.003 --    25 C    0.973
    54   1 H    1.004 --    30 C    0.972
    55   1 H    1.000 --    31 C    0.971
    56   1 H    1.010 --    33 C    0.942
    57   1 H    1.005 --    35 C    0.968
    58   1 H    1.003 --    36 C    0.972
    59   1 H    1.004 --    38 C    0.972
    60   1 H    0.997 --    39 C    0.975
    61  26 Fe   3.147 --   101 N    0.671    67 N    0.667    80 N    0.664
                            87 N    0.660
    62   6 C    3.925 --    63 C    1.364   100 C    1.363   102 H    0.970
    63   6 C    3.923 --    62 C    1.364    67 N    1.209    64 C    1.172
    64   6 C    3.959 --    65 C    1.651    63 C    1.172   103 H    0.975
    65   6 C    3.961 --    64 C    1.651    66 C    1.174   104 H    0.972
    66   6 C    3.920 --    68 C    1.312    67 N    1.226    65 C    1.174
    67   7 N    3.381 --    66 C    1.226    63 C    1.209    61 Fe   0.667
    68   6 C    3.926 --    77 C    1.335    66 C    1.312    69 C    1.026
    69   6 C    3.986 --    76 C    1.385    70 C    1.382    68 C    1.026
    70   6 C    3.987 --    71 C    1.470    69 C    1.382   105 H    0.972
                            75 C    0.101
    71   6 C    3.988 --    70 C    1.470    72 C    1.371   106 H    0.968
                            76 C    0.101
    72   6 C    3.984 --    75 C    1.379    71 C    1.371    73 C    1.048
    73   6 C    3.864 --    74 O    1.810    72 C    1.048   107 H    0.942
    74   8 O    2.005 --    73 C    1.810
    75   6 C    3.993 --    76 C    1.464    72 C    1.379   108 H    0.971
                            70 C    0.101
    76   6 C    3.987 --    75 C    1.464    69 C    1.385   109 H    0.972
                            71 C    0.101
    77   6 C    3.916 --    68 C    1.335    80 N    1.199    78 C    1.178
    78   6 C    3.956 --    79 C    1.640    77 C    1.178   110 H    0.973
    79   6 C    3.960 --    78 C    1.640    81 C    1.187   111 H    0.973
    80   7 N    3.383 --    81 C    1.246    77 C    1.199    61 Fe   0.664
    81   6 C    3.901 --    82 C    1.249    80 N    1.246    79 C    1.187
    82   6 C    3.926 --    83 C    1.251    81 C    1.249   128 C    1.205
    83   6 C    3.902 --    82 C    1.251    87 N    1.244    84 C    1.188
    84   6 C    3.959 --    85 C    1.638    83 C    1.188   112 H    0.973
    85   6 C    3.956 --    84 C    1.638    86 C    1.179   113 H    0.973
    86   6 C    3.916 --    88 C    1.330    87 N    1.202    85 C    1.179
    87   7 N    3.381 --    83 C    1.244    86 C    1.202    61 Fe   0.660
    88   6 C    3.927 --    86 C    1.330    97 C    1.313    89 C    1.032
    89   6 C    3.986 --    90 C    1.383    96 C    1.381    88 C    1.032
    90   6 C    3.987 --    91 C    1.465    89 C    1.383   114 H    0.972
                            95 C    0.101
    91   6 C    3.993 --    90 C    1.465    92 C    1.379   115 H    0.971
                            96 C    0.100
    92   6 C    3.983 --    91 C    1.379    95 C    1.370    93 C    1.048
    93   6 C    3.864 --    94 O    1.809    92 C    1.048   116 H    0.942
    94   8 O    2.005 --    93 C    1.809
    95   6 C    3.988 --    96 C    1.470    92 C    1.370   117 H    0.968
                            90 C    0.101
    96   6 C    3.987 --    95 C    1.470    89 C    1.381   118 H    0.972
                            91 C    0.100
    97   6 C    3.920 --    88 C    1.313   101 N    1.225    98 C    1.174
    98   6 C    3.961 --    99 C    1.650    97 C    1.174   119 H    0.972
    99   6 C    3.959 --    98 C    1.650   100 C    1.173   120 H    0.975
   100   6 C    3.923 --    62 C    1.363   101 N    1.209    99 C    1.173
   101   7 N    3.383 --    97 C    1.225   100 C    1.209    61 Fe   0.671
   102   1 H    1.000 --    62 C    0.970
   103   1 H    0.997 --    64 C    0.975
   104   1 H    1.004 --    65 C    0.972
   105   1 H    1.003 --    70 C    0.972
   106   1 H    1.004 --    71 C    0.968
   107   1 H    1.010 --    73 C    0.942
   108   1 H    1.000 --    75 C    0.971
   109   1 H    1.003 --    76 C    0.972
   110   1 H    1.003 --    78 C    0.973
   111   1 H    1.001 --    79 C    0.973
   112   1 H    1.001 --    84 C    0.973
   113   1 H    1.003 --    85 C    0.973
   114   1 H    1.004 --    90 C    0.972
   115   1 H    1.000 --    91 C    0.971
   116   1 H    1.010 --    93 C    0.942
   117   1 H    1.005 --    95 C    0.968
   118   1 H    1.003 --    96 C    0.972
   119   1 H    1.004 --    98 C    0.972
   120   1 H    0.997 --    99 C    0.975
   121   6 C    3.865 --   122 C    2.412    22 C    1.205   124 C    0.182
   122   6 C    3.923 --   121 C    2.412   123 C    1.363
   123   6 C    3.880 --   124 C    2.306   122 C    1.363   126 C    0.177
   124   6 C    3.914 --   123 C    2.306   125 C    1.389   121 C    0.182
   125   6 C    3.914 --   126 C    2.306   124 C    1.389   128 C    0.182
   126   6 C    3.880 --   125 C    2.306   127 C    1.363   123 C    0.177
   127   6 C    3.923 --   128 C    2.412   126 C    1.363
   128   6 C    3.865 --   127 C    2.412    82 C    1.205   125 C    0.182
 ---------------------------------------------------------------------------

           -------------------------------------------------
          | TOTAL ENERGY             -231.186033515520 Eh   |
          | GRADIENT NORM               0.000489572263 Eh/α |
          | HOMO-LUMO GAP               0.090081249972 eV   |
           -------------------------------------------------

 * finished run on 2022/07/29 at 16:52:17.473
