   * xtb version 6.5.1 (b24c23e) compiled by 'conda@728c89f4b128' on 2022-07-12
          program call               : xtb Zn_Py_C8_3.xyz --gfn 1 --opt -T 48

   ID    Z sym.   atoms
    1   30 Zn     1, 55, 125
    2    6 C      2-6, 8-11, 13-17, 19-24, 26-29, 31-36, 56-60, 62-65, 67-71,
                  73-78, 80-83, 85-90, 109-124, 126-130, 132-135, 137-141,
                  143-148, 150-153, 155-160
    3    7 N      7, 12, 18, 25, 30, 37, 61, 66, 72, 79, 84, 91, 131, 136,
                  142, 149, 154, 161
    4    1 H      38-54, 92-108, 162-177

          :  Hamiltonian                  GFN1-xTB          :
 * total energy  :  -309.3513902 Eh     change       -0.1949741E-07 Eh
 * total energy  :  -309.7293887 Eh     change       -0.3779985E+00 Eh
 * total energy  :  -309.8555085 Eh     change       -0.1261199E+00 Eh
 * total energy  :  -309.9042922 Eh     change       -0.4878370E-01 Eh
 * total energy  :  -309.9334732 Eh     change       -0.2918095E-01 Eh
 * total energy  :  -309.9642130 Eh     change       -0.3073985E-01 Eh
 * total energy  :  -310.0029740 Eh     change       -0.3876096E-01 Eh
 * total energy  :  -310.0441601 Eh     change       -0.4118609E-01 Eh
 * total energy  :  -310.0846533 Eh     change       -0.4049327E-01 Eh
 * total energy  :  -310.1154667 Eh     change       -0.3081332E-01 Eh
 * total energy  :  -310.3536652 Eh     change       -0.1439293E-04 Eh
 * total energy  :  -310.3536533 Eh     change        0.1186033E-04 Eh
 * total energy  :  -310.3536691 Eh     change       -0.1571785E-04 Eh
 * total energy  :  -310.3536540 Eh     change        0.1501227E-04 Eh
 * total energy  :  -310.3536713 Eh     change       -0.1728689E-04 Eh
 * total energy  :  -310.3536608 Eh     change        0.1048650E-04 Eh
 * total energy  :  -310.3536739 Eh     change       -0.1306657E-04 Eh
 * total energy  :  -310.3536718 Eh     change        0.2087835E-05 Eh
 * total energy  :  -310.3536763 Eh     change       -0.4499508E-05 Eh
   *** GEOMETRY OPTIMIZATION CONVERGED AFTER 78 ITERATIONS ***

 final structure:
================
177
 xtb: 6.5.1 (b24c23e)
Zn          19.57381030322219       -0.02052299055323       -0.01647975247209
C           16.16401025264330       -0.05290577341929       -0.03040061716668
C           16.79371937304995       -1.28452568471036        0.10270259139266
C           16.11973670890873       -2.54240220467247        0.26530947881500
C           17.07862497749106       -3.49502514039963        0.37805381598429
C           18.35142065400662       -2.83091738562995        0.27673654958501
N           18.14320610499130       -1.49241712754053        0.11704886899794
C           19.60291303661353       -3.45318720089419        0.36320201929674
C           19.61496450364454       -4.92695906935644        0.52870923287774
C           20.16121312419453       -5.52460193643507        1.66414088222847
C           20.14659894960253       -6.90597445742630        1.77504985535323
N           19.63656617013885       -7.70254504268667        0.84111120526932
C           19.11618160058394       -7.14137866606844       -0.24572421554593
C           19.07993854128079       -5.77028032669628       -0.44456978867798
C           20.84242380105688       -2.80699833495858        0.30797323915303
C           22.12193812226892       -3.45976694354565        0.35135618759234
C           23.06830746904915       -2.49202438170210        0.25093709732211
N           21.03623410509698       -1.45836357738328        0.17011088433906
C           22.37803244438151       -1.24070313844549        0.13700385831385
C           23.00935791636361        0.01172138576616       -0.00409835224725
C           22.35569816167099        1.25230319600088       -0.14694712738655
C           23.02325688444078        2.50946280477636       -0.31734179298252
C           22.05961054678961        3.45933031874965       -0.42430081466279
C           20.79213426402509        2.79137219937270       -0.31208207562080
N           21.01019326216117        1.44884060923059       -0.15294092690208
C           19.54109203207566        3.41331852612896       -0.38557114918615
C           19.52667154412030        4.88842644448180       -0.53707420436339
C           18.96424736764004        5.49774857691563       -1.65832197561884
C           18.97542203189441        6.88032104041262       -1.75406282041259
N           19.49697425298286        7.66742047215061       -0.81849395382873
C           20.03355572453716        7.09511439100570        0.25458990979410
C           20.07400165280045        5.72203786188859        0.43786779817248
C           18.30091795465247        2.76549134594212       -0.32646749492686
C           17.01628825292876        3.41362118923381       -0.35914516754606
C           16.07484586241067        2.44196989609217       -0.26302921303619
C           16.77147485136704        1.19011925660325       -0.16081982521280
N           18.11697580978263        1.42008834074756       -0.19789561784056
H           15.07843805960978       -0.06166499267356       -0.02110472721780
H           15.04868235505587       -2.66761863431339        0.29529251096085
H           16.94132508849736       -4.55378601398433        0.52895131511401
H           20.57752279151888       -4.91458555900536        2.45702570606555
H           20.56220177197836       -7.39345822386204        2.65219134676242
H           18.71000622476451       -7.81799550188609       -0.99201240845077
H           18.65619571814154       -5.35835961737261       -1.35274374280288
H           22.27481519247594       -4.52369672472503        0.43437455809956
H           24.14040226957248       -2.60808438663535        0.24656751766728
H           24.09303535860653        2.63981756445334       -0.35590102471306
H           22.19321705918530        4.51783898280622       -0.57897531005767
H           18.53853784213260        4.89608249542508       -2.45260857635186
H           18.54713641259452        7.37678530250972       -2.62000633024496
H           20.44955683796376        7.76402340213180        1.00241950529450
H           20.51105354918488        5.30069254495555        1.33540533966140
H           16.85958789579584        4.47780953416770       -0.43349033154266
H           15.00173841263674        2.55192571645129       -0.25366505256508
Zn          56.81386295046420        0.02389847796408       -0.01246965399344
C           60.22360936500297        0.04025191213773       -0.05829861051972
C           59.59609301665206        1.25846550294247       -0.28925574128932
C           60.27241211657877        2.50640178733363       -0.50881788788310
C           59.31525216803865        3.45254795119125       -0.67718004762745
C           58.04117776722249        2.79168475657338       -0.57107658252788
N           58.24694896089863        1.46517877117889       -0.32924335093845
C           56.79087856780762        3.41490481346632       -0.66703811856433
C           56.78118352579645        4.87178811158839       -0.94452185248478
C           56.24225734926701        5.77951228266787       -0.03327006136045
C           56.25895524522776        7.13200388169251       -0.33525950740983
N           56.76402333070035        7.61583586272348       -1.46562447386275
C           57.27708500275567        6.75734101535335       -2.34121177177829
C           57.31103518414712        5.38858401435772       -2.12639638525311
C           55.55036642496592        2.78451905404162       -0.52336315199633
C           54.27194343605245        3.42399285851916       -0.67093540089006
C           53.32387508168708        2.47264502362909       -0.47508512264519
N           55.35420359736916        1.45640121602262       -0.25311577631618
C           54.01201890893790        1.24240673448931       -0.21391674784596
C           53.37842543126454        0.00756226323004        0.03291180435425
C           54.02987694577497       -1.22051537505978        0.26592416262097
C           53.35976951889671       -2.46905521250829        0.48317853823554
C           54.32163059897000       -3.41170883655636        0.65212045585946
C           55.59066638212622       -2.74540700071902        0.54802390320088
N           55.37510549791722       -1.41496636815395        0.30537880562232
C           56.84053164451433       -3.36622747378708        0.64651018948349
C           56.85294000713210       -4.82178550899959        0.93001536341603
C           57.40193937385626       -5.73157863988587        0.02681661657857
C           57.38912851083214       -7.08266072457491        0.33523844537187
N           56.87830429293174       -7.56344096020895        1.46429053087265
C           56.35483333131582       -6.70311397447046        2.33189928334901
C           56.31708472920840       -5.33553978495482        2.11059484658347
C           58.08165410069494       -2.73399323215684        0.50107549610604
C           59.36535512829873       -3.36784081417397        0.64856254758772
C           60.30849379028476       -2.41375481468622        0.44885392441765
C           59.61393400019665       -1.18441782901954        0.18585241565200
N           58.26793724891260       -1.41057218978535        0.22856519816345
H           61.30922942832564        0.04797790876467       -0.05929416097467
H           61.34376513944365        2.63184546997607       -0.52306506322645
H           59.45454344438018        4.50824818208148       -0.84658621245657
H           55.83008192375424        5.43187067570386        0.90657817368574
H           55.84953652652760        7.85780049553778        0.36112724313127
H           57.67940510450037        7.18231439091715       -3.25624840985167
H           57.72908001598169        4.72568117755853       -2.87463956192322
H           54.12089392819504        4.46490347459899       -0.90737705661145
H           52.25192128610964        2.58503137514539       -0.50908809408673
H           52.28955487746518       -2.60089628116738        0.49606342413987
H           54.18561252161574       -4.46799671572929        0.81933808171476
H           57.81851031876995       -5.38693661855854       -0.91224037728711
H           57.80692309865410       -7.81000998221945       -0.35481626549544
H           55.94747666259774       -7.12552290685786        3.24588523304811
H           55.89097443850989       -4.67095816843203        2.85279676505227
H           59.52037576030321       -4.40780910175662        0.88734786847337
H           61.38154091660073       -2.51984387857416        0.48130039696940
C           24.41451197900022        0.02244793816339       -0.01139358237978
C           25.63919863968110        0.02822881116339       -0.01548279520234
C           26.98180964675107        0.03148529527206       -0.02017316209050
C           28.21257037927823        0.03105919449728       -0.02471578126448
C           29.55038576954039        0.02891753864141       -0.02877917800804
C           30.78119894033440        0.02496396067906       -0.03304532933067
C           32.12361096524945        0.01988761444488       -0.03637804425730
C           33.34849204149079        0.01387578881429       -0.03910890465011
C           43.03953248507600        0.00734246240490       -0.00905572853058
C           44.26443035176587        0.00617419780876        0.00131649882802
C           45.60672711212270        0.00397880428045        0.01176942414572
C           46.83755021293445        0.00072624940229        0.02117962270347
C           48.17525820803088       -0.00140354000354        0.02942607654691
C           49.40604893093928       -0.00346191098395        0.03487653307351
C           50.74858911307727       -0.00242784489428        0.03757719662290
C           51.97333960706272       -0.00060900836198        0.03591657495132
Zn          38.19397277072629        0.00311504522534       -0.03272765240641
C           34.75303452244436        0.00858332474764       -0.03945184024234
C           35.39390633741928       -0.89420039349239        0.83337190144161
C           34.71339098814220       -1.78146611028908        1.72968042520288
C           35.66734006119814       -2.48113517829257        2.39576600781708
C           36.94039368697300       -2.03215440213847        1.90538955813579
N           36.73723138413188       -1.06155363697761        0.96126077876921
C           38.18533168923569       -2.49331260315790        2.34635113560657
C           38.18209939675901       -3.56590679213983        3.37138370068987
C           37.64138378925034       -4.82293329072153        3.10377329575824
C           37.66461273332067       -5.79331759324857        4.09309368912296
N           38.17686894607371       -5.58380360016343        5.30155860887907
C           38.69168278050133       -4.38722730636267        5.56595143972616
C           38.72005053229361       -3.35590399846083        4.64054324062584
C           39.43335640508456       -2.03503374638785        1.91113837691081
C           40.70311108075271       -2.55007569262148        2.34142948354662
C           41.66192566712773       -1.85234685804457        1.68032161447498
N           39.64331378081010       -1.04523237897195        0.98867662623846
C           40.98770799941548       -0.91192218735382        0.83494013519873
C           41.63510873600761        0.00571872586842       -0.01744907810881
C           40.99412812162690        0.92039415996573       -0.87770501826395
C           41.67438244006343        1.85895178832049       -1.72031110615334
C           40.72042556628893        2.55176844847027       -2.39354525729140
C           39.44765588061168        2.03638129801399       -1.97258226483733
N           39.65093001059083        1.05063669202136       -1.04434687689214
C           38.20278334895086        2.49215903999673       -2.41945867178164
C           38.20686598365229        3.55876614667656       -3.45069282269955
C           38.75447321752504        3.34121409068852       -4.71445634457944
C           38.73172250970232        4.36645017933525       -5.64676546063766
N           38.21352198095354        5.56407050523206       -5.39401142387308
C           37.69235074386211        5.78090180886468       -4.19065045883085
C           37.66306773897418        4.81699809022799       -3.19518247970886
C           36.95464354702105        2.03447711750412       -1.98384705146010
C           35.68491878194527        2.48449753757183       -2.48191195331282
C           34.72615270444613        1.79167989350081       -1.81559982454222
C           35.40034807899295        0.90637932377135       -0.91264221581253
N           36.74469555240882        1.06875675792486       -1.03616624478993
H           33.64242466647736       -1.85021565093836        1.83521766155928
H           35.52342058178588       -3.22769239205080        3.16004176345248
H           37.22269634863388       -5.04237990686249        2.12878536965723
H           37.25423597929966       -6.78145335542414        3.90638199944882
H           39.09994289566550       -4.24570692456066        6.56243682464115
H           39.14075339835350       -2.39276406040359        4.90407134115993
H           40.84173989490457       -3.35069410729823        3.04992060380937
H           42.73230594897738       -1.96353410742736        1.74918101721629
H           42.74517397903669        1.97182596089618       -1.77957043796232
H           40.86402055906652        3.34954913166298       -3.10425655959878
H           39.17812163287090        2.37685908162964       -4.96866198695447
H           39.14739285734809        4.21890179641025       -6.63930902464945
H           37.27942500466132        6.76972031952373       -4.01342215169361
H           37.23716473352727        5.04240606337223       -2.22468843516300
H           35.54619453958720        3.22721300592993       -3.25086716342351
H           33.65582672257153        1.86317297950176       -1.92573136597662

          :  Hamiltonian                  GFN1-xTB          :
         :: total energy            -310.353676318461 Eh    ::
         :: gradient norm              0.000224629639 Eh/a0 ::
         :: HOMO-LUMO gap              0.987520295357 eV    ::
         :: SCC energy              -315.604448943089 Eh    ::
         :: repulsion energy           5.409125269733 Eh    ::

    * Orbital Energies and Occupations

         #    Occupation            Energy/Eh            Energy/eV
      -------------------------------------------------------------
         1        2.0000           -0.7670682             -20.8730
       ...           ...                  ...                  ...
       273        2.0000           -0.4189622             -11.4005
       274        2.0000           -0.4189595             -11.4005
       275        2.0000           -0.4189518             -11.4003
       276        2.0000           -0.4188927             -11.3986
       277        2.0000           -0.4133829             -11.2487
       278        2.0000           -0.4104616             -11.1692
       279        2.0000           -0.4086999             -11.1213
       280        2.0000           -0.4003567             -10.8943
       281        2.0000           -0.3990659             -10.8591
       282        2.0000           -0.3990572             -10.8589
       283        2.0000           -0.3909440             -10.6381
       284        2.0000           -0.3868222             -10.5260
       285        2.0000           -0.3813594             -10.3773 (HOMO)
       286                         -0.3450687              -9.3898 (LUMO)
       287                         -0.3374865              -9.1835
       288                         -0.3336078              -9.0779
       289                         -0.3336057              -9.0779
       290                         -0.3327569              -9.0548
       291                         -0.3327399              -9.0543
       292                         -0.3124649              -8.5026
       293                         -0.3043392              -8.2815
       294                         -0.3038795              -8.2690
       295                         -0.2980459              -8.1102
       296                         -0.2952985              -8.0355
       ...                                ...                  ...
       608                          1.6041050              43.6499
      -------------------------------------------------------------
                  HL-Gap            0.0362907 Eh            0.9875 eV

Wiberg/Mayer (AO) data.
largest (>0.10) Wiberg bond orders for each atom

     #   Z sym  total        # sym  WBO       # sym  WBO       # sym  WBO
 ---------------------------------------------------------------------------
     1  30 Zn   1.995 --    37 N    0.459     7 N    0.459    25 N    0.455
                            18 N    0.455
     2   6 C    3.928 --    36 C    1.358     3 C    1.358    38 H    0.971
     3   6 C    3.921 --     2 C    1.358     7 N    1.233     4 C    1.170
     4   6 C    3.960 --     5 C    1.660     3 C    1.170    39 H    0.975
     5   6 C    3.963 --     4 C    1.660     6 C    1.172    40 H    0.973
     6   6 C    3.919 --     8 C    1.313     7 N    1.245     5 C    1.172
     7   7 N    3.294 --     6 C    1.245     3 C    1.233     1 Zn   0.459
     8   6 C    3.934 --    15 C    1.324     6 C    1.313     9 C    1.029
     9   6 C    3.985 --    14 C    1.392    10 C    1.392     8 C    1.029
                            12 N    0.107
    10   6 C    3.987 --    11 C    1.443     9 C    1.392    41 H    0.973
                            13 C    0.108
    11   6 C    3.972 --    10 C    1.443    12 N    1.415    42 H    0.972
                            14 C    0.108
    12   7 N    3.029 --    13 C    1.415    11 C    1.415     9 C    0.107
    13   6 C    3.972 --    14 C    1.442    12 N    1.415    43 H    0.972
                            10 C    0.108
    14   6 C    3.987 --    13 C    1.442     9 C    1.392    44 H    0.973
                            11 C    0.108
    15   6 C    3.913 --     8 C    1.324    18 N    1.225    16 C    1.178
    16   6 C    3.960 --    17 C    1.648    15 C    1.178    45 H    0.973
    17   6 C    3.962 --    16 C    1.648    19 C    1.185    46 H    0.974
    18   7 N    3.297 --    19 C    1.263    15 C    1.225     1 Zn   0.455
    19   6 C    3.901 --    18 N    1.263    20 C    1.253    17 C    1.185
    20   6 C    3.939 --    21 C    1.254    19 C    1.253   109 C    1.192
    21   6 C    3.901 --    25 N    1.263    20 C    1.254    22 C    1.185
    22   6 C    3.962 --    23 C    1.647    21 C    1.185    47 H    0.974
    23   6 C    3.960 --    22 C    1.647    24 C    1.178    48 H    0.973
    24   6 C    3.913 --    26 C    1.323    25 N    1.225    23 C    1.178
    25   7 N    3.297 --    21 C    1.263    24 C    1.225     1 Zn   0.455
    26   6 C    3.934 --    24 C    1.323    33 C    1.312    27 C    1.029
    27   6 C    3.985 --    28 C    1.392    32 C    1.392    26 C    1.029
                            30 N    0.107
    28   6 C    3.987 --    29 C    1.442    27 C    1.392    49 H    0.973
                            31 C    0.108
    29   6 C    3.972 --    28 C    1.442    30 N    1.415    50 H    0.972
                            32 C    0.108
    30   7 N    3.029 --    29 C    1.415    31 C    1.415    27 C    0.107
    31   6 C    3.972 --    32 C    1.443    30 N    1.415    51 H    0.972
                            28 C    0.108
    32   6 C    3.987 --    31 C    1.443    27 C    1.392    52 H    0.973
                            29 C    0.108
    33   6 C    3.919 --    26 C    1.312    37 N    1.245    34 C    1.172
    34   6 C    3.963 --    35 C    1.660    33 C    1.172    53 H    0.973
    35   6 C    3.960 --    34 C    1.660    36 C    1.170    54 H    0.975
    36   6 C    3.921 --     2 C    1.358    37 N    1.232    35 C    1.170
    37   7 N    3.294 --    33 C    1.245    36 C    1.232     1 Zn   0.459
    38   1 H    1.001 --     2 C    0.971
    39   1 H    0.998 --     4 C    0.975
    40   1 H    1.005 --     5 C    0.973
    41   1 H    1.004 --    10 C    0.973
    42   1 H    1.013 --    11 C    0.972
    43   1 H    1.013 --    13 C    0.972
    44   1 H    1.004 --    14 C    0.973
    45   1 H    1.004 --    16 C    0.973
    46   1 H    1.002 --    17 C    0.974
    47   1 H    1.002 --    22 C    0.974
    48   1 H    1.004 --    23 C    0.973
    49   1 H    1.004 --    28 C    0.973
    50   1 H    1.013 --    29 C    0.972
    51   1 H    1.013 --    31 C    0.972
    52   1 H    1.004 --    32 C    0.973
    53   1 H    1.005 --    34 C    0.973
    54   1 H    0.998 --    35 C    0.975
    55  30 Zn   1.995 --    91 N    0.459    61 N    0.459    72 N    0.455
                            79 N    0.455
    56   6 C    3.928 --    90 C    1.358    57 C    1.358    92 H    0.971
    57   6 C    3.921 --    56 C    1.358    61 N    1.233    58 C    1.170
    58   6 C    3.960 --    59 C    1.660    57 C    1.170    93 H    0.975
    59   6 C    3.963 --    58 C    1.660    60 C    1.172    94 H    0.973
    60   6 C    3.919 --    62 C    1.313    61 N    1.245    59 C    1.172
    61   7 N    3.294 --    60 C    1.245    57 C    1.233    55 Zn   0.459
    62   6 C    3.933 --    69 C    1.324    60 C    1.313    63 C    1.029
    63   6 C    3.985 --    68 C    1.392    64 C    1.392    62 C    1.029
                            66 N    0.107
    64   6 C    3.987 --    65 C    1.443    63 C    1.392    95 H    0.973
                            67 C    0.108
    65   6 C    3.972 --    64 C    1.443    66 N    1.415    96 H    0.972
                            68 C    0.108
    66   7 N    3.029 --    67 C    1.415    65 C    1.415    63 C    0.107
    67   6 C    3.972 --    68 C    1.442    66 N    1.415    97 H    0.972
                            64 C    0.108
    68   6 C    3.987 --    67 C    1.442    63 C    1.392    98 H    0.973
                            65 C    0.108
    69   6 C    3.913 --    62 C    1.324    72 N    1.225    70 C    1.178
    70   6 C    3.960 --    71 C    1.647    69 C    1.178    99 H    0.973
    71   6 C    3.962 --    70 C    1.647    73 C    1.185   100 H    0.974
    72   7 N    3.297 --    73 C    1.263    69 C    1.225    55 Zn   0.455
    73   6 C    3.901 --    72 N    1.263    74 C    1.253    71 C    1.185
    74   6 C    3.939 --    75 C    1.253    73 C    1.253   124 C    1.193
    75   6 C    3.901 --    79 N    1.263    74 C    1.253    76 C    1.185
    76   6 C    3.962 --    77 C    1.647    75 C    1.185   101 H    0.974
    77   6 C    3.960 --    76 C    1.647    78 C    1.178   102 H    0.973
    78   6 C    3.913 --    80 C    1.324    79 N    1.225    77 C    1.178
    79   7 N    3.297 --    75 C    1.263    78 C    1.225    55 Zn   0.455
    80   6 C    3.933 --    78 C    1.324    87 C    1.312    81 C    1.029
    81   6 C    3.985 --    86 C    1.392    82 C    1.392    80 C    1.029
                            84 N    0.107
    82   6 C    3.987 --    83 C    1.443    81 C    1.392   103 H    0.973
                            85 C    0.108
    83   6 C    3.972 --    82 C    1.443    84 N    1.415   104 H    0.972
                            86 C    0.108
    84   7 N    3.029 --    83 C    1.415    85 C    1.415    81 C    0.107
    85   6 C    3.972 --    86 C    1.443    84 N    1.415   105 H    0.972
                            82 C    0.108
    86   6 C    3.987 --    85 C    1.443    81 C    1.392   106 H    0.973
                            83 C    0.108
    87   6 C    3.919 --    80 C    1.312    91 N    1.245    88 C    1.172
    88   6 C    3.963 --    89 C    1.659    87 C    1.172   107 H    0.973
    89   6 C    3.960 --    88 C    1.659    90 C    1.170   108 H    0.975
    90   6 C    3.921 --    56 C    1.358    91 N    1.232    89 C    1.170
    91   7 N    3.294 --    87 C    1.245    90 C    1.232    55 Zn   0.459
    92   1 H    1.001 --    56 C    0.971
    93   1 H    0.998 --    58 C    0.975
    94   1 H    1.004 --    59 C    0.973
    95   1 H    1.004 --    64 C    0.973
    96   1 H    1.013 --    65 C    0.972
    97   1 H    1.013 --    67 C    0.972
    98   1 H    1.004 --    68 C    0.973
    99   1 H    1.004 --    70 C    0.973
   100   1 H    1.002 --    71 C    0.974
   101   1 H    1.002 --    76 C    0.974
   102   1 H    1.004 --    77 C    0.973
   103   1 H    1.004 --    82 C    0.973
   104   1 H    1.013 --    83 C    0.972
   105   1 H    1.013 --    85 C    0.972
   106   1 H    1.004 --    86 C    0.973
   107   1 H    1.005 --    88 C    0.973
   108   1 H    0.998 --    89 C    0.975
   109   6 C    3.876 --   110 C    2.438    20 C    1.192   112 C    0.186
   110   6 C    3.934 --   109 C    2.438   111 C    1.344
   111   6 C    3.892 --   112 C    2.335   110 C    1.344   114 C    0.182
   112   6 C    3.925 --   111 C    2.335   113 C    1.369   109 C    0.186
   113   6 C    3.923 --   114 C    2.334   112 C    1.369   116 C    0.186
   114   6 C    3.892 --   113 C    2.334   115 C    1.345   111 C    0.182
   115   6 C    3.931 --   116 C    2.436   114 C    1.345
   116   6 C    3.877 --   115 C    2.436   126 C    1.195   113 C    0.186
   117   6 C    3.877 --   118 C    2.435   144 C    1.195   120 C    0.186
   118   6 C    3.931 --   117 C    2.435   119 C    1.346
   119   6 C    3.892 --   120 C    2.334   118 C    1.346   122 C    0.182
   120   6 C    3.923 --   119 C    2.334   121 C    1.370   117 C    0.186
   121   6 C    3.925 --   122 C    2.335   120 C    1.370   124 C    0.186
   122   6 C    3.892 --   121 C    2.335   123 C    1.345   119 C    0.182
   123   6 C    3.934 --   124 C    2.438   122 C    1.345
   124   6 C    3.876 --   123 C    2.438    74 C    1.193   121 C    0.186
   125  30 Zn   1.992 --   161 N    0.456   142 N    0.456   149 N    0.456
                           131 N    0.456
   126   6 C    3.928 --   160 C    1.251   127 C    1.251   116 C    1.195
   127   6 C    3.901 --   131 N    1.263   126 C    1.251   128 C    1.187
   128   6 C    3.960 --   129 C    1.644   127 C    1.187   162 H    0.974
   129   6 C    3.960 --   128 C    1.644   130 C    1.181   163 H    0.973
   130   6 C    3.911 --   132 C    1.319   131 N    1.225   129 C    1.181
   131   7 N    3.292 --   127 C    1.263   130 C    1.225   125 Zn   0.456
   132   6 C    3.929 --   130 C    1.319   139 C    1.319   133 C    1.027
   133   6 C    3.985 --   134 C    1.393   138 C    1.393   132 C    1.027
                           136 N    0.107
   134   6 C    3.987 --   135 C    1.442   133 C    1.393   164 H    0.973
                           137 C    0.108
   135   6 C    3.972 --   134 C    1.442   136 N    1.415   165 H    0.972
                           138 C    0.108
   136   7 N    3.030 --   135 C    1.415   137 C    1.415   133 C    0.107
   137   6 C    3.972 --   138 C    1.442   136 N    1.415   166 H    0.972
                           134 C    0.108
   138   6 C    3.987 --   137 C    1.442   133 C    1.393   167 H    0.973
                           135 C    0.108
   139   6 C    3.911 --   132 C    1.319   142 N    1.225   140 C    1.181
   140   6 C    3.960 --   141 C    1.644   139 C    1.181   168 H    0.973
   141   6 C    3.960 --   140 C    1.644   143 C    1.187   169 H    0.974
   142   7 N    3.292 --   143 C    1.263   139 C    1.225   125 Zn   0.456
   143   6 C    3.901 --   142 N    1.263   144 C    1.251   141 C    1.187
   144   6 C    3.928 --   145 C    1.251   143 C    1.251   117 C    1.195
   145   6 C    3.901 --   149 N    1.263   144 C    1.251   146 C    1.187
   146   6 C    3.960 --   147 C    1.644   145 C    1.187   170 H    0.974
   147   6 C    3.960 --   146 C    1.644   148 C    1.181   171 H    0.973
   148   6 C    3.911 --   150 C    1.319   149 N    1.225   147 C    1.181
   149   7 N    3.292 --   145 C    1.263   148 C    1.225   125 Zn   0.456
   150   6 C    3.929 --   157 C    1.319   148 C    1.319   151 C    1.027
   151   6 C    3.985 --   156 C    1.393   152 C    1.393   150 C    1.027
                           154 N    0.107
   152   6 C    3.987 --   153 C    1.442   151 C    1.393   172 H    0.973
                           155 C    0.108
   153   6 C    3.972 --   152 C    1.442   154 N    1.415   173 H    0.972
                           156 C    0.108
   154   7 N    3.030 --   155 C    1.415   153 C    1.415   151 C    0.107
   155   6 C    3.972 --   156 C    1.442   154 N    1.415   174 H    0.972
                           152 C    0.108
   156   6 C    3.987 --   155 C    1.442   151 C    1.393   175 H    0.973
                           153 C    0.108
   157   6 C    3.911 --   150 C    1.319   161 N    1.225   158 C    1.181
   158   6 C    3.960 --   159 C    1.644   157 C    1.181   176 H    0.973
   159   6 C    3.960 --   158 C    1.644   160 C    1.187   177 H    0.974
   160   6 C    3.901 --   161 N    1.263   126 C    1.251   159 C    1.187
   161   7 N    3.292 --   160 C    1.263   157 C    1.225   125 Zn   0.456
   162   1 H    1.002 --   128 C    0.974
   163   1 H    1.004 --   129 C    0.973
   164   1 H    1.004 --   134 C    0.973
   165   1 H    1.013 --   135 C    0.972
   166   1 H    1.013 --   137 C    0.972
   167   1 H    1.004 --   138 C    0.973
   168   1 H    1.004 --   140 C    0.973
   169   1 H    1.002 --   141 C    0.974
   170   1 H    1.002 --   146 C    0.974
   171   1 H    1.004 --   147 C    0.973
   172   1 H    1.004 --   152 C    0.973
   173   1 H    1.013 --   153 C    0.972
   174   1 H    1.013 --   155 C    0.972
   175   1 H    1.004 --   156 C    0.973
   176   1 H    1.004 --   158 C    0.973
   177   1 H    1.002 --   159 C    0.974
 ---------------------------------------------------------------------------

           -------------------------------------------------
          | TOTAL ENERGY             -310.353676318461 Eh   |
          | GRADIENT NORM               0.000224629639 Eh/α |
          | HOMO-LUMO GAP               0.987520295357 eV   |
           -------------------------------------------------

 * finished run on 2022/07/30 at 07:31:32.144
