   * xtb version 6.5.1 (b24c23e) compiled by 'conda@728c89f4b128' on 2022-07-12
          program call               : xtb p-CP_C6_3.xyz --gfn 1 --opt -T 48

   ID    Z sym.   atoms
    1    6 C      1-5, 7-10, 12-23, 26-31, 34-38, 41, 42, 64-68, 70-73,
                  75-86, 89-94, 97-101, 104, 105, 127-143, 145-148, 150-161,
                  164-169, 172-176, 179, 180
    2    7 N      6, 11, 32, 33, 69, 74, 95, 96, 144, 149, 170, 171
    3    8 O      24, 25, 39, 40, 87, 88, 102, 103, 162, 163, 177, 178
    4    1 H      43-63, 106-126, 181-200
########################################################################
[WARNING] Please study the warnings concerning your input carefully
-1- prog_main_parseArguments: Unknown option '-T' provided
########################################################################

          :  Hamiltonian                  GFN1-xTB          :
 * total energy  :  -367.0579982 Eh     change       -0.3913669E-08 Eh
 * total energy  :  -368.2095791 Eh     change       -0.1151581E+01 Eh
 * total energy  :  -368.4232038 Eh     change       -0.2136246E+00 Eh
 * total energy  :  -368.5557231 Eh     change       -0.1325194E+00 Eh
 * total energy  :  -368.6381144 Eh     change       -0.8239131E-01 Eh
 * total energy  :  -368.6849955 Eh     change       -0.4688108E-01 Eh
 * total energy  :  -368.7148272 Eh     change       -0.2983163E-01 Eh
 * total energy  :  -368.7353697 Eh     change       -0.2054254E-01 Eh
 * total energy  :  -368.7481295 Eh     change       -0.1275985E-01 Eh
 * total energy  :  -368.7588733 Eh     change       -0.1074375E-01 Eh
 * total energy  :  -368.8006650 Eh     change       -0.1401412E-04 Eh
 * total energy  :  -368.8006840 Eh     change       -0.1901075E-04 Eh
 * total energy  :  -368.8007136 Eh     change       -0.2958355E-04 Eh
 * total energy  :  -368.8007459 Eh     change       -0.3238005E-04 Eh
 * total energy  :  -368.8007686 Eh     change       -0.2269388E-04 Eh
 * total energy  :  -368.8007854 Eh     change       -0.1675719E-04 Eh
 * total energy  :  -368.8007992 Eh     change       -0.1383146E-04 Eh
 * total energy  :  -368.8008075 Eh     change       -0.8277044E-05 Eh
 * total energy  :  -368.8008124 Eh     change       -0.4920182E-05 Eh
   *** GEOMETRY OPTIMIZATION CONVERGED AFTER 64 ITERATIONS ***

 final structure:
================
200
 xtb: 6.5.1 (b24c23e)
C           29.72093752782546       -0.09968465516635        0.09410691112179
C           30.33813818927009       -1.33131335548413       -0.08215751715073
C           29.69573949126958       -2.59481176385161       -0.21117942902519
C           30.66309110594446       -3.54272105356950       -0.39157190843065
C           31.92780225489853       -2.88743060961255       -0.38575531570505
N           31.68152578000158       -1.55918608435283       -0.18539294411781
C           33.19372606810812       -3.46752297856708       -0.52669625664550
C           34.40591334209417       -2.77614179922191       -0.45685453827528
C           35.70522197675255       -3.39384539645754       -0.65504684266794
C           36.62047875296666       -2.41438748600751       -0.50582441068888
N           34.55301358087484       -1.44443851904663       -0.21746375129187
C           35.87887719214815       -1.19861756311462       -0.23141784508227
C           36.50879582664439        0.04396025731824       -0.01910063398171
C           35.86659182321873        1.27815528380832        0.19201147610146
C           36.50415184466364        2.52651541564878        0.42030899300381
C           35.53176317224170        3.47677005960047        0.56366406429816
C           34.26897026292959        2.83731063997248        0.41969054393418
C           33.00303981109201        3.42609853172928        0.50996390880572
C           32.96439847742329        4.89246719475114        0.71776539726108
C           33.53461402134494        5.75557082835019       -0.22226262556455
C           33.49710360040876        7.12378076088777       -0.02737356974177
C           32.89420923698794        7.65558683033773        1.11419272508522
C           32.88185062916740        9.12862970028744        1.27990068894254
O           32.27789344232438        9.53716615128003        2.40616148991761
O           33.36131576147096        9.90574245233988        0.49383616352119
C           32.32618338325748        6.79845266719299        2.05738593699428
C           32.35983951561707        5.42961437940464        1.85742397635038
C           31.78961554979822        2.73507957841544        0.42109366111284
C           30.48075406121561        3.36887721854250        0.46685479478563
C           29.57293131008615        2.37854681926948        0.35582231183999
C           30.32568442434570        1.14293695646531        0.22848508536406
N           31.65704265241632        1.39737347932240        0.26241177393252
N           34.52329127654148        1.50884326909031        0.20527573522738
C           33.23218412677668       -4.92867519908072       -0.77263613815014
C           32.62461887947780       -5.46814440925153       -1.90951106197429
C           32.66291333430894       -6.83060082681723       -2.14887262809647
C           33.30646261138511       -7.67910141644696       -1.24749161842750
C           33.37243832153232       -9.14518298980279       -1.45674795367531
O           32.77115162811038       -9.55397067543146       -2.58451581602126
O           33.90857103570215       -9.91688458951025       -0.70262949670143
C           33.91116610233517       -7.14516149694003       -0.10781854757493
C           33.87646048501092       -5.78298009406406        0.12635051106928
H           28.63611711242426       -0.11951185204482        0.12154242219383
H           28.62908185158165       -2.74593923996388       -0.16516949003166
H           30.52000939951152       -4.60465053774401       -0.50904992484788
H           32.40101419365762       -0.84680222459549       -0.12158953921675
H           35.87255666797913       -4.43253758796323       -0.88928764196725
H           37.69408384214501       -2.47960152969926       -0.58036701437034
H           37.57157373811144        2.66818244849002        0.47211180960035
H           35.67334155211717        4.52638927547051        0.76300320924584
H           33.99092221594310        5.34585931985798       -1.11630187030698
H           33.93207027772426        7.79900307920265       -0.75611903339572
H           32.31203779130350       10.50698515564204        2.43934562077345
H           31.86125203563931        7.20659643499990        2.94701071440746
H           31.93075334728787        4.76346229517704        2.59734725339024
H           30.30572794825583        4.42879351114202        0.55737044549168
H           28.49643306472120        2.44688402530904        0.34650448609439
H           33.80540996299822        0.80200748293569        0.08416317773545
H           32.13686251339002       -4.80792919656008       -2.61792667302420
H           32.19568795582776       -7.23987501372500       -3.03678668421020
H           32.86013125339119      -10.51880492715270       -2.64784482320229
H           34.40549464479614       -7.81415517158519        0.58800315523668
H           34.33579493466423       -5.37191355069104        1.01804381136118
C           68.50704083480510        0.07222798092712        0.12018533696870
C           67.88016321976504        1.24755983853078        0.51323596484700
C           68.51231728626036        2.44023041845302        0.96459117293128
C           67.53723967873272        3.36130961760935        1.22473884236384
C           66.27787965384708        2.76346004729818        0.93223544010203
N           66.53492462042581        1.48728912820549        0.51942390078779
C           65.00736915973940        3.33751347717032        1.05443117649690
C           63.80134435223363        2.67921833126405        0.79971264431573
C           62.49816783834850        3.31544517435861        0.87599576930968
C           61.59040768845004        2.36359911757452        0.57705128726446
N           63.66436829149362        1.37518738665252        0.43537960246340
C           62.34049593737265        1.15223863735972        0.30664355407731
C           61.71963615036307       -0.06832634790623       -0.02615534006470
C           62.37136862484570       -1.26996654047139       -0.35962350271426
C           61.74448101506993       -2.50172492364671       -0.68620071333293
C           62.72437940624776       -3.40883913580557       -0.97981132878476
C           63.98116785102719       -2.75517143974445       -0.84742532918121
C           65.25162618992468       -3.30842136268354       -1.04135483917705
C           65.30152141888473       -4.71488871269833       -1.50391744142805
C           64.71693658628321       -5.07979794301988       -2.72008114469183
C           64.76666422278684       -6.39171849537938       -3.15330448405523
C           65.39653560004197       -7.36583033992432       -2.37620916578938
C           65.42283393556603       -8.75874987250089       -2.88264011208797
O           66.05147533863912       -9.61593445246880       -2.06403402887681
O           64.93296572253932       -9.11307971039124       -3.92493194153574
C           65.97825617222190       -7.00795774436410       -1.15945747175681
C           65.93216662665124       -5.69313714538114       -0.73050007543096
C           66.45968639818342       -2.63441214974529       -0.83117607884231
C           67.77283238284087       -3.20783576236394       -1.08387494322346
C           68.67320277055964       -2.26123830027018       -0.75145452721395
C           67.91148641015147       -1.10588636737960       -0.31036635957438
N           66.58223305765287       -1.36330590247730       -0.38213330278418
N           63.71616083194592       -1.46862467329216       -0.46045934207176
C           64.95446329706816        4.75411258181397        1.48674684671652
C           65.56510859656997        5.75044262874287        0.72060725214632
C           65.51146846616948        7.07531719852204        1.11684780174433
C           64.84915999985067        7.42496140617388        2.29400442241197
C           64.76452416982193        8.82889827975129        2.76234576829691
O           65.37096901452145        9.70444323103075        1.94623043809214
O           64.21130559549320        9.17639029814776        3.77461390476138
C           64.24163005043090        6.43226933544285        3.06541600865434
C           64.29160094302935        5.11008697151511        2.66459452165603
H           69.59185175754324        0.08754799880427        0.15043704673746
H           69.57776458723656        2.56280371247661        1.07644231236572
H           67.67171302322093        4.36452075010706        1.59545514357751
H           65.82121844244995        0.81599661364111        0.25636504648247
H           62.32358603201859        4.35245275139128        1.11242433567564
H           60.51684506185356        2.44967571093063        0.52751719657253
H           60.67870040906565       -2.66384415465145       -0.68955522214970
H           62.59193986779098       -4.44278739630905       -1.25354551044836
H           64.23997551157693       -4.32265773815667       -3.33216822768912
H           64.32109347506756       -6.67975687251564       -4.09917421733951
H           66.02484189801180      -10.49997003380980       -2.46483895207978
H           66.46392883513536       -7.76158383481102       -0.55089304370227
H           66.37217304236484       -5.41831310199501        0.22145321007709
H           67.95557126596735       -4.19566595925804       -1.47509321929997
H           69.74988083052213       -2.30650250013441       -0.79958791991003
H           64.42803743786556       -0.77029068079923       -0.27284046689893
H           66.06703984871585        5.48170717207199       -0.20214464572442
H           65.98095292449663        7.84274429441618        0.51284776234773
H           65.26934731177055       10.59469760242593        2.32029977086319
H           63.73254583918180        6.71463405645103        3.98040736024567
H           63.82952142700935        4.33942185949334        3.27095215776748
C           41.71153072684854        0.09647047098381        0.00712179957503
C           40.48355245201551        0.09365508128925       -0.00432784644145
C           39.13876474166738        0.08326788157595       -0.01344097812726
C           37.91530169238672        0.06707727310285       -0.01979650868107
C           43.05620251798486        0.09651272838190        0.02035647701037
C           44.27986582282825        0.09139890795939        0.03566934126025
C           57.74484001777327       -0.12109521564285       -0.02085340154696
C           56.51691051279310       -0.11333764523793       -0.01022876083946
C           55.17230219680665       -0.09658741498366        0.00446744049797
C           53.94894474126240       -0.06960998948980        0.01927966523204
C           59.08973408090819       -0.11477291525534       -0.02862432507194
C           60.31322701813686       -0.09847453435116       -0.03206456606921
C           45.68558925361178        0.08285513302817        0.04917384374031
C           46.32499295267844        1.02090002887432       -0.78294354590746
C           45.68917495046547        1.95376793018942       -1.64278233470613
C           46.66360752654966        2.68989826268365       -2.25881587603411
C           47.92392266371143        2.23152949132875       -1.78622947763493
N           47.66853532256989        1.21640328326247       -0.90421695939067
C           49.18988595500892        2.69833051287625       -2.15998463119081
C           50.40923657654016        2.18203757240452       -1.71707524234322
C           51.70250965681525        2.72936727803430       -2.08748833369743
C           52.63029302845956        1.96369401901802       -1.47719708476010
N           50.57223837889591        1.12163580595716       -0.88001950271683
C           51.90251504822203        0.95940658579709       -0.72660744079839
C           52.54360640821094       -0.03590315422525        0.03690175690933
C           51.90341227491864       -1.00369453784505        0.83374875836553
C           52.53740926125221       -2.01062034647124        1.60691393010768
C           51.56336899554883       -2.71600286463622        2.25882099571677
C           50.30544320445988       -2.15527460195297        1.90568982087691
C           49.04070535809516       -2.57434661508450        2.33619008623293
C           49.01489780824294       -3.67726514836736        3.32723011779197
C           48.39444901927704       -4.89184011122099        3.02338735320549
C           48.36998181442139       -5.91448777901063        3.95373026748487
C           48.96128440097733       -5.74063799869819        5.20653017962690
C           48.90331594430621       -6.86329882609466        6.17321838016724
O           49.50687981909182       -6.59703759734620        7.34146134304661
O           48.37176078796836       -7.92209679980174        5.95512310278470
C           49.58229679565530       -4.52993423975644        5.51471776634475
C           49.61039074610937       -3.50976930988514        4.58012575438136
C           47.82136194289198       -2.04004712760312        1.91580483779752
C           46.52979342745500       -2.47501919480804        2.41790989401608
C           45.60161572126815       -1.73931849617793        1.77253593868169
C           46.32776631996173       -0.84736320849263        0.88998421888666
N           47.65731704840545       -1.04326820030252        1.00376846733857
N           50.56115014559662       -1.13121919359395        1.03424123105157
C           49.21739655551033        3.83710357891874       -3.10933738474281
C           48.64284224649214        5.06234212359484       -2.76059484663100
C           48.67039404358655        6.12348229626872       -3.64655237921274
C           49.26827465070585        5.97816690086665       -4.89978957020481
C           49.27082006233459        7.14412783874988       -5.81559460773642
O           49.88606618619628        6.90761476654320       -6.98394606923664
O           48.77515089362929        8.21169600391659       -5.55860827896655
C           49.84041331657929        4.75598969294437       -5.25414282846114
C           49.81573724043633        3.69662541049386       -4.36408006142390
H           44.62237091291196        2.04042770605237       -1.77109115208451
H           46.52405584780236        3.47438469340279       -2.98443718905826
H           48.38170708301264        0.68396097608809       -0.41727900458859
H           51.85741384158787        3.59033590628431       -2.71719951876127
H           53.70423373542395        2.05425338612090       -1.50758866577182
H           53.60271963175958       -2.16955681003941        1.65085366013428
H           51.70108805899919       -3.55714635957758        2.91837666506437
H           47.94512097361393       -5.03257006662037        2.04698942165842
H           47.89372736717902       -6.86118276429002        3.72344344777918
H           49.42313773959285       -7.37564439520315        7.91555054358955
H           50.03953750138182       -4.38925260022350        6.48696403340446
H           50.08089663837726       -2.56404023458660        4.82470607879590
H           46.37622738688752       -3.23168942416364        3.16996433402400
H           44.52861829299362       -1.76953905536932        1.87354962993542
H           49.84922302655537       -0.55260387513013        0.60111463724684
H           48.19049654244589        5.18148931581383       -1.78256862321377
H           48.23171614335550        7.07880350628443       -3.38007716938333
H           49.84547094563746        7.71470133684717       -7.52222832366018
H           50.30151994273925        4.63757058176454       -6.22752012359210
H           50.24877570317245        2.74303166075060       -4.64413741871624

          :  Hamiltonian                  GFN1-xTB          :
         :: total energy            -368.800812420752 Eh    ::
         :: gradient norm              0.000636460788 Eh/a0 ::
         :: HOMO-LUMO gap              0.971803747965 eV    ::
         :: SCC energy              -374.484506172115 Eh    ::
         :: repulsion energy           5.851244578231 Eh    ::

    * Orbital Energies and Occupations

         #    Occupation            Energy/Eh            Energy/eV
      -------------------------------------------------------------
         1        2.0000           -0.8329673             -22.6662
       ...           ...                  ...                  ...
       313        2.0000           -0.4255749             -11.5805
       314        2.0000           -0.4250948             -11.5674
       315        2.0000           -0.4244318             -11.5494
       316        2.0000           -0.4243022             -11.5459
       317        2.0000           -0.4236809             -11.5289
       318        2.0000           -0.4231230             -11.5138
       319        2.0000           -0.4210035             -11.4561
       320        2.0000           -0.4089404             -11.1278
       321        2.0000           -0.4082376             -11.1087
       322        2.0000           -0.4077468             -11.0954
       323        2.0000           -0.3950678             -10.7503
       324        2.0000           -0.3921440             -10.6708
       325        2.0000           -0.3875188             -10.5449 (HOMO)
       326                         -0.3518057              -9.5731 (LUMO)
       327                         -0.3455308              -9.4024
       328                         -0.3432465              -9.3402
       329                         -0.3422234              -9.3124
       330                         -0.3417865              -9.3005
       331                         -0.3409409              -9.2775
       332                         -0.3196876              -8.6991
       333                         -0.3162238              -8.6049
       334                         -0.3156982              -8.5906
       335                         -0.3093546              -8.4180
       336                         -0.3092580              -8.4153
       ...                                ...                  ...
       676                          1.5716016              42.7655
      -------------------------------------------------------------
                  HL-Gap            0.0357131 Eh            0.9718 eV

Wiberg/Mayer (AO) data.
largest (>0.10) Wiberg bond orders for each atom

     #   Z sym  total        # sym  WBO       # sym  WBO       # sym  WBO
 ---------------------------------------------------------------------------
     1   6 C    3.927 --    31 C    1.367     2 C    1.347    43 H    0.971
     2   6 C    3.901 --     1 C    1.347     3 C    1.229     6 N    1.169
     3   6 C    3.954 --     4 C    1.596     2 C    1.229    44 H    0.976
     4   6 C    3.959 --     3 C    1.596     5 C    1.233    45 H    0.974
     5   6 C    3.897 --     7 C    1.302     4 C    1.233     6 N    1.179
     6   7 N    3.471 --     5 C    1.179     2 C    1.169    46 H    0.873
     7   6 C    3.938 --     8 C    1.333     5 C    1.302    34 C    1.033
     8   6 C    3.914 --     7 C    1.333    11 N    1.288     9 C    1.124
     9   6 C    3.966 --    10 C    1.712     8 C    1.124    47 H    0.973
    10   6 C    3.964 --     9 C    1.712    12 C    1.127    48 H    0.974
    11   7 N    3.022 --    12 C    1.342     8 C    1.288
    12   6 C    3.908 --    11 N    1.342    13 C    1.256    10 C    1.127
    13   6 C    3.939 --    12 C    1.256    14 C    1.254   130 C    1.186
    14   6 C    3.885 --    13 C    1.254    15 C    1.247    33 N    1.188
    15   6 C    3.959 --    16 C    1.585    14 C    1.247    49 H    0.975
    16   6 C    3.955 --    15 C    1.585    17 C    1.239    50 H    0.974
    17   6 C    3.898 --    18 C    1.308    16 C    1.239    33 N    1.167
    18   6 C    3.925 --    28 C    1.319    17 C    1.308    19 C    1.034
    19   6 C    3.986 --    27 C    1.385    20 C    1.384    18 C    1.034
    20   6 C    3.986 --    21 C    1.465    19 C    1.384    51 H    0.972
                            26 C    0.102
    21   6 C    3.990 --    20 C    1.465    22 C    1.384    52 H    0.968
                            27 C    0.102
    22   6 C    3.981 --    26 C    1.388    21 C    1.384    23 C    1.010
    23   6 C    3.836 --    25 O    1.689    24 O    1.088    22 C    1.010
    24   8 O    2.096 --    23 C    1.088    53 H    0.838    25 O    0.128
    25   8 O    1.957 --    23 C    1.689    24 O    0.128
    26   6 C    3.991 --    27 C    1.462    22 C    1.388    54 H    0.970
                            20 C    0.102
    27   6 C    3.987 --    26 C    1.462    19 C    1.385    55 H    0.972
                            21 C    0.102
    28   6 C    3.928 --    32 N    1.319    18 C    1.319    29 C    1.117
    29   6 C    3.967 --    30 C    1.724    28 C    1.117    56 H    0.973
    30   6 C    3.966 --    29 C    1.724    31 C    1.116    57 H    0.976
    31   6 C    3.928 --     1 C    1.367    32 N    1.299    30 C    1.116
    32   7 N    3.013 --    28 C    1.319    31 C    1.299
    33   7 N    3.475 --    14 C    1.188    17 C    1.167    58 H    0.873
    34   6 C    3.986 --    35 C    1.386    42 C    1.384     7 C    1.033
    35   6 C    3.987 --    36 C    1.462    34 C    1.386    59 H    0.972
                            41 C    0.102
    36   6 C    3.991 --    35 C    1.462    37 C    1.388    60 H    0.970
                            42 C    0.102
    37   6 C    3.982 --    36 C    1.388    41 C    1.385    38 C    1.009
    38   6 C    3.836 --    40 O    1.690    39 O    1.088    37 C    1.009
    39   8 O    2.096 --    38 C    1.088    61 H    0.838    40 O    0.128
    40   8 O    1.958 --    38 C    1.690    39 O    0.128
    41   6 C    3.990 --    42 C    1.464    37 C    1.385    62 H    0.968
                            35 C    0.102
    42   6 C    3.987 --    41 C    1.464    34 C    1.384    63 H    0.972
                            36 C    0.102
    43   1 H    1.002 --     1 C    0.971
    44   1 H    0.997 --     3 C    0.976
    45   1 H    1.004 --     4 C    0.974
    46   1 H    0.986 --     6 N    0.873
    47   1 H    1.004 --     9 C    0.973
    48   1 H    1.002 --    10 C    0.974
    49   1 H    1.002 --    15 C    0.975
    50   1 H    1.004 --    16 C    0.974
    51   1 H    1.004 --    20 C    0.972
    52   1 H    1.005 --    21 C    0.968
    53   1 H    0.873 --    24 O    0.838
    54   1 H    1.005 --    26 C    0.970
    55   1 H    1.004 --    27 C    0.972
    56   1 H    1.004 --    29 C    0.973
    57   1 H    0.998 --    30 C    0.976
    58   1 H    0.987 --    33 N    0.873
    59   1 H    1.004 --    35 C    0.972
    60   1 H    1.005 --    36 C    0.970
    61   1 H    0.873 --    39 O    0.838
    62   1 H    1.005 --    41 C    0.968
    63   1 H    1.004 --    42 C    0.972
    64   6 C    3.927 --    94 C    1.367    65 C    1.347   106 H    0.971
    65   6 C    3.901 --    64 C    1.347    66 C    1.229    69 N    1.169
    66   6 C    3.954 --    67 C    1.596    65 C    1.229   107 H    0.976
    67   6 C    3.959 --    66 C    1.596    68 C    1.233   108 H    0.974
    68   6 C    3.897 --    70 C    1.302    67 C    1.233    69 N    1.178
    69   7 N    3.471 --    68 C    1.178    65 C    1.169   109 H    0.873
    70   6 C    3.938 --    71 C    1.332    68 C    1.302    97 C    1.033
    71   6 C    3.914 --    70 C    1.332    74 N    1.288    72 C    1.124
    72   6 C    3.966 --    73 C    1.711    71 C    1.124   110 H    0.973
    73   6 C    3.964 --    72 C    1.711    75 C    1.127   111 H    0.974
    74   7 N    3.022 --    75 C    1.341    71 C    1.288
    75   6 C    3.908 --    74 N    1.341    76 C    1.256    73 C    1.127
    76   6 C    3.939 --    75 C    1.256    77 C    1.254   138 C    1.186
    77   6 C    3.885 --    76 C    1.254    78 C    1.248    96 N    1.188
    78   6 C    3.959 --    79 C    1.585    77 C    1.248   112 H    0.975
    79   6 C    3.955 --    78 C    1.585    80 C    1.239   113 H    0.974
    80   6 C    3.898 --    81 C    1.308    79 C    1.239    96 N    1.167
    81   6 C    3.925 --    91 C    1.319    80 C    1.308    82 C    1.035
    82   6 C    3.986 --    90 C    1.385    83 C    1.383    81 C    1.035
    83   6 C    3.986 --    84 C    1.465    82 C    1.383   114 H    0.972
                            89 C    0.102
    84   6 C    3.990 --    83 C    1.465    85 C    1.384   115 H    0.968
                            90 C    0.102
    85   6 C    3.981 --    89 C    1.388    84 C    1.384    86 C    1.010
    86   6 C    3.835 --    88 O    1.689    87 O    1.088    85 C    1.010
    87   8 O    2.096 --    86 C    1.088   116 H    0.838    88 O    0.128
    88   8 O    1.957 --    86 C    1.689    87 O    0.128
    89   6 C    3.991 --    90 C    1.462    85 C    1.388   117 H    0.970
                            83 C    0.102
    90   6 C    3.987 --    89 C    1.462    82 C    1.385   118 H    0.972
                            84 C    0.102
    91   6 C    3.929 --    81 C    1.319    95 N    1.319    92 C    1.117
    92   6 C    3.967 --    93 C    1.724    91 C    1.117   119 H    0.973
    93   6 C    3.966 --    92 C    1.724    94 C    1.116   120 H    0.976
    94   6 C    3.928 --    64 C    1.367    95 N    1.299    93 C    1.116
    95   7 N    3.013 --    91 C    1.319    94 C    1.299
    96   7 N    3.475 --    77 C    1.188    80 C    1.167   121 H    0.873
    97   6 C    3.986 --    98 C    1.386   105 C    1.384    70 C    1.033
    98   6 C    3.987 --    99 C    1.462    97 C    1.386   122 H    0.972
                           104 C    0.102
    99   6 C    3.991 --    98 C    1.462   100 C    1.388   123 H    0.970
                           105 C    0.102
   100   6 C    3.982 --    99 C    1.388   104 C    1.384   101 C    1.009
   101   6 C    3.836 --   103 O    1.690   102 O    1.088   100 C    1.009
   102   8 O    2.096 --   101 C    1.088   124 H    0.838   103 O    0.128
   103   8 O    1.958 --   101 C    1.690   102 O    0.128
   104   6 C    3.990 --   105 C    1.465   100 C    1.384   125 H    0.968
                            98 C    0.102
   105   6 C    3.987 --   104 C    1.465    97 C    1.384   126 H    0.972
                            99 C    0.102
   106   1 H    1.002 --    64 C    0.971
   107   1 H    0.997 --    66 C    0.976
   108   1 H    1.004 --    67 C    0.974
   109   1 H    0.986 --    69 N    0.873
   110   1 H    1.004 --    72 C    0.973
   111   1 H    1.002 --    73 C    0.974
   112   1 H    1.002 --    78 C    0.975
   113   1 H    1.004 --    79 C    0.974
   114   1 H    1.004 --    83 C    0.972
   115   1 H    1.005 --    84 C    0.968
   116   1 H    0.873 --    87 O    0.838
   117   1 H    1.005 --    89 C    0.970
   118   1 H    1.004 --    90 C    0.972
   119   1 H    1.004 --    92 C    0.973
   120   1 H    0.998 --    93 C    0.976
   121   1 H    0.987 --    96 N    0.873
   122   1 H    1.004 --    98 C    0.972
   123   1 H    1.005 --    99 C    0.970
   124   1 H    0.873 --   102 O    0.838
   125   1 H    1.005 --   104 C    0.968
   126   1 H    1.004 --   105 C    0.972
   127   6 C    3.923 --   128 C    2.371   131 C    1.332   130 C    0.189
   128   6 C    3.922 --   127 C    2.371   129 C    1.331   132 C    0.189
   129   6 C    3.932 --   130 C    2.453   128 C    1.331
   130   6 C    3.889 --   129 C    2.453    13 C    1.186   127 C    0.189
   131   6 C    3.929 --   132 C    2.450   127 C    1.332
   132   6 C    3.890 --   131 C    2.450   139 C    1.189   128 C    0.189
   133   6 C    3.922 --   134 C    2.371   137 C    1.331   136 C    0.189
   134   6 C    3.923 --   133 C    2.371   135 C    1.332   138 C    0.189
   135   6 C    3.929 --   136 C    2.451   134 C    1.332
   136   6 C    3.889 --   135 C    2.451   151 C    1.189   133 C    0.189
   137   6 C    3.932 --   138 C    2.453   133 C    1.331
   138   6 C    3.889 --   137 C    2.453    76 C    1.186   134 C    0.189
   139   6 C    3.927 --   169 C    1.256   140 C    1.250   132 C    1.189
   140   6 C    3.885 --   141 C    1.251   139 C    1.250   144 N    1.188
   141   6 C    3.956 --   142 C    1.579   140 C    1.251   181 H    0.975
   142   6 C    3.956 --   141 C    1.579   143 C    1.244   182 H    0.974
   143   6 C    3.894 --   145 C    1.299   142 C    1.244   144 N    1.168
   144   7 N    3.472 --   140 C    1.188   143 C    1.168   183 H    0.874
   145   6 C    3.928 --   146 C    1.335   143 C    1.299   172 C    1.031
   146   6 C    3.916 --   145 C    1.335   149 N    1.287   147 C    1.124
   147   6 C    3.966 --   148 C    1.711   146 C    1.124   184 H    0.973
   148   6 C    3.964 --   147 C    1.711   150 C    1.128   185 H    0.974
   149   7 N    3.011 --   150 C    1.341   146 C    1.287
   150   6 C    3.908 --   149 N    1.341   151 C    1.257   148 C    1.128
   151   6 C    3.927 --   150 C    1.257   152 C    1.250   136 C    1.189
   152   6 C    3.886 --   153 C    1.252   151 C    1.250   171 N    1.188
   153   6 C    3.956 --   154 C    1.579   152 C    1.252   186 H    0.975
   154   6 C    3.956 --   153 C    1.579   155 C    1.245   187 H    0.974
   155   6 C    3.894 --   156 C    1.299   154 C    1.245   171 N    1.168
   156   6 C    3.928 --   166 C    1.336   155 C    1.299   157 C    1.031
   157   6 C    3.986 --   165 C    1.386   158 C    1.385   156 C    1.031
   158   6 C    3.987 --   159 C    1.464   157 C    1.385   188 H    0.972
                           164 C    0.103
   159   6 C    3.990 --   158 C    1.464   160 C    1.385   189 H    0.968
                           165 C    0.103
   160   6 C    3.982 --   164 C    1.389   159 C    1.385   161 C    1.009
   161   6 C    3.836 --   163 O    1.690   162 O    1.088   160 C    1.009
   162   8 O    2.096 --   161 C    1.088   190 H    0.838   163 O    0.129
   163   8 O    1.958 --   161 C    1.690   162 O    0.129
   164   6 C    3.991 --   165 C    1.462   160 C    1.389   191 H    0.969
                           158 C    0.103
   165   6 C    3.987 --   164 C    1.462   157 C    1.386   192 H    0.972
                           159 C    0.103
   166   6 C    3.916 --   156 C    1.336   170 N    1.286   167 C    1.123
   167   6 C    3.966 --   168 C    1.711   166 C    1.123   193 H    0.973
   168   6 C    3.964 --   167 C    1.711   169 C    1.128   194 H    0.974
   169   6 C    3.908 --   170 N    1.342   139 C    1.256   168 C    1.128
   170   7 N    3.011 --   169 C    1.342   166 C    1.286
   171   7 N    3.472 --   152 C    1.188   155 C    1.168   195 H    0.874
   172   6 C    3.986 --   180 C    1.386   173 C    1.385   145 C    1.031
   173   6 C    3.986 --   174 C    1.464   172 C    1.385   196 H    0.972
                           179 C    0.102
   174   6 C    3.990 --   173 C    1.464   175 C    1.385   197 H    0.968
                           180 C    0.103
   175   6 C    3.982 --   179 C    1.389   174 C    1.385   176 C    1.009
   176   6 C    3.836 --   178 O    1.690   177 O    1.088   175 C    1.009
   177   8 O    2.097 --   176 C    1.088   198 H    0.838   178 O    0.129
   178   8 O    1.958 --   176 C    1.690   177 O    0.129
   179   6 C    3.991 --   180 C    1.461   175 C    1.389   199 H    0.970
                           173 C    0.102
   180   6 C    3.987 --   179 C    1.461   172 C    1.386   200 H    0.972
                           174 C    0.103
   181   1 H    1.001 --   141 C    0.975
   182   1 H    1.004 --   142 C    0.974
   183   1 H    0.987 --   144 N    0.874
   184   1 H    1.004 --   147 C    0.973
   185   1 H    1.002 --   148 C    0.974
   186   1 H    1.001 --   153 C    0.975
   187   1 H    1.004 --   154 C    0.974
   188   1 H    1.004 --   158 C    0.972
   189   1 H    1.005 --   159 C    0.968
   190   1 H    0.873 --   162 O    0.838
   191   1 H    1.005 --   164 C    0.969
   192   1 H    1.004 --   165 C    0.972
   193   1 H    1.004 --   167 C    0.973
   194   1 H    1.002 --   168 C    0.974
   195   1 H    0.987 --   171 N    0.874
   196   1 H    1.004 --   173 C    0.972
   197   1 H    1.005 --   174 C    0.968
   198   1 H    0.873 --   177 O    0.838
   199   1 H    1.005 --   179 C    0.970
   200   1 H    1.004 --   180 C    0.972
 ---------------------------------------------------------------------------

           -------------------------------------------------
          | TOTAL ENERGY             -368.800812420752 Eh   |
          | GRADIENT NORM               0.000636460788 Eh/α |
          | HOMO-LUMO GAP               0.971803747965 eV   |
           -------------------------------------------------

 * finished run on 2022/07/30 at 15:23:13.421
