   * xtb version 6.5.1 (b24c23e) compiled by 'conda@728c89f4b128' on 2022-07-12
          program call               : xtb BSA_C6_3.xyz --gfn 1 --opt -T 48

   ID    Z sym.   atoms
    1    6 C      1-5, 7-11, 16-20, 22-27, 29-33, 38-43, 66-70, 72-76, 81-85,
                  87-92, 94-98, 103-108, 131-147, 149-153, 158-162, 164-169,
                  171-175, 180-185
    2    7 N      6, 21, 28, 44, 71, 86, 93, 109, 148, 163, 170, 186
    3   16 S      12, 34, 77, 99, 154, 176
    4    8 O      13-15, 35-37, 78-80, 100-102, 155-157, 177-179
    5    1 H      45-65, 110-130, 187-206

          :  Hamiltonian                  GFN1-xTB          :
 * total energy  :  -405.0711901 Eh     change       -0.6744358E-08 Eh
 * total energy  :  -405.2557614 Eh     change       -0.1845713E+00 Eh
 * total energy  :  -405.3551557 Eh     change       -0.9939429E-01 Eh
 * total energy  :  -405.3965066 Eh     change       -0.4135084E-01 Eh
 * total energy  :  -405.4388221 Eh     change       -0.4231552E-01 Eh
 * total energy  :  -405.4884720 Eh     change       -0.4964991E-01 Eh
 * total energy  :  -405.5337652 Eh     change       -0.4529323E-01 Eh
 * total energy  :  -405.5674224 Eh     change       -0.3365719E-01 Eh
 * total energy  :  -405.5935949 Eh     change       -0.2617245E-01 Eh
 * total energy  :  -405.6182026 Eh     change       -0.2460775E-01 Eh
 * total energy  :  -405.8348466 Eh     change       -0.1956774E-04 Eh
 * total energy  :  -405.8348646 Eh     change       -0.1797096E-04 Eh
 * total energy  :  -405.8348837 Eh     change       -0.1915762E-04 Eh
 * total energy  :  -405.8348978 Eh     change       -0.1404832E-04 Eh
 * total energy  :  -405.8349043 Eh     change       -0.6542872E-05 Eh
 * total energy  :  -405.8349151 Eh     change       -0.1080703E-04 Eh
 * total energy  :  -405.8349115 Eh     change        0.3661450E-05 Eh
 * total energy  :  -405.8349282 Eh     change       -0.1668227E-04 Eh
 * total energy  :  -405.8349289 Eh     change       -0.7257331E-06 Eh
   *** GEOMETRY OPTIMIZATION CONVERGED AFTER 97 ITERATIONS ***

 final structure:
================
206
 xtb: 6.5.1 (b24c23e)
C           26.95241588071120       -0.04727104544279        0.12569207221009
C           27.54728155997848       -1.25843456022555       -0.20217354636025
C           26.88222006370470       -2.48744805484283       -0.47333603650476
C           27.83190908229336       -3.42460778110137       -0.76623145099318
C           29.10835641521803       -2.79612913481908       -0.69042877400079
N           28.88615320098967       -1.49550678036066       -0.33894766479106
C           30.36360791525734       -3.37895121357714       -0.89739861935871
C           30.37247926983090       -4.80528945940263       -1.30350028374341
C           29.76275354035425       -5.19789746979914       -2.49796248168269
C           29.76875089051366       -6.52693566884453       -2.88769841342742
C           30.38556102037711       -7.45748998602210       -2.06734487000069
S           30.40355973329816       -9.14037858332149       -2.55874891488883
O           30.23195534573273       -9.26453602404405       -3.97692939541745
O           29.01866559803150       -9.61065716015209       -1.85140715924603
O           31.49186962626561       -9.83395705643015       -1.93699473582634
C           30.99902840868728       -7.09931454617597       -0.87787628376372
C           30.99031590563652       -5.76673443806721       -0.49983463175236
C           31.58946496041317       -2.72319294771284       -0.75569602964853
C           32.87722936706847       -3.34122541276070       -1.01907714133771
C           33.81030541196854       -2.39896033354509       -0.77266484199876
N           31.76086036803579       -1.42685053880364       -0.38002826515251
C           33.09129454302646       -1.20411300209231       -0.37395971013695
C           33.74269038287658        0.00030861872720       -0.04369628691954
C           33.12260057952531        1.21732348510346        0.29438190393211
C           33.78237060272210        2.42999663258382        0.62872136916718
C           32.82695228267581        3.37492707545518        0.87980279247683
C           31.55268464353799        2.76784409115762        0.70079325986068
N           31.78316873143907        1.46356366247606        0.35381831759338
C           30.29752982011833        3.35906059474401        0.87873074771763
C           30.28645589795929        4.79789976820008        1.23715519237039
C           30.81856629883042        5.74528173359447        0.35853155219800
C           30.81025727603656        7.09091564039667        0.68595232645215
C           30.27272950866475        7.47571185266573        1.90374577713420
S           30.25866395063429        9.17833279351925        2.32092541497051
O           30.22602963702964        9.99495397683223        1.14304331504380
O           31.75180493494410        9.27785798750190        2.95380570732792
O           29.30669825973195        9.43739891619144        3.35997930190469
C           29.73705885845338        6.56050568093468        2.79509868333036
C           29.74387137816750        5.21790826440312        2.45406996629546
C           29.07168209871443        2.69916977726610        0.74557967679539
C           27.77437178848083        3.34072782960495        0.89642344475728
C           26.84903855088827        2.38290033780542        0.68933771457988
C           27.57943868700340        1.16085924769302        0.39979791230491
N           28.91494381717214        1.39064792345662        0.43635361972865
H           25.86782590283063       -0.05339426139417        0.16341153496159
H           25.81322925193918       -2.62429461394361       -0.44024957587256
H           27.66949931680049       -4.46329568291927       -1.00425370163832
H           29.61843448134863       -0.80772626359622       -0.19798263243166
H           29.29825928265121       -4.45225008075908       -3.13269845829526
H           29.30971416047284       -6.83968757056174       -3.81715182486424
H           28.76120572730255      -10.48355494302927       -2.17217491765474
H           31.47606287035625       -7.85235640018413       -0.26334716258770
H           31.45418949028221       -5.46746425546305        0.43271622452800
H           33.02550468474533       -4.35347348664544       -1.35843324929634
H           34.88252275400441       -2.47548916687433       -0.85581702659655
H           34.85243243283325        2.55266990932908        0.67301263096244
H           32.98705574554474        4.39936858401458        1.17385997883664
H           31.05251860242916        0.78198067359728        0.17711639063120
H           31.22392996073562        5.42434505088618       -0.59400379040795
H           31.20800756858511        7.83477765071044        0.00707784238603
H           31.96991001786698       10.19757647676708        3.14816289405645
H           29.32120166376890        6.89681023198118        3.73654542591764
H           29.33952866703085        4.48435999014418        3.14168520029455
H           27.61859112145592        4.38423937411537        1.11791924960362
H           25.77390260029456        2.46585209073418        0.71331216888375
C           65.74964243298753       -0.00424985441514        0.12929681034945
C           65.14894833873720        1.19250262399011        0.49707388450934
C           65.80828531516519        2.38362753222122        0.91270623754918
C           64.85345648182191        3.32709404328484        1.16617551629321
C           63.57950479343321        2.74475378347038        0.90570105467984
N           63.80826883808870        1.45644192041610        0.51534241691724
C           62.32083446955988        3.34086248783906        1.04180247580866
C           62.30275992326812        4.76610383086122        1.45122239010197
C           62.90455336905727        5.73609935973042        0.64530401418960
C           62.88803352027657        7.06994301998712        1.01806483464730
C           62.26881435657334        7.42046271426624        2.20680887299525
S           62.23700781606232        9.10827656795120        2.68048069545690
O           62.39695976085461        9.96604478082625        1.54259236829831
O           63.62490741213740        9.14674715951475        3.52428367365412
O           61.14933977722926        9.35709605717630        3.57881604099722
C           61.66314128150910        6.48226532175876        3.02678754732205
C           61.68232877310415        5.15170721423815        2.64223795605120
C           61.09838413360472        2.70150200371980        0.81913636247084
C           59.80751801215314        3.35981977019418        0.91844145950690
C           58.87881218784803        2.42332325747541        0.63634101737159
N           60.93306670868564        1.39916063030888        0.46179535892695
C           59.60346813094039        1.19928489366583        0.35291680457312
C           58.95728856741521       -0.00678319281372        0.01728141537198
C           59.58313167920787       -1.21933756274701       -0.32553190874175
C           58.92964158785507       -2.43423671961021       -0.66397228001464
C           59.88972223111683       -3.36285949037222       -0.95513440701724
C           61.16056595016361       -2.74008516224092       -0.80809693704395
N           60.92357592089980       -1.44897731546383       -0.41888564990484
C           62.41890227370467       -3.32448696011175       -0.98628224345363
C           62.43788345698171       -4.73505286429777       -1.44309048496194
C           61.88968994602092       -5.07934560189217       -2.68150309644885
C           61.90981339231343       -6.39324382899322       -3.11877840344444
C           62.47514039407761       -7.35792692263012       -2.30033734102885
S           62.50770866480386       -9.02116407160966       -2.85317187346024
O           62.52128902660197       -9.08489252334437       -4.28531517565066
O           61.02888579629384       -9.46636989122317       -2.34849713432709
O           63.48229997940361       -9.77851460994469       -2.12526617622354
C           63.02565396660782       -7.04795590836894       -1.06750599363202
C           63.00681059322264       -5.72934493543280       -0.64344631915482
C           63.64210923561319       -2.68171514890220       -0.76982782243080
C           64.94215236501813       -3.29417384789737       -0.99847302575733
C           65.86343051966681       -2.36341547084981       -0.67996354772915
C           65.12772264822583       -1.17956988636275       -0.27029453011105
N           63.79307827221446       -1.40583072494100       -0.34357053218556
H           66.83460526056064       -0.01058348419782        0.15392041010673
H           66.87718102600965        2.48989407036039        1.00619215571157
H           65.01094826014820        4.33560693523225        1.51259152320941
H           63.07917810648689        0.79298765257468        0.27572265793454
H           63.37074332037731        5.44314362884754       -0.28824333747707
H           63.34051878767528        7.83085478194508        0.39463841835883
H           63.88261268627343       10.06023381582136        3.69811651116667
H           61.18382707958570        6.79214467809317        3.94684342269707
H           61.22436352030181        4.40056740014210        3.27504996587809
H           59.65443640665941        4.39956259858009        1.15777388030191
H           57.80615423214611        2.52735909022356        0.60604897832367
H           57.86042923967442       -2.57106079922034       -0.67671318471268
H           59.73530058446244       -4.39164116043303       -1.23685114788814
H           61.65063276085700       -0.76830142201349       -0.22473659181433
H           61.46313482522828       -4.30761374337966       -3.31169023784175
H           61.50027055328312       -6.66891151366739       -4.08248612926102
H           60.82761361616137      -10.35868326254720       -2.65587511516340
H           63.46297993829319       -7.82663104196358       -0.45529785173520
H           63.42314256403702       -5.46704756615096        0.32207098199702
H           65.10242095704047       -4.29549035811519       -1.36436808905800
H           66.93886189180793       -2.43682255085414       -0.71768237871628
C           38.94623223609402        0.05743285754556       -0.03064385817390
C           37.71868473936099        0.03800751354016       -0.04277367424471
C           36.37337486534597        0.02112112283567       -0.05017893281929
C           35.15017311443196        0.00542106832429       -0.05297561514260
C           40.29129292967323        0.07797637487596       -0.01490582182636
C           41.51445990727764        0.09595422130229        0.00439612984208
C           54.98122077917742       -0.00374193469263        0.02743733206711
C           53.75347015607607        0.00612285206669        0.02704879174206
C           52.40829982758942        0.01933410502827        0.03412275231157
C           51.18495226662783        0.03770420991912        0.03969900569936
C           56.32653375167524       -0.01319812737592        0.01689358499788
C           57.54989695597954       -0.01101411515232        0.01302799856668
C           42.92084983611176        0.10981540115940        0.02259782590655
C           43.55368622725492        0.80431057746819       -1.02500632725522
C           42.91147460683511        1.47443517424378       -2.09877603308908
C           43.88041823155612        2.03420274798771       -2.88511391750954
C           45.14384683715215        1.72717974124522       -2.30895371259100
N           44.89574085078098        0.97535824734038       -1.19249572478777
C           46.40701204891131        2.09073535419835       -2.79076729947657
C           46.42723772263579        2.93938368624289       -4.00748651572652
C           47.02708966326619        2.47439343784239       -5.18054158243767
C           47.04416291259575        3.26019618585063       -6.32103183015651
C           46.45791704139875        4.51456491203215       -6.27322912522625
S           46.48270009080013        5.51765905919633       -7.71098796010038
O           46.34207438023972        6.90378711190843       -7.37314242922444
O           45.08243563288922        5.02120598454991       -8.36825577300315
O           47.55443193347921        5.12948678502933       -8.57886034908722
C           45.86187506087656        5.00622065225935       -5.12330466492320
C           45.84673650362208        4.21015969089238       -3.98985905376784
C           47.63015432210491        1.72052789581271       -2.22814592543488
C           48.91983227687598        2.16209582611773       -2.72981613125782
C           49.85218858579098        1.59251957459971       -1.93909084738873
N           47.79949548535301        0.91971548947641       -1.14137346548422
C           49.13087173173857        0.81512549741084       -0.95028285009587
C           49.77864482996966        0.06206413770408        0.04817160545479
C           49.14546263116814       -0.67171493302293        1.06861187306953
C           49.78689605535112       -1.43990230362279        2.07507125677371
C           48.81803321349677       -1.96550472509809        2.88479290051198
C           47.55555305842299       -1.52730636368785        2.39849939915015
N           47.80375582178442       -0.75774144977853        1.29430900787156
C           46.29287266259920       -1.83382417923510        2.91962102590487
C           46.27176146508269       -2.65346549199289        4.15618110071968
C           45.66753647066452       -3.91315129260254        4.15799167385416
C           45.64571427046124       -4.68094783799247        5.31063238671852
C           46.22834645445960       -4.17197014773395        6.45993658675252
S           46.21018045134765       -5.14116494296084        7.92082966967897
O           46.08229173241713       -6.53221964328880        7.60229842305497
O           44.79801109197705       -4.62159658542568        8.53203883437603
O           47.25359360363698       -4.73716064424460        8.81733334853664
C           46.83687934550387       -2.92776576644924        6.48894173796344
C           46.85823922528922       -2.17109025714394        5.32895064305874
C           45.06978624685637       -1.43489684428548        2.37722086795005
C           43.78068385655847       -1.73772617309779        2.97424057254853
C           42.84803069337684       -1.20139315492492        2.16087476033921
C           43.56884067912878       -0.56077493810317        1.07809059677001
N           44.89991754480714       -0.70793241860606        1.23976042613169
H           41.84425219420713        1.51414323321570       -2.24530290589400
H           43.73516451758900        2.60080316932931       -3.79029783311901
H           45.61332161781786        0.59540341508664       -0.58424344390471
H           47.46976631088082        1.48543268868257       -5.19976279647942
H           47.50655294074405        2.90994225457093       -7.23527869375243
H           44.85579980479313        5.57337451409170       -9.12646646982859
H           45.42475453275593        5.99682411567126       -5.11732556842873
H           45.39709772773104        4.58140655640357       -3.07628299773086
H           49.06948885872749        2.82786701554194       -3.56413689554292
H           50.92535506554661        1.68080759464090       -1.99240097578352
H           50.85357294053312       -1.57088263306547        2.15906519517962
H           48.96235378033481       -2.60846340487240        3.73759051430601
H           47.08678772191871       -0.31855605625629        0.72659171047446
H           45.22732583894746       -4.29706442680404        3.24520434123247
H           45.18955615423919       -5.66287748511245        5.32060724753644
H           44.67137047179423       -4.96984553368702        9.42302436974957
H           47.28747044529349       -2.56305035686426        7.40346405123805
H           47.31932524204615       -1.19027001382691        5.33340941738936
H           43.63149935321556       -2.27616910888529        3.89598610124207
H           41.77510325273541       -1.21424399067297        2.26607103602880

          :  Hamiltonian                  GFN1-xTB          :
         :: total energy            -405.834928883942 Eh    ::
         :: gradient norm              0.000843673873 Eh/a0 ::
         :: HOMO-LUMO gap              1.055807217911 eV    ::
         :: SCC energy              -411.553810412901 Eh    ::
         :: repulsion energy           5.897504167929 Eh    ::

    * Orbital Energies and Occupations

         #    Occupation            Energy/Eh            Energy/eV
      -------------------------------------------------------------
         1        2.0000           -1.0372034             -28.2237
       ...           ...                  ...                  ...
       337        2.0000           -0.4341607             -11.8141
       338        2.0000           -0.4339120             -11.8073
       339        2.0000           -0.4335126             -11.7965
       340        2.0000           -0.4324988             -11.7689
       341        2.0000           -0.4323240             -11.7641
       342        2.0000           -0.4316537             -11.7459
       343        2.0000           -0.4293758             -11.6839
       344        2.0000           -0.4181508             -11.3785
       345        2.0000           -0.4169517             -11.3458
       346        2.0000           -0.4160590             -11.3215
       347        2.0000           -0.4022149             -10.9448
       348        2.0000           -0.4008413             -10.9074
       349        2.0000           -0.3979195             -10.8279 (HOMO)
       350                         -0.3591193              -9.7721 (LUMO)
       351                         -0.3541009              -9.6356
       352                         -0.3528971              -9.6028
       353                         -0.3515424              -9.5660
       354                         -0.3506268              -9.5410
       355                         -0.3497575              -9.5174
       356                         -0.3272397              -8.9046
       357                         -0.3216540              -8.7527
       358                         -0.3206933              -8.7265
       359                         -0.3108996              -8.4600
       360                         -0.3104795              -8.4486
       ...                                ...                  ...
       730                          1.5634713              42.5442
      -------------------------------------------------------------
                  HL-Gap            0.0388002 Eh            1.0558 eV

Wiberg/Mayer (AO) data.
largest (>0.10) Wiberg bond orders for each atom

     #   Z sym  total        # sym  WBO       # sym  WBO       # sym  WBO
 ---------------------------------------------------------------------------
     1   6 C    3.929 --    43 C    1.367     2 C    1.348    45 H    0.970
     2   6 C    3.900 --     1 C    1.348     3 C    1.228     6 N    1.169
     3   6 C    3.954 --     4 C    1.598     2 C    1.228    46 H    0.976
     4   6 C    3.959 --     3 C    1.598     5 C    1.231    47 H    0.974
     5   6 C    3.898 --     7 C    1.304     4 C    1.231     6 N    1.179
     6   7 N    3.471 --     5 C    1.179     2 C    1.169    48 H    0.873
     7   6 C    3.938 --    18 C    1.332     5 C    1.304     8 C    1.030
     8   6 C    3.986 --    17 C    1.391     9 C    1.390     7 C    1.030
     9   6 C    3.986 --    10 C    1.450     8 C    1.390    49 H    0.971
                            16 C    0.106
    10   6 C    3.989 --     9 C    1.450    11 C    1.407    50 H    0.967
                            17 C    0.106
    11   6 C    3.930 --    16 C    1.407    10 C    1.407    12 S    0.754
    12  16 S    5.265 --    15 O    1.725    13 O    1.715    14 O    1.013
                            11 C    0.754
    13   8 O    2.074 --    12 S    1.715    15 O    0.139
    14   8 O    2.087 --    12 S    1.013    51 H    0.828
    15   8 O    2.083 --    12 S    1.725    13 O    0.139
    16   6 C    3.989 --    17 C    1.450    11 C    1.407    52 H    0.967
                             9 C    0.106
    17   6 C    3.987 --    16 C    1.450     8 C    1.391    53 H    0.971
                            10 C    0.106
    18   6 C    3.915 --     7 C    1.332    21 N    1.290    19 C    1.123
    19   6 C    3.966 --    20 C    1.713    18 C    1.123    54 H    0.973
    20   6 C    3.964 --    19 C    1.713    22 C    1.126    55 H    0.974
    21   7 N    3.024 --    22 C    1.340    18 C    1.290
    22   6 C    3.908 --    21 N    1.340    23 C    1.260    20 C    1.126
    23   6 C    3.940 --    22 C    1.260    24 C    1.255   134 C    1.183
    24   6 C    3.885 --    23 C    1.255    25 C    1.247    28 N    1.187
    25   6 C    3.959 --    26 C    1.586    24 C    1.247    56 H    0.974
    26   6 C    3.955 --    25 C    1.586    27 C    1.238    57 H    0.974
    27   6 C    3.899 --    29 C    1.309    26 C    1.238    28 N    1.168
    28   7 N    3.475 --    24 C    1.187    27 C    1.168    58 H    0.872
    29   6 C    3.925 --    40 C    1.321    27 C    1.309    30 C    1.030
    30   6 C    3.986 --    39 C    1.391    31 C    1.390    29 C    1.030
    31   6 C    3.986 --    32 C    1.451    30 C    1.390    59 H    0.971
                            38 C    0.106
    32   6 C    3.989 --    31 C    1.451    33 C    1.406    60 H    0.967
                            39 C    0.106
    33   6 C    3.930 --    38 C    1.408    32 C    1.406    34 S    0.754
    34  16 S    5.264 --    37 O    1.723    35 O    1.717    36 O    1.012
                            33 C    0.754
    35   8 O    2.076 --    34 S    1.717    37 O    0.139
    36   8 O    2.087 --    34 S    1.012    61 H    0.828
    37   8 O    2.081 --    34 S    1.723    35 O    0.139
    38   6 C    3.989 --    39 C    1.449    33 C    1.408    62 H    0.967
                            31 C    0.106
    39   6 C    3.986 --    38 C    1.449    30 C    1.391    63 H    0.971
                            32 C    0.106
    40   6 C    3.929 --    29 C    1.321    44 N    1.318    41 C    1.115
    41   6 C    3.967 --    42 C    1.726    40 C    1.115    64 H    0.973
    42   6 C    3.966 --    41 C    1.726    43 C    1.115    65 H    0.975
    43   6 C    3.927 --     1 C    1.367    44 N    1.300    42 C    1.115
    44   7 N    3.015 --    40 C    1.318    43 C    1.300
    45   1 H    1.001 --     1 C    0.970
    46   1 H    0.997 --     3 C    0.976
    47   1 H    1.003 --     4 C    0.974
    48   1 H    0.986 --     6 N    0.873
    49   1 H    1.003 --     9 C    0.971
    50   1 H    1.000 --    10 C    0.967
    51   1 H    0.854 --    14 O    0.828
    52   1 H    0.999 --    16 C    0.967
    53   1 H    1.003 --    17 C    0.971
    54   1 H    1.004 --    19 C    0.973
    55   1 H    1.002 --    20 C    0.974
    56   1 H    1.001 --    25 C    0.974
    57   1 H    1.003 --    26 C    0.974
    58   1 H    0.987 --    28 N    0.872
    59   1 H    1.003 --    31 C    0.971
    60   1 H    0.999 --    32 C    0.967
    61   1 H    0.854 --    36 O    0.828
    62   1 H    1.000 --    38 C    0.967
    63   1 H    1.003 --    39 C    0.971
    64   1 H    1.003 --    41 C    0.973
    65   1 H    0.998 --    42 C    0.975
    66   6 C    3.929 --   108 C    1.367    67 C    1.348   110 H    0.970
    67   6 C    3.900 --    66 C    1.348    68 C    1.228    71 N    1.169
    68   6 C    3.954 --    69 C    1.598    67 C    1.228   111 H    0.976
    69   6 C    3.959 --    68 C    1.598    70 C    1.232   112 H    0.974
    70   6 C    3.898 --    72 C    1.303    69 C    1.232    71 N    1.179
    71   7 N    3.471 --    70 C    1.179    67 C    1.169   113 H    0.873
    72   6 C    3.938 --    83 C    1.332    70 C    1.303    73 C    1.031
    73   6 C    3.986 --    82 C    1.390    74 C    1.390    72 C    1.031
    74   6 C    3.986 --    75 C    1.450    73 C    1.390   114 H    0.971
                            81 C    0.106
    75   6 C    3.989 --    74 C    1.450    76 C    1.407   115 H    0.967
                            82 C    0.106
    76   6 C    3.930 --    81 C    1.407    75 C    1.407    77 S    0.754
    77  16 S    5.265 --    80 O    1.725    78 O    1.715    79 O    1.013
                            76 C    0.754
    78   8 O    2.074 --    77 S    1.715    80 O    0.139
    79   8 O    2.087 --    77 S    1.013   116 H    0.828
    80   8 O    2.084 --    77 S    1.725    78 O    0.139
    81   6 C    3.989 --    82 C    1.450    76 C    1.407   117 H    0.967
                            74 C    0.106
    82   6 C    3.987 --    81 C    1.450    73 C    1.390   118 H    0.971
                            75 C    0.106
    83   6 C    3.915 --    72 C    1.332    86 N    1.290    84 C    1.123
    84   6 C    3.966 --    85 C    1.713    83 C    1.123   119 H    0.973
    85   6 C    3.964 --    84 C    1.713    87 C    1.126   120 H    0.974
    86   7 N    3.023 --    87 C    1.340    83 C    1.290
    87   6 C    3.908 --    86 N    1.340    88 C    1.259    85 C    1.126
    88   6 C    3.940 --    87 C    1.259    89 C    1.256   142 C    1.183
    89   6 C    3.885 --    88 C    1.256    90 C    1.247    93 N    1.187
    90   6 C    3.959 --    91 C    1.586    89 C    1.247   121 H    0.974
    91   6 C    3.955 --    90 C    1.586    92 C    1.238   122 H    0.974
    92   6 C    3.899 --    94 C    1.309    91 C    1.238    93 N    1.168
    93   7 N    3.475 --    89 C    1.187    92 C    1.168   123 H    0.872
    94   6 C    3.925 --   105 C    1.321    92 C    1.309    95 C    1.030
    95   6 C    3.986 --   104 C    1.391    96 C    1.390    94 C    1.030
    96   6 C    3.986 --    97 C    1.451    95 C    1.390   124 H    0.971
                           103 C    0.106
    97   6 C    3.989 --    96 C    1.451    98 C    1.406   125 H    0.967
                           104 C    0.106
    98   6 C    3.929 --   103 C    1.408    97 C    1.406    99 S    0.754
    99  16 S    5.264 --   102 O    1.722   100 O    1.717   101 O    1.012
                            98 C    0.754
   100   8 O    2.076 --    99 S    1.717   102 O    0.139
   101   8 O    2.087 --    99 S    1.012   126 H    0.828
   102   8 O    2.081 --    99 S    1.722   100 O    0.139
   103   6 C    3.989 --   104 C    1.449    98 C    1.408   127 H    0.967
                            96 C    0.106
   104   6 C    3.986 --   103 C    1.449    95 C    1.391   128 H    0.971
                            97 C    0.106
   105   6 C    3.929 --    94 C    1.321   109 N    1.318   106 C    1.115
   106   6 C    3.967 --   107 C    1.726   105 C    1.115   129 H    0.973
   107   6 C    3.966 --   106 C    1.726   108 C    1.115   130 H    0.975
   108   6 C    3.927 --    66 C    1.367   109 N    1.300   107 C    1.115
   109   7 N    3.015 --   105 C    1.318   108 C    1.300
   110   1 H    1.001 --    66 C    0.970
   111   1 H    0.997 --    68 C    0.976
   112   1 H    1.003 --    69 C    0.974
   113   1 H    0.986 --    71 N    0.873
   114   1 H    1.003 --    74 C    0.971
   115   1 H    0.999 --    75 C    0.967
   116   1 H    0.854 --    79 O    0.828
   117   1 H    0.999 --    81 C    0.967
   118   1 H    1.003 --    82 C    0.971
   119   1 H    1.004 --    84 C    0.973
   120   1 H    1.002 --    85 C    0.974
   121   1 H    1.001 --    90 C    0.974
   122   1 H    1.003 --    91 C    0.974
   123   1 H    0.987 --    93 N    0.872
   124   1 H    1.003 --    96 C    0.971
   125   1 H    0.999 --    97 C    0.967
   126   1 H    0.854 --   101 O    0.828
   127   1 H    1.000 --   103 C    0.967
   128   1 H    1.003 --   104 C    0.971
   129   1 H    1.004 --   106 C    0.973
   130   1 H    0.998 --   107 C    0.975
   131   6 C    3.923 --   132 C    2.375   135 C    1.329   134 C    0.189
   132   6 C    3.922 --   131 C    2.375   133 C    1.328   136 C    0.189
   133   6 C    3.933 --   134 C    2.456   132 C    1.328
   134   6 C    3.888 --   133 C    2.456    23 C    1.183   131 C    0.189
   135   6 C    3.930 --   136 C    2.454   131 C    1.329
   136   6 C    3.889 --   135 C    2.454   143 C    1.186   132 C    0.189
   137   6 C    3.922 --   138 C    2.374   141 C    1.328   140 C    0.189
   138   6 C    3.923 --   137 C    2.374   139 C    1.329   142 C    0.189
   139   6 C    3.930 --   140 C    2.454   138 C    1.329
   140   6 C    3.889 --   139 C    2.454   165 C    1.186   137 C    0.189
   141   6 C    3.933 --   142 C    2.456   137 C    1.328
   142   6 C    3.888 --   141 C    2.456    88 C    1.183   138 C    0.189
   143   6 C    3.930 --   185 C    1.258   144 C    1.252   136 C    1.186
   144   6 C    3.885 --   143 C    1.252   145 C    1.250   148 N    1.187
   145   6 C    3.956 --   146 C    1.581   144 C    1.250   187 H    0.975
   146   6 C    3.956 --   145 C    1.581   147 C    1.243   188 H    0.974
   147   6 C    3.895 --   149 C    1.301   146 C    1.243   148 N    1.169
   148   7 N    3.473 --   144 C    1.187   147 C    1.169   189 H    0.873
   149   6 C    3.927 --   160 C    1.335   147 C    1.301   150 C    1.030
   150   6 C    3.986 --   159 C    1.391   151 C    1.390   149 C    1.030
   151   6 C    3.986 --   152 C    1.450   150 C    1.390   190 H    0.971
                           158 C    0.106
   152   6 C    3.989 --   151 C    1.450   153 C    1.407   191 H    0.967
                           159 C    0.106
   153   6 C    3.930 --   158 C    1.407   152 C    1.407   154 S    0.754
   154  16 S    5.265 --   157 O    1.724   155 O    1.717   156 O    1.012
                           153 C    0.754
   155   8 O    2.076 --   154 S    1.717   157 O    0.139
   156   8 O    2.087 --   154 S    1.012   192 H    0.828
   157   8 O    2.082 --   154 S    1.724   155 O    0.139
   158   6 C    3.989 --   159 C    1.450   153 C    1.407   193 H    0.967
                           151 C    0.106
   159   6 C    3.986 --   158 C    1.450   150 C    1.391   194 H    0.971
                           152 C    0.106
   160   6 C    3.917 --   149 C    1.335   163 N    1.288   161 C    1.123
   161   6 C    3.966 --   162 C    1.712   160 C    1.123   195 H    0.973
   162   6 C    3.964 --   161 C    1.712   164 C    1.127   196 H    0.974
   163   7 N    3.013 --   164 C    1.340   160 C    1.288
   164   6 C    3.908 --   163 N    1.340   165 C    1.259   162 C    1.127
   165   6 C    3.930 --   164 C    1.259   166 C    1.252   140 C    1.186
   166   6 C    3.885 --   165 C    1.252   167 C    1.250   170 N    1.187
   167   6 C    3.956 --   168 C    1.581   166 C    1.250   197 H    0.974
   168   6 C    3.956 --   167 C    1.581   169 C    1.243   198 H    0.974
   169   6 C    3.895 --   171 C    1.300   168 C    1.243   170 N    1.169
   170   7 N    3.473 --   166 C    1.187   169 C    1.169   199 H    0.873
   171   6 C    3.927 --   182 C    1.335   169 C    1.300   172 C    1.029
   172   6 C    3.986 --   181 C    1.391   173 C    1.391   171 C    1.029
   173   6 C    3.987 --   174 C    1.450   172 C    1.391   200 H    0.971
                           180 C    0.106
   174   6 C    3.989 --   173 C    1.450   175 C    1.407   201 H    0.967
                           181 C    0.106
   175   6 C    3.930 --   180 C    1.407   174 C    1.407   176 S    0.754
   176  16 S    5.265 --   177 O    1.723   179 O    1.716   178 O    1.013
                           175 C    0.754
   177   8 O    2.081 --   176 S    1.723   179 O    0.139
   178   8 O    2.088 --   176 S    1.013   202 H    0.827
   179   8 O    2.075 --   176 S    1.716   177 O    0.139
   180   6 C    3.989 --   181 C    1.450   175 C    1.407   203 H    0.967
                           173 C    0.106
   181   6 C    3.986 --   180 C    1.450   172 C    1.391   204 H    0.971
                           174 C    0.106
   182   6 C    3.917 --   171 C    1.335   186 N    1.287   183 C    1.123
   183   6 C    3.966 --   184 C    1.712   182 C    1.123   205 H    0.973
   184   6 C    3.964 --   183 C    1.712   185 C    1.127   206 H    0.974
   185   6 C    3.908 --   186 N    1.340   143 C    1.258   184 C    1.127
   186   7 N    3.012 --   185 C    1.340   182 C    1.287
   187   1 H    1.001 --   145 C    0.975
   188   1 H    1.003 --   146 C    0.974
   189   1 H    0.987 --   148 N    0.873
   190   1 H    1.003 --   151 C    0.971
   191   1 H    0.999 --   152 C    0.967
   192   1 H    0.854 --   156 O    0.828
   193   1 H    0.999 --   158 C    0.967
   194   1 H    1.003 --   159 C    0.971
   195   1 H    1.004 --   161 C    0.973
   196   1 H    1.002 --   162 C    0.974
   197   1 H    1.001 --   167 C    0.974
   198   1 H    1.003 --   168 C    0.974
   199   1 H    0.987 --   170 N    0.873
   200   1 H    1.003 --   173 C    0.971
   201   1 H    0.999 --   174 C    0.967
   202   1 H    0.854 --   178 O    0.827
   203   1 H    0.999 --   180 C    0.967
   204   1 H    1.003 --   181 C    0.971
   205   1 H    1.004 --   183 C    0.973
   206   1 H    1.002 --   184 C    0.974
 ---------------------------------------------------------------------------

           -------------------------------------------------
          | TOTAL ENERGY             -405.834928883942 Eh   |
          | GRADIENT NORM               0.000843673873 Eh/α |
          | HOMO-LUMO GAP               1.055807217911 eV   |
           -------------------------------------------------

 * finished run on 2022/07/31 at 16:56:45.460
