   * xtb version 6.5.1 (b24c23e) compiled by 'conda@728c89f4b128' on 2022-07-12
          program call               : xtb Cu_Ph3OH_C8_2.xyz --gfn 1 --opt -T 48

   ID    Z sym.   atoms
    1   29 Cu     1, 63
    2    6 C      2-6, 8-11, 13, 15, 17-20, 22-27, 29-32, 34, 36, 38-42,
                  64-68, 70-73, 75, 77, 79-82, 84-89, 91-94, 96, 98, 100-104,
                  125-132
    3    7 N      7, 21, 28, 43, 69, 83, 90, 105
    4    8 O      12, 14, 16, 33, 35, 37, 74, 76, 78, 95, 97, 99
    5    1 H      44-62, 106-124
########################################################################
[WARNING] Please study the warnings concerning your input carefully
-1- prog_main_parseArguments: Unknown option '-T' provided
########################################################################

          :  Hamiltonian                  GFN1-xTB          :
 * total energy  :  -262.9584726 Eh     change        0.7275958E-11 Eh
 * total energy  :  -263.3124317 Eh     change       -0.3539591E+00 Eh
 * total energy  :  -263.4182873 Eh     change       -0.1058557E+00 Eh
 * total energy  :  -263.4622004 Eh     change       -0.4391310E-01 Eh
 * total energy  :  -263.4803586 Eh     change       -0.1815816E-01 Eh
 * total energy  :  -263.4895248 Eh     change       -0.9166196E-02 Eh
 * total energy  :  -263.4943578 Eh     change       -0.4833055E-02 Eh
 * total energy  :  -263.4967680 Eh     change       -0.2410159E-02 Eh
 * total energy  :  -263.4983526 Eh     change       -0.1584649E-02 Eh
 * total energy  :  -263.4996559 Eh     change       -0.1303282E-02 Eh
 * total energy  :  -263.5062093 Eh     change       -0.2510919E-04 Eh
 * total energy  :  -263.5062396 Eh     change       -0.3023490E-04 Eh
 * total energy  :  -263.5062543 Eh     change       -0.1470782E-04 Eh
 * total energy  :  -263.5062663 Eh     change       -0.1206473E-04 Eh
 * total energy  :  -263.5062744 Eh     change       -0.8076339E-05 Eh
 * total energy  :  -263.5062825 Eh     change       -0.8132867E-05 Eh
 * total energy  :  -263.5062909 Eh     change       -0.8371825E-05 Eh
 * total energy  :  -263.5062969 Eh     change       -0.6000832E-05 Eh
 * total energy  :  -263.5063006 Eh     change       -0.3725058E-05 Eh
   *** GEOMETRY OPTIMIZATION CONVERGED AFTER 59 ITERATIONS ***

 final structure:
================
132
 xtb: 6.5.1 (b24c23e)
Cu          13.42354402069301        0.04199077860350       -0.01479061415982
C           10.02336505846156        0.07821051244590       -0.19537164457420
C           10.65698943380222        1.30914600858448       -0.11536181937788
C            9.98002100119754        2.57300050445191       -0.05821240696442
C           10.93694253905432        3.53037152065203        0.02177826376572
C           12.20904045580184        2.86025388163030        0.00274373029158
N           12.00702766082290        1.51181063231555       -0.06874508517442
C           13.45318406196283        3.49311671137484        0.06589846377422
C           13.46750715253977        4.97759563623382        0.10625431786541
C           12.93336219293356        5.71373487576574       -0.95153513636804
C           12.95080014418813        7.10310347688901       -0.91344981731163
O           12.44054298529477        7.82799297019903       -1.93899288508400
C           13.49826769425571        7.76173211169833        0.18867876940252
O           13.49921929899178        9.13212360166687        0.19994372182518
C           14.02880543534103        7.02690265904283        1.24578897526464
O           14.54537754740247        7.74286571078692        2.29392020180738
C           14.01846939168337        5.63815732183966        1.20777831619136
C           14.68505330754610        2.83582352338956        0.09362969392291
C           15.96456042708318        3.48680809467772        0.09446510023181
C           16.90833688950183        2.51171631075174        0.12150812638418
N           14.87113774924192        1.47832968083928        0.10347341021578
C           16.21387576585084        1.25967108539089        0.12870927687653
C           16.84742186240996        0.00414545082740        0.14981743080969
C           16.18824167297920       -1.23741868276525        0.11832175483430
C           16.85610577382118       -2.50435784196385        0.11979392525312
C           15.89341946930682       -3.45848872236056        0.05408209109888
C           14.62879873983046       -2.77972910144895        0.01821883338455
N           14.84242359151719       -1.42668303896791        0.05569047973554
C           13.38711218830481       -3.40882829327178       -0.08343041365737
C           13.37153017954956       -4.89471721060444       -0.11075645144940
C           13.81183723638007       -5.61980466812698        0.99624503021067
C           13.79196643675920       -7.00955469551160        0.97183926067230
O           14.20822673233659       -7.72473945187604        2.04556977501983
C           13.33995944863250       -7.67849537928478       -0.16676938188471
O           13.33624173323425       -9.04909237721616       -0.16401698895760
C           12.90525991457893       -6.95388780010463       -1.27345636755737
O           12.48079010939876       -7.67975828359619       -2.35580361446862
C           12.91421623751461       -5.56463674616620       -1.24833022913790
C           12.15790082208334       -2.74978216795199       -0.16286503831122
C           10.87554423911314       -3.39641950114700       -0.23018926034439
C            9.93656263747400       -2.41844180073653       -0.26541371668653
C           10.63519957771165       -1.16633968075993       -0.21144982762258
N           11.98009205841928       -1.39623214665992       -0.15038494183189
H            8.93903126514640        0.08934584687299       -0.23737422362365
H            8.90856069685318        2.69692365190178       -0.07040047626715
H           10.80004182429314        4.59694496612611        0.09853210335403
H           12.52035731247586        5.21354476482056       -1.81798489468608
H           12.54628117091546        8.77036633505423       -1.72804053609061
H           13.91471511134824        9.42332472058446        1.02720238447083
H           14.89541216197960        7.15253957757084        2.97397016500489
H           14.42060757231460        5.07283330402337        2.04032621463408
H           16.11886546631921        4.55320293380230        0.06142651798425
H           17.98100919597045        2.62133143665050        0.12857026501169
H           17.92552564750143       -2.63630746955952        0.16017575704512
H           16.02404043950958       -4.52796828689417        0.02103613043612
H           14.15422030723414       -5.11064676416761        1.88789079494172
H           14.11885197841120       -8.66902699561108        1.83564024542529
H           12.99767695687122       -9.34807885508428       -1.02293845899582
H           12.20377973856679       -7.09555371679445       -3.07369832083375
H           12.58488376111075       -5.00679118307847       -2.11714903418119
H           10.72006462649696       -4.46337784428792       -0.23641917256213
H            8.86397798067268       -2.52167702409988       -0.31567276504621
Cu          32.01439493679344       -0.04297487691390       -0.02446842787657
C           35.41583944737278       -0.05667341844177       -0.18723351643313
C           34.78292272275581       -1.28853374121751       -0.25815634360589
C           35.46080482392760       -2.54980581791505       -0.35141959839517
C           34.50455679587553       -3.51051390125787       -0.38699964707472
C           33.23203757964224       -2.84373050900226       -0.32648395144104
N           33.43299294939074       -1.49608906409372       -0.23828663952388
C           31.98865040242190       -3.48079628727436       -0.33509404585406
C           31.97491913938882       -4.96068921152060       -0.46151553934384
C           32.49722323468946       -5.57325708292538       -1.60068217904606
C           32.47684511203714       -6.95812551349056       -1.71911697896916
O           32.97422300457858       -7.56345595863773       -2.82534112846660
C           31.93941796472830       -7.73609406326167       -0.69243456694560
O           31.93498519425616       -9.09906171498911       -0.83585774072927
C           31.42184236507272       -7.12461080769491        0.44648380587048
O           30.91500059990770       -7.95346262133546        1.41292809638305
C           31.43420963573443       -5.74038256915467        0.56455720226896
C           30.75597847777524       -2.83249982497294       -0.23371071582372
C           29.47746386390694       -3.48170079851004       -0.30423562100810
C           28.53220039662266       -2.51660329073679       -0.17287136140082
N           30.56786839115568       -1.48445593954723       -0.07632516464926
C           29.22480795643436       -1.27162443882626       -0.02984879855161
C           28.58924115924746       -0.02648661157592        0.12382608055789
C           29.24673014718937        1.21202210292895        0.22880651977335
C           28.57709042237880        2.47105413442268        0.36086395372817
C           29.53901404727925        3.42703722432432        0.40877316844307
C           30.80485683656996        2.75658195470830        0.31277568293807
N           30.59284023410260        1.40750490211243        0.19962519975611
C           32.04674142919887        3.39328420256413        0.29779392534695
C           32.06100939985212        4.87251837843220        0.44037750397368
C           31.60489797746575        5.46656779489759        1.61687491399007
C           31.62562440657946        6.84988643399663        1.75257340263554
O           31.19439481941870        7.43785054031694        2.89532502709776
C           32.09430441368574        7.64419646366204        0.70493906489542
O           32.09922507517944        9.00540837307405        0.86541311431564
C           32.54415695800946        7.05067879579627       -0.47156037290151
O           32.98435029030293        7.89514568740650       -1.45720206461400
C           32.53435391417511        5.66776351841873       -0.60628218936942
C           33.27780414084921        2.74766831921570        0.15884748940733
C           34.56001923267439        3.39769763172722        0.18150608288904
C           35.50050949161939        2.43061928193294        0.04144457279044
C           34.80286745181162        1.18084587685088       -0.05927485424186
N           33.45719358125439        1.40188411286429        0.01543926386238
H           36.50040909924931       -0.06244091576988       -0.22379312123158
H           36.53237653686563       -2.67050006029436       -0.37780496779667
H           34.64185641611170       -4.57854745918790       -0.43885636981526
H           32.90269472807233       -4.97903994061115       -2.40938327621688
H           32.86729493942901       -8.52341178551143       -2.72140624425890
H           31.52753471138742       -9.48110013574602       -0.04224055778022
H           30.57586296487578       -7.44309733571656        2.15991342473488
H           31.04109047840181       -5.27165885423209        1.45911265170425
H           29.32509047594212       -4.53863387107578       -0.45190720219367
H           27.45965649184714       -2.62766271029448       -0.17894109877729
H           27.50714581144455        2.59754659658750        0.40414155072980
H           29.40723701100579        4.49377486479868        0.49023781894212
H           31.24968800351511        4.85900501327024        2.43916177315023
H           31.28798201791675        8.39978301503396        2.79701140165778
H           32.44939964515436        9.40018242693365        0.05092639621640
H           33.26959225836305        7.39668411371377       -2.23414626194060
H           32.87583533572695        5.21271335540180       -1.52867132836564
H           34.71440334590160        4.45797914712211        0.30225990755387
H           36.57341626290139        2.53920690741785        0.01477011174688
C           18.25217039892209       -0.00890137701130        0.18740479669422
C           19.47646030595729       -0.00590269717057        0.20900615892339
C           20.81901902157234       -0.00936860422276        0.22472621178219
C           22.04953705948810       -0.00997373835010        0.23009563363734
C           23.38740732565930       -0.01070301472149        0.22630297132719
C           24.61788012293908       -0.01095405173351        0.21180581557886
C           25.96037051158685       -0.01440242710325        0.19034319358455
C           27.18445020765850       -0.01913399542314        0.16104298160372

          :  Hamiltonian                  GFN1-xTB          :
         :: total energy            -263.506300647805 Eh    ::
         :: gradient norm              0.000505489652 Eh/a0 ::
         :: HOMO-LUMO gap              0.000015995481 eV    ::
         :: SCC energy              -267.077951203221 Eh    ::
         :: repulsion energy           3.686294065177 Eh    ::

    * Orbital Energies and Occupations

         #    Occupation            Energy/Eh            Energy/eV
      -------------------------------------------------------------
         1        2.0000           -0.8119336             -22.0938
       ...           ...                  ...                  ...
       218        2.0000           -0.4099345             -11.1549
       219        2.0000           -0.4091079             -11.1324
       220        2.0000           -0.4091022             -11.1322
       221        2.0000           -0.4088724             -11.1260
       222        2.0000           -0.4087549             -11.1228
       223        2.0000           -0.4087342             -11.1222
       224        2.0000           -0.4083890             -11.1128
       225        2.0000           -0.4057307             -11.0405
       226        2.0000           -0.3961042             -10.7785
       227        2.0000           -0.3961002             -10.7784
       228        2.0000           -0.3894707             -10.5980
       229        2.0000           -0.3807856             -10.3617
       230        1.0002           -0.3564161              -9.6986 (HOMO)
       231        0.9998           -0.3564156              -9.6986 (LUMO)
       232                         -0.3385895              -9.2135
       233                         -0.3285715              -8.9409
       234                         -0.3279874              -8.9250
       235                         -0.3279476              -8.9239
       236                         -0.3012454              -8.1973
       237                         -0.2984790              -8.1220
       238                         -0.2926349              -7.9630
       239                         -0.2732576              -7.4357
       240                         -0.2539421              -6.9101
       241                         -0.2539249              -6.9096
       ...                                ...                  ...
       462                          1.6082583              43.7629
      -------------------------------------------------------------
                  HL-Gap            0.0000006 Eh            0.0000 eV

Wiberg/Mayer (AO) data.
largest (>0.10) Wiberg bond orders for each atom

     #   Z sym  total        # sym  WBO       # sym  WBO       # sym  WBO
 ---------------------------------------------------------------------------
     1  29 Cu   2.185 --     7 N    0.505    43 N    0.505    28 N    0.502
                            21 N    0.502
     2   6 C    3.929 --     3 C    1.362    42 C    1.361    44 H    0.971
     3   6 C    3.917 --     2 C    1.362     7 N    1.229     4 C    1.171
     4   6 C    3.955 --     5 C    1.656     3 C    1.171    45 H    0.975
     5   6 C    3.958 --     4 C    1.656     6 C    1.172    46 H    0.973
     6   6 C    3.912 --     8 C    1.319     7 N    1.239     5 C    1.172
     7   7 N    3.243 --     6 C    1.239     3 C    1.229     1 Cu   0.505
     8   6 C    3.935 --    18 C    1.327     6 C    1.319     9 C    1.027
     9   6 C    3.989 --    10 C    1.399    17 C    1.386     8 C    1.027
    10   6 C    3.977 --     9 C    1.399    11 C    1.380    47 H    0.970
    11   6 C    3.917 --    10 C    1.380    13 C    1.324    12 O    1.052
    12   8 O    2.048 --    11 C    1.052    48 H    0.848
    13   6 C    3.904 --    15 C    1.341    11 C    1.324    14 O    1.020
    14   8 O    2.020 --    13 C    1.020    49 H    0.846
    15   6 C    3.905 --    17 C    1.384    13 C    1.341    16 O    1.013
    16   8 O    2.024 --    15 C    1.013    50 H    0.861
    17   6 C    3.973 --     9 C    1.386    15 C    1.384    51 H    0.969
    18   6 C    3.908 --     8 C    1.327    21 N    1.221    19 C    1.180
    19   6 C    3.954 --    20 C    1.641    18 C    1.180    52 H    0.973
    20   6 C    3.956 --    19 C    1.641    22 C    1.188    53 H    0.974
    21   7 N    3.248 --    22 C    1.257    18 C    1.221     1 Cu   0.502
    22   6 C    3.897 --    21 N    1.257    23 C    1.257    20 C    1.188
    23   6 C    3.939 --    24 C    1.259    22 C    1.257   125 C    1.190
    24   6 C    3.897 --    23 C    1.259    28 N    1.258    25 C    1.186
    25   6 C    3.956 --    26 C    1.644    24 C    1.186    54 H    0.974
    26   6 C    3.954 --    25 C    1.644    27 C    1.179    55 H    0.973
    27   6 C    3.907 --    29 C    1.330    28 N    1.220    26 C    1.179
    28   7 N    3.248 --    24 C    1.258    27 C    1.220     1 Cu   0.502
    29   6 C    3.935 --    27 C    1.330    39 C    1.319    30 C    1.023
    30   6 C    3.989 --    31 C    1.401    38 C    1.388    29 C    1.023
    31   6 C    3.978 --    30 C    1.401    32 C    1.379    56 H    0.970
    32   6 C    3.918 --    31 C    1.379    34 C    1.325    33 O    1.052
    33   8 O    2.048 --    32 C    1.052    57 H    0.848
    34   6 C    3.905 --    36 C    1.341    32 C    1.325    35 O    1.020
    35   8 O    2.020 --    34 C    1.020    58 H    0.846
    36   6 C    3.905 --    38 C    1.383    34 C    1.341    37 O    1.013
    37   8 O    2.024 --    36 C    1.013    59 H    0.861
    38   6 C    3.973 --    30 C    1.388    36 C    1.383    60 H    0.970
    39   6 C    3.912 --    29 C    1.319    43 N    1.239    40 C    1.173
    40   6 C    3.958 --    41 C    1.655    39 C    1.173    61 H    0.974
    41   6 C    3.955 --    40 C    1.655    42 C    1.171    62 H    0.976
    42   6 C    3.917 --     2 C    1.361    43 N    1.230    41 C    1.171
    43   7 N    3.243 --    39 C    1.239    42 C    1.230     1 Cu   0.505
    44   1 H    1.002 --     2 C    0.971
    45   1 H    0.998 --     4 C    0.975
    46   1 H    1.005 --     5 C    0.973
    47   1 H    1.000 --    10 C    0.970
    48   1 H    0.878 --    12 O    0.848
    49   1 H    0.876 --    14 O    0.846
    50   1 H    0.881 --    16 O    0.861
    51   1 H    1.001 --    17 C    0.969
    52   1 H    1.006 --    19 C    0.973
    53   1 H    1.002 --    20 C    0.974
    54   1 H    1.002 --    25 C    0.974
    55   1 H    1.005 --    26 C    0.973
    56   1 H    1.000 --    31 C    0.970
    57   1 H    0.878 --    33 O    0.848
    58   1 H    0.876 --    35 O    0.846
    59   1 H    0.881 --    37 O    0.861
    60   1 H    1.001 --    38 C    0.970
    61   1 H    1.006 --    40 C    0.974
    62   1 H    0.998 --    41 C    0.976
    63  29 Cu   2.185 --    69 N    0.505   105 N    0.505    90 N    0.502
                            83 N    0.502
    64   6 C    3.929 --    65 C    1.362   104 C    1.361   106 H    0.971
    65   6 C    3.917 --    64 C    1.362    69 N    1.229    66 C    1.170
    66   6 C    3.955 --    67 C    1.656    65 C    1.170   107 H    0.975
    67   6 C    3.958 --    66 C    1.656    68 C    1.172   108 H    0.973
    68   6 C    3.912 --    70 C    1.320    69 N    1.239    67 C    1.172
    69   7 N    3.244 --    68 C    1.239    65 C    1.229    63 Cu   0.505
    70   6 C    3.935 --    80 C    1.327    68 C    1.320    71 C    1.026
    71   6 C    3.989 --    72 C    1.399    79 C    1.387    70 C    1.026
    72   6 C    3.977 --    71 C    1.399    73 C    1.380   109 H    0.970
    73   6 C    3.917 --    72 C    1.380    75 C    1.324    74 O    1.052
    74   8 O    2.048 --    73 C    1.052   110 H    0.848
    75   6 C    3.904 --    77 C    1.341    73 C    1.324    76 O    1.020
    76   8 O    2.020 --    75 C    1.020   111 H    0.846
    77   6 C    3.905 --    79 C    1.384    75 C    1.341    78 O    1.013
    78   8 O    2.025 --    77 C    1.013   112 H    0.861
    79   6 C    3.973 --    71 C    1.387    77 C    1.384   113 H    0.969
    80   6 C    3.908 --    70 C    1.327    83 N    1.221    81 C    1.180
    81   6 C    3.954 --    82 C    1.641    80 C    1.180   114 H    0.973
    82   6 C    3.956 --    81 C    1.641    84 C    1.188   115 H    0.974
    83   7 N    3.248 --    84 C    1.257    80 C    1.221    63 Cu   0.502
    84   6 C    3.897 --    83 N    1.257    85 C    1.257    82 C    1.188
    85   6 C    3.939 --    86 C    1.258    84 C    1.257   132 C    1.190
    86   6 C    3.897 --    85 C    1.258    90 N    1.258    87 C    1.186
    87   6 C    3.956 --    88 C    1.644    86 C    1.186   116 H    0.974
    88   6 C    3.954 --    87 C    1.644    89 C    1.179   117 H    0.973
    89   6 C    3.907 --    91 C    1.330    90 N    1.220    88 C    1.179
    90   7 N    3.248 --    86 C    1.258    89 C    1.220    63 Cu   0.502
    91   6 C    3.935 --    89 C    1.330   101 C    1.319    92 C    1.023
    92   6 C    3.989 --    93 C    1.400   100 C    1.388    91 C    1.023
    93   6 C    3.977 --    92 C    1.400    94 C    1.379   118 H    0.970
    94   6 C    3.918 --    93 C    1.379    96 C    1.325    95 O    1.052
    95   8 O    2.048 --    94 C    1.052   119 H    0.848
    96   6 C    3.905 --    98 C    1.341    94 C    1.325    97 O    1.020
    97   8 O    2.020 --    96 C    1.020   120 H    0.846
    98   6 C    3.905 --   100 C    1.383    96 C    1.341    99 O    1.013
    99   8 O    2.024 --    98 C    1.013   121 H    0.861
   100   6 C    3.973 --    92 C    1.388    98 C    1.383   122 H    0.970
   101   6 C    3.912 --    91 C    1.319   105 N    1.239   102 C    1.173
   102   6 C    3.958 --   103 C    1.654   101 C    1.173   123 H    0.974
   103   6 C    3.955 --   102 C    1.654   104 C    1.171   124 H    0.976
   104   6 C    3.917 --    64 C    1.361   105 N    1.230   103 C    1.171
   105   7 N    3.243 --   101 C    1.239   104 C    1.230    63 Cu   0.505
   106   1 H    1.002 --    64 C    0.971
   107   1 H    0.998 --    66 C    0.975
   108   1 H    1.005 --    67 C    0.973
   109   1 H    1.000 --    72 C    0.970
   110   1 H    0.878 --    74 O    0.848
   111   1 H    0.876 --    76 O    0.846
   112   1 H    0.881 --    78 O    0.861
   113   1 H    1.001 --    79 C    0.969
   114   1 H    1.006 --    81 C    0.973
   115   1 H    1.002 --    82 C    0.974
   116   1 H    1.002 --    87 C    0.974
   117   1 H    1.005 --    88 C    0.973
   118   1 H    1.000 --    93 C    0.970
   119   1 H    0.878 --    95 O    0.848
   120   1 H    0.876 --    97 O    0.846
   121   1 H    0.881 --    99 O    0.861
   122   1 H    1.001 --   100 C    0.970
   123   1 H    1.006 --   102 C    0.974
   124   1 H    0.998 --   103 C    0.976
   125   6 C    3.877 --   126 C    2.441    23 C    1.190   128 C    0.187
   126   6 C    3.936 --   125 C    2.441   127 C    1.343
   127   6 C    3.894 --   128 C    2.337   126 C    1.343   130 C    0.183
   128   6 C    3.926 --   127 C    2.337   129 C    1.368   125 C    0.187
   129   6 C    3.926 --   130 C    2.337   128 C    1.368   132 C    0.187
   130   6 C    3.894 --   129 C    2.337   131 C    1.343   127 C    0.183
   131   6 C    3.936 --   132 C    2.441   130 C    1.343
   132   6 C    3.877 --   131 C    2.441    85 C    1.190   129 C    0.187
 ---------------------------------------------------------------------------

           -------------------------------------------------
          | TOTAL ENERGY             -263.506300647805 Eh   |
          | GRADIENT NORM               0.000505489652 Eh/α |
          | HOMO-LUMO GAP               0.000015995481 eV   |
           -------------------------------------------------

 * finished run on 2022/07/30 at 09:52:39.237
