   * xtb version 6.5.1 (b24c23e) compiled by 'conda@728c89f4b128' on 2022-07-12
          program call               : xtb Fe_Ph_C6_3.xyz --gfn 1 --opt -T 48

   ID    Z sym.   atoms
    1   26 Fe     1, 57, 125
    2    6 C      2-6, 8-11, 13-29, 32-37, 58-62, 64-67, 69-85, 88-93,
                  113-124, 126-130, 132-135, 137-153, 156-161
    3    7 N      7, 12, 30, 31, 63, 68, 86, 87, 131, 136, 154, 155
    4    1 H      38-56, 94-112, 162-179

          :  Hamiltonian                  GFN1-xTB          :
 * total energy  :  -304.8531792 Eh     change        0.3207219E-08 Eh
 * total energy  :  -304.9497438 Eh     change       -0.9656457E-01 Eh
 * total energy  :  -305.0084871 Eh     change       -0.5874332E-01 Eh
 * total energy  :  -305.0262945 Eh     change       -0.1780741E-01 Eh
 * total energy  :  -305.0369152 Eh     change       -0.1062063E-01 Eh
 * total energy  :  -305.0454958 Eh     change       -0.8580614E-02 Eh
 * total energy  :  -305.0532908 Eh     change       -0.7795031E-02 Eh
 * total energy  :  -305.0641633 Eh     change       -0.1087246E-01 Eh
 * total energy  :  -305.0787824 Eh     change       -0.1461913E-01 Eh
 * total energy  :  -305.0997798 Eh     change       -0.2099737E-01 Eh
 * total energy  :  -305.4735621 Eh     change       -0.2709942E-04 Eh
 * total energy  :  -305.4735943 Eh     change       -0.3218232E-04 Eh
 * total energy  :  -305.4736249 Eh     change       -0.3062105E-04 Eh
 * total energy  :  -305.4736509 Eh     change       -0.2603890E-04 Eh
 * total energy  :  -305.4736755 Eh     change       -0.2456484E-04 Eh
 * total energy  :  -305.4737037 Eh     change       -0.2820532E-04 Eh
 * total energy  :  -305.4737340 Eh     change       -0.3030428E-04 Eh
 * total energy  :  -305.4737612 Eh     change       -0.2716600E-04 Eh
 * total energy  :  -305.4737660 Eh     change       -0.4821910E-05 Eh
   *** GEOMETRY OPTIMIZATION CONVERGED AFTER 94 ITERATIONS ***

 final structure:
================
179
 xtb: 6.5.1 (b24c23e)
Fe          26.31629200839592       -0.01626162006875        0.01006465527620
C           22.92466694388103       -0.04231476154372        0.07308933234824
C           23.57345331796560       -1.24841003202395       -0.09159372630814
C           22.89099864586814       -2.50037910358835       -0.22072057248724
C           23.84647583249296       -3.45576933736574       -0.30136109820085
C           25.11190182017596       -2.78429145843542       -0.22687116749046
N           24.93114107423091       -1.43294929767470       -0.10761472538256
C           26.33569129398296       -3.44416437593131       -0.19985083808844
C           27.54872191558758       -2.78224444960540       -0.08398130792963
C           28.81845157719669       -3.44605740155586       -0.06372617791198
C           29.76402452908584       -2.47900979675336        0.00569343151258
N           27.72205506076931       -1.41885182308441       -0.03232416263193
C           29.07056582470156       -1.22892514122577        0.01400444954026
C           29.72970440674236        0.00680072202078        0.00637397857326
C           29.05387591101520        1.23327343267743       -0.02299664660129
C           29.72811269855107        2.49197846219111       -0.08894995015529
C           28.76858827796710        3.44749000776387       -0.05813067177251
C           27.51136899954679        2.76739627577608        0.04199724981999
C           26.29086918565664        3.41553061559388        0.15962755195856
C           26.27597103117727        4.89692211124711        0.22491190064077
C           25.63874399765826        5.64142679732328       -0.76840874376156
C           25.62504181688128        7.02665286515548       -0.70496197953420
C           26.24051703658169        7.68332070779834        0.35206004462733
C           26.87414957470793        6.94904886751661        1.34530175921518
C           26.89551392776778        5.56386307613264        1.28242034892332
C           25.07840546687923        2.73725378606366        0.22916659780188
C           23.81108579226011        3.38489721955160        0.40811464249737
C           22.86838883459789        2.41367109349070        0.38375339315006
C           23.56150243334246        1.17473130392534        0.19878143634659
N           24.91423613378414        1.38249901278063        0.12869879456171
N           27.70345271236350        1.40557033350398        0.03177052133343
C           26.34156439290129       -4.92581401519332       -0.28258997383306
C           25.91724964170561       -5.57090379694075       -1.44431151951501
C           25.92582716654413       -6.95583226308456       -1.51826667479655
C           26.35119825889956       -7.71045461475844       -0.43348881467716
C           26.77167778213305       -7.07483871424646        0.72678020663802
C           26.77029188434819       -5.69010144523809        0.80287100038635
H           21.84092290639136       -0.05156298958049        0.10598385106474
H           21.81860098989999       -2.61367029392177       -0.23592294373644
H           23.71919532727242       -4.52250929193622       -0.38930294887792
H           28.95809073710969       -4.51372921255679       -0.10932762550915
H           30.83635755521763       -2.58603461033176        0.03568484922785
H           30.79735276438928        2.61252319054849       -0.15590388606648
H           28.89039792042180        4.51735157822677       -0.10400179447621
H           25.16692401520823        5.12972866454848       -1.59982130256846
H           25.13138521816793        7.59594135747653       -1.48473065066356
H           26.22597019187993        8.76617988331300        0.40192915074045
H           27.35368160145503        7.45727763272147        2.17450910966486
H           27.38039227846630        4.99078858455461        2.06484486032519
H           23.67439867749720        4.44565761703445        0.54208504532649
H           21.79855971673093        2.50731400794717        0.48263605138666
H           25.59400509185260       -4.98190914099331       -2.29534607243900
H           25.59849161296128       -7.44798124990148       -2.42739211329874
H           26.35465165845519       -8.79297141746123       -0.49207085600976
H           27.10245868897749       -7.65995738230190        1.57769048844007
H           27.08924006500008       -5.19417414722738        1.71282594689741
Fe          58.30349763381075        0.04895279685005        0.02980683595588
C           61.69518432189248        0.06382780720129        0.09895791601364
C           61.04976163618413        1.27742144640241       -0.01695679349902
C           61.73532770766405        2.53189760180818       -0.09543766781459
C           60.78215584188082        3.49181173865733       -0.14309985689203
C           59.51508574516954        2.82089421512444       -0.09668935699260
N           59.69257284952109        1.46549525956608       -0.03003030482319
C           58.29313376370903        3.48221820954910       -0.04128895683889
C           57.07859160210359        2.81960197745436        0.05299818495442
C           55.81104634818873        3.48564099973274        0.10778822129284
C           54.86279175052694        2.51926137127775        0.14025357477953
N           56.90128872621249        1.45580993947874        0.04794387764280
C           55.55234837965224        1.26795076881662        0.09153410485433
C           54.88957652789740        0.03565354418555        0.03046725973416
C           55.56209548908650       -1.19028630065540       -0.05172796479142
C           54.88404031768847       -2.44321555934944       -0.16896219427501
C           55.84101915732437       -3.40159878674404       -0.18548872725628
C           57.10065523237441       -2.72981086085374       -0.06240644917875
C           58.31998607064180       -3.38560828577932        0.01867645297654
C           58.33179017609200       -4.86849932749251        0.01403541104131
C           58.96148615217114       -5.56674130126161       -1.01693304693141
C           58.97276694385806       -6.95345859370846       -1.01838035980465
C           58.36253515393563       -7.65776650516237        0.01064033894859
C           57.73653763035682       -6.96968042008844        1.04109756610115
C           57.71752724531751       -5.58305066554542        1.04312135244075
C           59.53440719218441       -2.71449712411124        0.11736597948940
C           60.79989500860062       -3.37326609212502        0.26606540119459
C           61.74478267772099       -2.40424874467980        0.29268590071821
C           61.05501574680197       -1.15605285617023        0.16669465572305
N           59.70195751898188       -1.35694595566500        0.08280932900596
N           56.91228344227997       -1.36835853062291       -0.01076725603873
C           58.29080270414460        4.96605133307805       -0.06541056728499
C           58.70919387396879        5.65557888707476       -1.20347510598236
C           58.70220397732086        7.04239968955639       -1.22292334311700
C           58.28441952038321        7.75439410164927       -0.10681860941512
C           57.87072687758476        7.07427116107937        1.03049192448191
C           57.87061215939403        5.68763663278830        1.05216359102188
H           62.77880959374527        0.06888441436699        0.13632656264885
H           62.80801707468640        2.64323656103455       -0.10308927093780
H           60.91180047225231        4.56083572406140       -0.19069465829355
H           55.67451636762513        4.55468262005277        0.10919009331750
H           53.79098129862307        2.62804575462436        0.18073111687338
H           53.81408742656880       -2.55808001563786       -0.23446324034138
H           55.71586122320149       -4.46811053511545       -0.27726197511868
H           59.42945159535965       -5.01753096474399       -1.82630510203938
H           59.46052753987782       -7.48655418775274       -1.82691429879652
H           58.37535394218944       -8.74179273581114        0.00983590723346
H           57.26128054724260       -7.51526509230530        1.84874475822468
H           57.23876874954369       -5.04625626564825        1.85450461908497
H           60.93381205233895       -4.43972581958719        0.34715290274176
H           62.81413070384087       -2.50520921566985        0.38956201742047
H           59.02585869548373        5.10006191647403       -2.07912917504665
H           59.02327437743045        7.56942698315460       -2.11452710144420
H           58.28141643917961        8.83836968110318       -0.12311451833166
H           57.54701185916436        7.62591063552441        1.90611398387446
H           57.55753506207381        5.15665113865997        1.94417866799072
C           34.92611505201748        0.04035678743300        0.07404162977159
C           33.69535619792320        0.03459469714167        0.05774111658002
C           32.35534299147373        0.02555426342540        0.03855896508210
C           31.12936610990784        0.01677893969579        0.01909754374955
C           36.26600297083513        0.04350196122216        0.08538615837052
C           37.49242710444516        0.04644743441233        0.09292125798628
C           50.92347217049918        0.01688382626375        0.05712594510974
C           49.69260032127963        0.01052249346251        0.06642422240673
C           48.35259019237930        0.00903930479462        0.07266346644332
C           47.12612786593827        0.00813326088279        0.07770996823271
C           52.26370089814301        0.02042682369837        0.04873478875534
C           53.48977018839702        0.02914999978431        0.03668506979949
Fe          42.30919675555018        0.02818811941991        0.06558847082946
C           38.89098979484852        0.04284499975506        0.08963129985206
C           39.55712562454115       -1.18609209045396        0.19117279139672
C           38.87585968589655       -2.43420964787880        0.33069793374312
C           39.82613997212326       -3.39982585963269        0.29274381632234
C           41.08260780538308       -2.73435828140666        0.12344193872425
N           40.90347415415228       -1.37273678697989        0.09722291501935
C           42.29362109409336       -3.39673406771538       -0.03186647380229
C           43.51193374555353       -2.73835343297953       -0.13818335152251
C           44.76455782521852       -3.40467518302597       -0.33104946945515
C           45.72434663866891       -2.44844329428738       -0.29316876174155
N           43.70329084212558       -1.38254682572108       -0.02598548184118
C           45.05242815305779       -1.20407970125513       -0.08983889341295
C           45.72749224183377        0.01283469258369        0.07687340042762
C           45.06185035229542        1.23645631999800        0.23197999202797
C           45.74358954750142        2.47780145142729        0.42097082549391
C           44.79318400189445        3.44403776946378        0.42651195307660
C           43.53608299110929        2.78599943177061        0.23444477004411
C           42.32448629925102        3.45422499806921        0.11236424006042
C           42.33443426052752        4.93707555417441        0.12257247231443
C           41.69765954662920        5.64200284506289        1.14439387873741
C           41.71432586284664        7.02866430099772        1.15312520442289
C           42.35759706020432        7.72566973642652        0.13943610497728
C           42.98934319439790        7.03053600320724       -0.88277120874184
C           42.98302105049609        5.64387100045927       -0.89064663357573
C           41.10561268228806        2.80097505570558       -0.01634888513529
C           39.85227664487572        3.47480884333153       -0.17566102235569
C           38.89260890229867        2.51770198335639       -0.17511826247233
C           39.56530069218756        1.26590252234435       -0.02749422307318
N           40.91462614953094        1.44163719617504        0.03893512135893
N           43.71514556777603        1.42669464778620        0.15067748312438
C           42.28340727235931       -4.87863835596074       -0.08402962100874
C           41.62732021579455       -5.54222957592725       -1.12139730968267
C           41.62034551101559       -6.92799465560974       -1.17166698091557
C           42.25905976496037       -7.66554743789011       -0.18409069842880
C           42.90984104478111       -7.01180839712100        0.85335794893366
C           42.92702229732383       -5.62600864972491        0.90277237423075
H           37.80894055268453       -2.54254222932575        0.44064492774771
H           39.69801273349994       -4.46666478257206        0.37590466143582
H           44.88409034591327       -4.46556755897066       -0.47841596908417
H           46.79190679459742       -2.56053942571373       -0.39278652117305
H           46.81089673980609        2.58160038260114        0.53157748338657
H           44.92150373925129        4.50656373882687        0.55324188316816
H           41.20363303058758        5.09800406931381        1.94163930164342
H           41.22289747056728        7.56728394638409        1.95568953319353
H           42.36681127378954        8.80968759971091        0.14616181372165
H           43.49005376137858        7.57056284211014       -1.67862730262358
H           43.46882112526644        5.10124614646447       -1.69386920688110
H           39.73222435727897        4.54103506071718       -0.27691133306264
H           37.82467114325824        2.63375047695380       -0.26588151397941
H           41.13608191080684       -4.96632284554290       -1.89769400373270
H           41.11362558288618       -7.43404777885187       -1.98584252803873
H           42.24939218289642       -8.74888996942688       -0.22281654979870
H           43.40673566731007       -7.58371991887120        1.62907958045008
H           43.42677893068957       -5.11608096478248        1.71874964350959

          :  Hamiltonian                  GFN1-xTB          :
         :: total energy            -305.473765976450 Eh    ::
         :: gradient norm              0.000507144704 Eh/a0 ::
         :: HOMO-LUMO gap              0.050640688960 eV    ::
         :: SCC energy              -310.700124051164 Eh    ::
         :: repulsion energy           5.388291993628 Eh    ::

    * Orbital Energies and Occupations

         #    Occupation            Energy/Eh            Energy/eV
      -------------------------------------------------------------
         1        2.0000           -0.7723906             -21.0178
       ...           ...                  ...                  ...
       274        2.0000           -0.3968614             -10.7991
       275        2.0000           -0.3968541             -10.7989
       276        1.9988           -0.3903908             -10.6231
       277        1.9923           -0.3886005             -10.5744
       278        1.9917           -0.3885342             -10.5726
       279        1.9914           -0.3884938             -10.5715
       280        1.9698           -0.3872960             -10.5389
       281        1.9613           -0.3870556             -10.5323
       282        1.9531           -0.3868703             -10.5273
       283        1.9525           -0.3868569             -10.5269
       284        1.9505           -0.3868165             -10.5258
       285        1.9504           -0.3868143             -10.5258
       286        1.2405           -0.3837925             -10.4435 (HOMO)
       287        0.3744           -0.3819315             -10.3929 (LUMO)
       288        0.3377           -0.3818123             -10.3896
       289        0.3356           -0.3818053             -10.3895
       290                         -0.3458400              -9.4108
       291                         -0.3348717              -9.1123
       292                         -0.3305606              -8.9950
       293                         -0.3278836              -8.9222
       294                         -0.3273736              -8.9083
       295                         -0.3273676              -8.9081
       296                         -0.3082969              -8.3892
       297                         -0.3028126              -8.2400
       ...                                ...                  ...
       619                          1.5703537              42.7315
      -------------------------------------------------------------
                  HL-Gap            0.0018610 Eh            0.0506 eV

Wiberg/Mayer (AO) data.
largest (>0.10) Wiberg bond orders for each atom

     #   Z sym  total        # sym  WBO       # sym  WBO       # sym  WBO
 ---------------------------------------------------------------------------
     1  26 Fe   3.085 --     7 N    0.663    30 N    0.662    31 N    0.655
                            12 N    0.655
     2   6 C    3.917 --    29 C    1.363     3 C    1.363    38 H    0.970
     3   6 C    3.925 --     2 C    1.363     7 N    1.210     4 C    1.173
     4   6 C    3.959 --     5 C    1.649     3 C    1.173    39 H    0.975
     5   6 C    3.962 --     4 C    1.649     6 C    1.175    40 H    0.973
     6   6 C    3.920 --     8 C    1.313     7 N    1.226     5 C    1.175
     7   7 N    3.378 --     6 C    1.226     3 C    1.210     1 Fe   0.663
     8   6 C    3.920 --     9 C    1.338     6 C    1.313    32 C    1.022
     9   6 C    3.918 --     8 C    1.338    12 N    1.198    10 C    1.179
    10   6 C    3.957 --    11 C    1.639     9 C    1.179    41 H    0.973
    11   6 C    3.960 --    10 C    1.639    13 C    1.187    42 H    0.973
    12   7 N    3.376 --    13 C    1.249     9 C    1.198     1 Fe   0.655
    13   6 C    3.903 --    12 N    1.249    14 C    1.248    11 C    1.187
    14   6 C    3.917 --    13 C    1.248    15 C    1.247   116 C    1.208
    15   6 C    3.903 --    31 N    1.249    14 C    1.247    16 C    1.188
    16   6 C    3.960 --    17 C    1.638    15 C    1.188    43 H    0.973
    17   6 C    3.957 --    16 C    1.638    18 C    1.179    44 H    0.973
    18   6 C    3.918 --    19 C    1.337    31 N    1.198    17 C    1.179
    19   6 C    3.921 --    18 C    1.337    26 C    1.311    20 C    1.026
    20   6 C    3.988 --    25 C    1.395    21 C    1.395    19 C    1.026
                            23 C    0.108
    21   6 C    3.987 --    22 C    1.447    20 C    1.395    45 H    0.973
                            24 C    0.110
    22   6 C    3.995 --    21 C    1.447    23 C    1.438    46 H    0.973
                            25 C    0.110
    23   6 C    3.990 --    24 C    1.438    22 C    1.438    47 H    0.974
                            20 C    0.108
    24   6 C    3.995 --    25 C    1.447    23 C    1.438    48 H    0.973
                            21 C    0.110
    25   6 C    3.988 --    24 C    1.447    20 C    1.395    49 H    0.973
                            22 C    0.110
    26   6 C    3.920 --    19 C    1.311    30 N    1.227    27 C    1.176
    27   6 C    3.962 --    28 C    1.648    26 C    1.176    50 H    0.973
    28   6 C    3.959 --    27 C    1.648    29 C    1.174    51 H    0.975
    29   6 C    3.925 --     2 C    1.363    30 N    1.209    28 C    1.174
    30   7 N    3.378 --    26 C    1.227    29 C    1.209     1 Fe   0.662
    31   7 N    3.376 --    15 C    1.249    18 C    1.198     1 Fe   0.655
    32   6 C    3.988 --    33 C    1.397    37 C    1.396     8 C    1.022
                            35 C    0.108
    33   6 C    3.988 --    34 C    1.446    32 C    1.397    52 H    0.973
                            36 C    0.110
    34   6 C    3.995 --    33 C    1.446    35 C    1.438    53 H    0.973
                            37 C    0.110
    35   6 C    3.991 --    34 C    1.438    36 C    1.438    54 H    0.974
                            32 C    0.108
    36   6 C    3.995 --    37 C    1.447    35 C    1.438    55 H    0.973
                            33 C    0.110
    37   6 C    3.988 --    36 C    1.447    32 C    1.396    56 H    0.973
                            34 C    0.110
    38   1 H    1.001 --     2 C    0.970
    39   1 H    0.998 --     4 C    0.975
    40   1 H    1.005 --     5 C    0.973
    41   1 H    1.005 --    10 C    0.973
    42   1 H    1.002 --    11 C    0.973
    43   1 H    1.002 --    16 C    0.973
    44   1 H    1.005 --    17 C    0.973
    45   1 H    1.004 --    21 C    0.973
    46   1 H    1.002 --    22 C    0.973
    47   1 H    1.003 --    23 C    0.974
    48   1 H    1.003 --    24 C    0.973
    49   1 H    1.004 --    25 C    0.973
    50   1 H    1.005 --    27 C    0.973
    51   1 H    0.998 --    28 C    0.975
    52   1 H    1.004 --    33 C    0.973
    53   1 H    1.002 --    34 C    0.973
    54   1 H    1.003 --    35 C    0.974
    55   1 H    1.003 --    36 C    0.973
    56   1 H    1.004 --    37 C    0.973
    57  26 Fe   3.086 --    63 N    0.663    86 N    0.663    87 N    0.656
                            68 N    0.655
    58   6 C    3.917 --    85 C    1.363    59 C    1.363    94 H    0.970
    59   6 C    3.925 --    58 C    1.363    63 N    1.210    60 C    1.173
    60   6 C    3.959 --    61 C    1.649    59 C    1.173    95 H    0.975
    61   6 C    3.962 --    60 C    1.649    62 C    1.175    96 H    0.973
    62   6 C    3.920 --    64 C    1.313    63 N    1.226    61 C    1.175
    63   7 N    3.378 --    62 C    1.226    59 C    1.210    57 Fe   0.663
    64   6 C    3.920 --    65 C    1.338    62 C    1.313    88 C    1.022
    65   6 C    3.918 --    64 C    1.338    68 N    1.199    66 C    1.179
    66   6 C    3.957 --    67 C    1.639    65 C    1.179    97 H    0.973
    67   6 C    3.960 --    66 C    1.639    69 C    1.187    98 H    0.973
    68   7 N    3.376 --    69 C    1.249    65 C    1.199    57 Fe   0.655
    69   6 C    3.903 --    68 N    1.249    70 C    1.248    67 C    1.187
    70   6 C    3.917 --    69 C    1.248    71 C    1.247   124 C    1.208
    71   6 C    3.903 --    87 N    1.249    70 C    1.247    72 C    1.188
    72   6 C    3.960 --    73 C    1.638    71 C    1.188    99 H    0.973
    73   6 C    3.957 --    72 C    1.638    74 C    1.179   100 H    0.973
    74   6 C    3.918 --    75 C    1.337    87 N    1.198    73 C    1.179
    75   6 C    3.921 --    74 C    1.337    82 C    1.311    76 C    1.026
    76   6 C    3.988 --    81 C    1.395    77 C    1.395    75 C    1.026
                            79 C    0.108
    77   6 C    3.987 --    78 C    1.447    76 C    1.395   101 H    0.973
                            80 C    0.110
    78   6 C    3.995 --    77 C    1.447    79 C    1.438   102 H    0.973
                            81 C    0.110
    79   6 C    3.990 --    80 C    1.438    78 C    1.438   103 H    0.974
                            76 C    0.108
    80   6 C    3.995 --    81 C    1.447    79 C    1.438   104 H    0.973
                            77 C    0.110
    81   6 C    3.988 --    80 C    1.447    76 C    1.395   105 H    0.973
                            78 C    0.110
    82   6 C    3.920 --    75 C    1.311    86 N    1.227    83 C    1.176
    83   6 C    3.962 --    84 C    1.649    82 C    1.176   106 H    0.973
    84   6 C    3.959 --    83 C    1.649    85 C    1.173   107 H    0.975
    85   6 C    3.925 --    58 C    1.363    86 N    1.209    84 C    1.173
    86   7 N    3.378 --    82 C    1.227    85 C    1.209    57 Fe   0.663
    87   7 N    3.376 --    71 C    1.249    74 C    1.198    57 Fe   0.656
    88   6 C    3.988 --    89 C    1.397    93 C    1.396    64 C    1.022
                            91 C    0.108
    89   6 C    3.988 --    90 C    1.446    88 C    1.397   108 H    0.973
                            92 C    0.110
    90   6 C    3.995 --    89 C    1.446    91 C    1.438   109 H    0.973
                            93 C    0.110
    91   6 C    3.991 --    90 C    1.438    92 C    1.438   110 H    0.974
                            88 C    0.108
    92   6 C    3.995 --    93 C    1.447    91 C    1.438   111 H    0.973
                            89 C    0.110
    93   6 C    3.988 --    92 C    1.447    88 C    1.396   112 H    0.973
                            90 C    0.110
    94   1 H    1.001 --    58 C    0.970
    95   1 H    0.998 --    60 C    0.975
    96   1 H    1.005 --    61 C    0.973
    97   1 H    1.005 --    66 C    0.973
    98   1 H    1.002 --    67 C    0.973
    99   1 H    1.002 --    72 C    0.973
   100   1 H    1.005 --    73 C    0.973
   101   1 H    1.004 --    77 C    0.973
   102   1 H    1.002 --    78 C    0.973
   103   1 H    1.003 --    79 C    0.974
   104   1 H    1.003 --    80 C    0.973
   105   1 H    1.004 --    81 C    0.973
   106   1 H    1.005 --    83 C    0.973
   107   1 H    0.998 --    84 C    0.975
   108   1 H    1.004 --    89 C    0.973
   109   1 H    1.002 --    90 C    0.973
   110   1 H    1.003 --    91 C    0.974
   111   1 H    1.003 --    92 C    0.973
   112   1 H    1.004 --    93 C    0.973
   113   6 C    3.914 --   114 C    2.332   117 C    1.359   116 C    0.186
   114   6 C    3.912 --   113 C    2.332   115 C    1.358   118 C    0.185
   115   6 C    3.922 --   116 C    2.416   114 C    1.358
   116   6 C    3.875 --   115 C    2.416    14 C    1.208   113 C    0.186
   117   6 C    3.918 --   118 C    2.412   113 C    1.359
   118   6 C    3.877 --   117 C    2.412   126 C    1.214   114 C    0.185
   119   6 C    3.912 --   120 C    2.332   123 C    1.358   122 C    0.185
   120   6 C    3.914 --   119 C    2.332   121 C    1.359   124 C    0.186
   121   6 C    3.918 --   122 C    2.412   120 C    1.359
   122   6 C    3.877 --   121 C    2.412   138 C    1.214   119 C    0.185
   123   6 C    3.922 --   124 C    2.416   119 C    1.358
   124   6 C    3.875 --   123 C    2.416    70 C    1.208   120 C    0.186
   125  26 Fe   3.042 --   155 N    0.646   131 N    0.646   136 N    0.645
                           154 N    0.645
   126   6 C    3.902 --   127 C    1.244   153 C    1.243   118 C    1.214
   127   6 C    3.904 --   131 N    1.250   126 C    1.244   128 C    1.191
   128   6 C    3.959 --   129 C    1.633   127 C    1.191   162 H    0.973
   129   6 C    3.958 --   128 C    1.633   130 C    1.184   163 H    0.973
   130   6 C    3.915 --   132 C    1.323   131 N    1.205   129 C    1.184
   131   7 N    3.365 --   127 C    1.250   130 C    1.205   125 Fe   0.646
   132   6 C    3.912 --   133 C    1.324   130 C    1.323   156 C    1.026
   133   6 C    3.915 --   132 C    1.324   136 N    1.204   134 C    1.184
   134   6 C    3.958 --   135 C    1.633   133 C    1.184   164 H    0.973
   135   6 C    3.959 --   134 C    1.633   137 C    1.191   165 H    0.973
   136   7 N    3.365 --   137 C    1.251   133 C    1.204   125 Fe   0.645
   137   6 C    3.905 --   136 N    1.251   138 C    1.243   135 C    1.191
   138   6 C    3.902 --   139 C    1.244   137 C    1.243   122 C    1.214
   139   6 C    3.904 --   155 N    1.250   138 C    1.244   140 C    1.191
   140   6 C    3.959 --   141 C    1.633   139 C    1.191   166 H    0.973
   141   6 C    3.958 --   140 C    1.633   142 C    1.184   167 H    0.973
   142   6 C    3.915 --   143 C    1.323   155 N    1.205   141 C    1.184
   143   6 C    3.912 --   150 C    1.324   142 C    1.323   144 C    1.026
   144   6 C    3.988 --   145 C    1.395   149 C    1.395   143 C    1.026
                           147 C    0.108
   145   6 C    3.987 --   146 C    1.447   144 C    1.395   168 H    0.973
                           148 C    0.110
   146   6 C    3.995 --   145 C    1.447   147 C    1.438   169 H    0.973
                           149 C    0.110
   147   6 C    3.990 --   146 C    1.438   148 C    1.438   170 H    0.974
                           144 C    0.108
   148   6 C    3.995 --   149 C    1.447   147 C    1.438   171 H    0.973
                           145 C    0.110
   149   6 C    3.987 --   148 C    1.447   144 C    1.395   172 H    0.973
                           146 C    0.110
   150   6 C    3.915 --   143 C    1.324   154 N    1.204   151 C    1.184
   151   6 C    3.958 --   152 C    1.633   150 C    1.184   173 H    0.973
   152   6 C    3.959 --   151 C    1.633   153 C    1.191   174 H    0.973
   153   6 C    3.905 --   154 N    1.251   126 C    1.243   152 C    1.191
   154   7 N    3.365 --   153 C    1.251   150 C    1.204   125 Fe   0.645
   155   7 N    3.365 --   139 C    1.250   142 C    1.205   125 Fe   0.646
   156   6 C    3.988 --   161 C    1.395   157 C    1.395   132 C    1.026
                           159 C    0.108
   157   6 C    3.987 --   158 C    1.447   156 C    1.395   175 H    0.973
                           160 C    0.110
   158   6 C    3.995 --   157 C    1.447   159 C    1.438   176 H    0.973
                           161 C    0.110
   159   6 C    3.990 --   160 C    1.438   158 C    1.438   177 H    0.974
                           156 C    0.108
   160   6 C    3.995 --   161 C    1.447   159 C    1.438   178 H    0.973
                           157 C    0.110
   161   6 C    3.987 --   160 C    1.447   156 C    1.395   179 H    0.973
                           158 C    0.110
   162   1 H    1.002 --   128 C    0.973
   163   1 H    1.004 --   129 C    0.973
   164   1 H    1.004 --   134 C    0.973
   165   1 H    1.002 --   135 C    0.973
   166   1 H    1.002 --   140 C    0.973
   167   1 H    1.004 --   141 C    0.973
   168   1 H    1.004 --   145 C    0.973
   169   1 H    1.002 --   146 C    0.973
   170   1 H    1.003 --   147 C    0.974
   171   1 H    1.002 --   148 C    0.973
   172   1 H    1.004 --   149 C    0.973
   173   1 H    1.004 --   151 C    0.973
   174   1 H    1.001 --   152 C    0.973
   175   1 H    1.004 --   157 C    0.973
   176   1 H    1.002 --   158 C    0.973
   177   1 H    1.003 --   159 C    0.974
   178   1 H    1.002 --   160 C    0.973
   179   1 H    1.004 --   161 C    0.973
 ---------------------------------------------------------------------------

           -------------------------------------------------
          | TOTAL ENERGY             -305.473765976450 Eh   |
          | GRADIENT NORM               0.000507144704 Eh/α |
          | HOMO-LUMO GAP               0.050640688960 eV   |
           -------------------------------------------------

 * finished run on 2022/07/29 at 20:11:34.924
