   * xtb version 6.5.1 (b24c23e) compiled by 'conda@728c89f4b128' on 2022-07-12
          program call               : xtb Ni_NMA_C2_2.xyz --gfn 1 --opt -T 48

   ID    Z sym.   atoms
    1   28 Ni     1, 67
    2    6 C      2-6, 8-12, 14-19, 21-26, 28-32, 34-40, 68-72, 74-78, 80-85,
                  87-92, 94-98, 100-106, 133, 134
    3    7 N      7, 13, 20, 27, 33, 41, 73, 79, 86, 93, 99, 107
    4    1 H      42-66, 108-132

          :  Hamiltonian                  GFN1-xTB          :
 * total energy  :  -211.5577071 Eh     change       -0.1721901E-08 Eh
 * total energy  :  -219.1675008 Eh     change       -0.7609794E+01 Eh
 * total energy  :  -219.8171209 Eh     change       -0.6496201E+00 Eh
 * total energy  :  -220.2624895 Eh     change       -0.4453685E+00 Eh
 * total energy  :  -220.4989026 Eh     change       -0.2364131E+00 Eh
 * total energy  :  -220.6360852 Eh     change       -0.1371826E+00 Eh
 * total energy  :  -220.7367554 Eh     change       -0.1006702E+00 Eh
 * total energy  :  -220.8161038 Eh     change       -0.7934846E-01 Eh
 * total energy  :  -220.8750757 Eh     change       -0.5897188E-01 Eh
 * total energy  :  -220.9229329 Eh     change       -0.4785718E-01 Eh
 * total energy  :  -221.5282849 Eh     change       -0.3392629E-04 Eh
 * total energy  :  -221.5283169 Eh     change       -0.3202720E-04 Eh
 * total energy  :  -221.5283395 Eh     change       -0.2261465E-04 Eh
 * total energy  :  -221.5283518 Eh     change       -0.1222030E-04 Eh
 * total energy  :  -221.5283615 Eh     change       -0.9761517E-05 Eh
 * total energy  :  -221.5283708 Eh     change       -0.9277262E-05 Eh
 * total energy  :  -221.5283780 Eh     change       -0.7249431E-05 Eh
 * total energy  :  -221.5283830 Eh     change       -0.5002211E-05 Eh
 * total energy  :  -221.5283878 Eh     change       -0.4740105E-05 Eh
   *** GEOMETRY OPTIMIZATION CONVERGED AFTER 63 ITERATIONS ***

 final structure:
================
134
 xtb: 6.5.1 (b24c23e)
Ni          18.90408052308438        0.03327577180436        0.00912600207741
C           15.52110748822989        0.11492730363494       -0.06956676791748
C           16.16883284282319        0.88581897904043        0.87461515180157
C           15.49703517427390        1.67847615932450        1.85772389606479
C           16.45261651907825        2.38894626727881        2.50378594905707
C           17.70665243744680        2.04318602466994        1.90228784441800
N           17.52632656985003        1.08007655702661        0.94088210453822
C           18.91380537546009        2.66946572454460        2.19329369569849
C           18.92415990549554        3.80775159429994        3.13780973941087
C           18.14089164958110        4.94163285760185        2.90311465677930
C           18.15914425877104        6.00785780896750        3.78197872287888
C           18.95537108042522        5.96806774411064        4.93341105931131
N           18.97918145594820        7.08270352799289        5.75808743216473
C           19.39216879298511        6.94485299222569        7.14804143515886
C           19.74396592468405        4.83849343009114        5.17096178667069
C           19.72492848415198        3.77805051511353        4.28141699769899
C           20.11443501996706        2.26585132803889        1.61971972226306
C           21.36380436823670        2.93544707028698        1.81761324972243
C           22.31418487057753        2.17875613265599        1.21600386453325
N           20.29357244850489        1.13753774607178        0.85222273590012
C           21.64416807321624        1.05410001698599        0.64672277167092
C           22.30656248721209       -0.02637326745742        0.05850012711481
C           21.62339979337427       -1.09048862943016       -0.53623815224555
C           22.26842302941705       -2.24711240773461       -1.06873304883374
C           21.30836075773075       -2.98078999683990       -1.68354497053359
C           20.07955790288965       -2.26210633419502       -1.53554180740692
N           20.27695434289416       -1.12998057594218       -0.77780425685514
C           18.88649284017134       -2.62115472072002       -2.15301629181029
C           18.88715003338344       -3.76614579598367       -3.08915291149609
C           19.74181504772515       -3.78165650771798       -4.19352833287814
C           19.75412938889841       -4.84806819888207       -5.07584610669112
C           18.90313295344325       -5.93805040275567       -4.87107120043409
N           18.91515918675877       -7.05855015699085       -5.68821196881975
C           19.39636610293157       -6.94775086554239       -7.05860239712553
C           18.05121062161785       -5.93231455822286       -3.75953789541889
C           18.04083345961574       -4.86032487210971       -2.88743559494059
C           17.69821659276707       -1.93623792843216       -1.92214600159441
C           16.45834462400724       -2.22539923140495       -2.58022951925965
C           15.51044787274519       -1.45977627148020       -1.98803878699371
C           16.17363178806321       -0.69222948832421       -0.97943699009631
N           17.52116769227049       -0.95529504624901       -0.97848972849396
H           14.43794725755921        0.14279052165523       -0.09608296764015
H           14.43078400111993        1.67720959107334        2.01993167222398
H           16.33098183290876        3.08486575665410        3.31806263657036
H           17.52970192821699        4.99344082984217        2.00867493774336
H           17.55573912881517        6.88690619430789        3.58113285959123
H           18.15672760875373        7.66471648716617        5.65507481588176
H           20.45731182465505        6.71570728446312        7.20015775807142
H           18.82818962858940        6.15708592732533        7.66058049234211
H           19.21585922010978        7.89744987898947        7.64774971684602
H           20.37567737203950        4.78064873890395        6.04884018182561
H           20.32772510064714        2.89999367553383        4.48674676883291
H           21.48821327021358        3.86901087710976        2.34165291861840
H           23.37565774602234        2.35643272956551        1.15452330984020
H           23.32038291516835       -2.46206375745244       -0.97254770020485
H           21.41366153651926       -3.92822764126760       -2.18642397176886
H           20.39355253731323       -2.93366841225812       -4.37421491420047
H           20.42948684464680       -4.82591339204892       -5.92227764477365
H           18.06318855919439       -7.60214189115039       -5.62073011762354
H           18.89029127681315       -6.14021624708972       -7.59999477458225
H           19.20248298987826       -7.89532508663389       -7.56126760121639
H           20.47155564641315       -6.76426249236489       -7.06328754275596
H           17.39797649097601       -6.78070409284527       -3.58428871096580
H           17.38525689353007       -4.87723952331068       -2.02359700615978
H           16.34038483854636       -2.92337309379367       -3.39330305669225
H           14.45461564992963       -1.40655905906274       -2.20173942628624
Ni          29.74127998639373       -0.01617868759477       -0.03045787165818
C           33.12425136298131        0.04284648699231       -0.12729873230707
C           32.47654475697628       -1.04680121019031       -0.67359697223760
C           33.14836168479231       -2.17915997917433       -1.23265300085385
C           32.19279542419606       -2.96468748109361       -1.78504623801089
C           30.93874762044939       -2.30226082268597       -1.57885898775718
N           31.11905088886308       -1.15387147654537       -0.84872706332005
C           29.73160176606606       -2.72294077878377       -2.12654349012446
C           29.72127864000399       -3.89307766104191       -3.03130113273868
C           30.50454223315008       -3.91142467743548       -4.18907428384989
C           30.48632887001741       -5.00176631509662       -5.03783380124123
C           29.69014249359343       -6.11679909927741       -4.74775385749558
N           29.66636094233106       -7.16481473931980       -5.65558804492004
C           29.25342916164527       -8.49121697525907       -5.21778105974453
C           28.90155298935239       -6.10217898888946       -3.59356030415997
C           28.92055396522393       -5.00267660544923       -2.75277123446274
C           28.53096050314790       -2.07513485387945       -1.85782469034550
C           27.28160000035963       -2.41439999766625       -2.46810657102277
C           26.33120761061802       -1.66215088523921       -1.86097069215595
N           28.35180419044043       -1.07990241169230       -0.92420363619942
C           27.00120614276533       -0.86114855455399       -0.88765095843526
C           26.33879820477300       -0.05132633044187        0.03841245971542
C           27.02194952051966        0.76127495974030        0.94712362131622
C           26.37690260303796        1.53329679887772        1.95968490556117
C           27.33695448329646        2.29335413525601        2.54158511531137
C           28.56577249564927        1.99211292585260        1.87253688158757
N           28.36839624180213        1.00562120061930        0.93300325283651
C           29.75882386721170        2.67307503374371        2.08821141472089
C           29.75814354609714        3.83648933094926        3.00134795750100
C           28.90341348371469        4.91759600293242        2.77553833639907
C           28.89105499011267        6.01133542647748        3.62373923549252
C           29.74206700241998        6.04936835533243        4.73212999349498
N           29.72996931690779        7.09128680458857        5.64734371490243
C           29.24868889951624        8.40447006697613        5.24025801936833
C           30.59406778284178        4.96342009148631        4.96902824273124
C           30.60449132392437        3.87843284040229        4.11314955875313
C           30.94710029813006        2.29834560720685        1.47015638548282
C           32.18695696487836        3.00369423440958        1.60873749645151
C           33.13486761277279        2.25871887695305        0.99079271483662
C           32.47170490715452        1.10691938312833        0.46184242622162
N           31.12416721879956        1.16337946538547        0.71876867015621
H           34.20741113193381        0.06265862424572       -0.16026337162413
H           34.21461533605157       -2.33716449744218       -1.19602620409770
H           32.31445021116541       -3.91118110091579       -2.28654012208468
H           31.11569967113662       -3.04982000192827       -4.43480422248085
H           31.08973382321811       -4.99755164780487       -5.93952482093838
H           30.48879839746533       -7.19123945853153       -6.24608039318393
H           28.18829395318635       -8.49211945550083       -4.98276114277974
H           29.81743765837758       -8.81951006018970       -4.33717948687468
H           29.42974326058363       -9.18672277637881       -6.03839936756649
H           28.26987190956126       -6.94630413840384       -3.34555275671503
H           28.31776159702220       -5.01148475818767       -1.85106579346388
H           27.15720556230534       -3.12955788086541       -3.26479452056032
H           25.26973698028699       -1.64093416204216       -2.04779727722952
H           25.32493497835367        1.48633418262381        2.19040739603589
H           27.23163928780376        2.99081573318045        3.35648937637204
H           28.25165812939198        4.90886721925495        1.90857137244599
H           28.21564737521156        6.83250320876785        3.41745282079674
H           30.58185916635129        7.14404257235230        6.19266607618818
H           29.75476015380891        8.75669591615169        4.33407754597344
H           29.44251519440817        9.10175145150707        6.05536099107900
H           28.17350263869691        8.36895463364746        5.06014302563183
H           31.24732467488226        4.97754212855890        5.83519645044417
H           31.26012444625342        3.03914025523106        4.31812960240376
H           32.30489383253794        3.94948759196026        2.11245916233972
H           34.19069609490192        2.45567178615553        0.89222039395595
C           23.71471898335244       -0.04241557368564        0.06241328925191
C           24.93064167583276       -0.05161338618544        0.05490234836825

          :  Hamiltonian                  GFN1-xTB          :
         :: total energy            -221.528387785567 Eh    ::
         :: gradient norm              0.000283225854 Eh/a0 ::
         :: HOMO-LUMO gap              1.144013843795 eV    ::
         :: SCC energy              -224.889836160343 Eh    ::
         :: repulsion energy           3.478650159178 Eh    ::

    * Orbital Energies and Occupations

         #    Occupation            Energy/Eh            Energy/eV
      -------------------------------------------------------------
         1        2.0000           -0.7773957             -21.1540
       ...           ...                  ...                  ...
       193        2.0000           -0.3898353             -10.6080
       194        2.0000           -0.3870256             -10.5315
       195        2.0000           -0.3869330             -10.5290
       196        2.0000           -0.3868001             -10.5254
       197        2.0000           -0.3867775             -10.5248
       198        2.0000           -0.3856675             -10.4945
       199        2.0000           -0.3856644             -10.4945
       200        2.0000           -0.3845486             -10.4641
       201        2.0000           -0.3845450             -10.4640
       202        2.0000           -0.3844943             -10.4626
       203        2.0000           -0.3844927             -10.4626
       204        2.0000           -0.3808401             -10.3632
       205        2.0000           -0.3707957             -10.0899 (HOMO)
       206                         -0.3287539              -8.9458 (LUMO)
       207                         -0.3176842              -8.6446
       208                         -0.3176687              -8.6442
       209                         -0.3152001              -8.5770
       210                         -0.3150601              -8.5732
       211                         -0.3124235              -8.5015
       212                         -0.2868510              -7.8056
       213                         -0.2781194              -7.5680
       214                         -0.2545532              -6.9267
       215                         -0.2545506              -6.9267
       216                         -0.2545174              -6.9258
       ...                                ...                  ...
       446                          1.3562980              36.9067
      -------------------------------------------------------------
                  HL-Gap            0.0420417 Eh            1.1440 eV

Wiberg/Mayer (AO) data.
largest (>0.10) Wiberg bond orders for each atom

     #   Z sym  total        # sym  WBO       # sym  WBO       # sym  WBO
 ---------------------------------------------------------------------------
     1  28 Ni   3.029 --     7 N    0.665    41 N    0.665    27 N    0.664
                            20 N    0.663
     2   6 C    3.933 --    40 C    1.363     3 C    1.362    42 H    0.970
     3   6 C    3.925 --     2 C    1.362     7 N    1.211     4 C    1.179
     4   6 C    3.957 --     5 C    1.644     3 C    1.179    43 H    0.975
     5   6 C    3.963 --     4 C    1.644     6 C    1.181    44 H    0.973
     6   6 C    3.918 --     8 C    1.318     7 N    1.221     5 C    1.181
     7   7 N    3.399 --     6 C    1.221     3 C    1.211     1 Ni   0.665
     8   6 C    3.939 --    17 C    1.322     6 C    1.318     9 C    1.037
     9   6 C    3.988 --    16 C    1.382    10 C    1.373     8 C    1.037
    10   6 C    3.987 --    11 C    1.477     9 C    1.373    45 H    0.972
    11   6 C    3.989 --    10 C    1.477    12 C    1.344    46 H    0.971
    12   6 C    3.952 --    15 C    1.353    11 C    1.344    13 N    1.110
    13   7 N    3.180 --    12 C    1.110    14 C    0.972    47 H    0.931
    14   6 C    3.968 --    50 H    0.990    48 H    0.986    49 H    0.984
                            13 N    0.972
    15   6 C    3.989 --    16 C    1.465    12 C    1.353    51 H    0.970
    16   6 C    3.986 --    15 C    1.465     9 C    1.382    52 H    0.972
    17   6 C    3.914 --     8 C    1.322    20 N    1.207    18 C    1.187
    18   6 C    3.960 --    19 C    1.631    17 C    1.187    53 H    0.973
    19   6 C    3.962 --    18 C    1.631    21 C    1.194    54 H    0.971
    20   7 N    3.404 --    21 C    1.234    17 C    1.207     1 Ni   0.663
    21   6 C    3.910 --    22 C    1.268    20 N    1.234    19 C    1.194
    22   6 C    3.942 --    21 C    1.268    23 C    1.267   133 C    1.172
    23   6 C    3.910 --    22 C    1.267    27 N    1.235    24 C    1.195
    24   6 C    3.960 --    25 C    1.630    23 C    1.195    55 H    0.971
    25   6 C    3.959 --    24 C    1.630    26 C    1.187    56 H    0.973
    26   6 C    3.914 --    28 C    1.322    27 N    1.206    25 C    1.187
    27   7 N    3.404 --    23 C    1.235    26 C    1.206     1 Ni   0.664
    28   6 C    3.939 --    26 C    1.322    37 C    1.318    29 C    1.038
    29   6 C    3.988 --    30 C    1.382    36 C    1.373    28 C    1.038
    30   6 C    3.986 --    31 C    1.466    29 C    1.382    57 H    0.972
    31   6 C    3.990 --    30 C    1.466    32 C    1.353    58 H    0.970
    32   6 C    3.952 --    31 C    1.353    35 C    1.345    33 N    1.110
    33   7 N    3.180 --    32 C    1.110    34 C    0.972    59 H    0.931
    34   6 C    3.968 --    61 H    0.990    62 H    0.986    60 H    0.984
                            33 N    0.972
    35   6 C    3.989 --    36 C    1.477    32 C    1.345    63 H    0.971
    36   6 C    3.986 --    35 C    1.477    29 C    1.373    64 H    0.972
    37   6 C    3.918 --    28 C    1.318    41 N    1.221    38 C    1.181
    38   6 C    3.963 --    39 C    1.644    37 C    1.181    65 H    0.973
    39   6 C    3.957 --    38 C    1.644    40 C    1.179    66 H    0.975
    40   6 C    3.925 --     2 C    1.363    41 N    1.211    39 C    1.179
    41   7 N    3.399 --    37 C    1.221    40 C    1.211     1 Ni   0.665
    42   1 H    1.001 --     2 C    0.970
    43   1 H    0.998 --     4 C    0.975
    44   1 H    1.005 --     5 C    0.973
    45   1 H    1.005 --    10 C    0.972
    46   1 H    0.999 --    11 C    0.971
    47   1 H    0.966 --    13 N    0.931
    48   1 H    1.012 --    14 C    0.986
    49   1 H    1.003 --    14 C    0.984
    50   1 H    1.007 --    14 C    0.990
    51   1 H    1.001 --    15 C    0.970
    52   1 H    1.006 --    16 C    0.972
    53   1 H    1.005 --    18 C    0.973
    54   1 H    1.005 --    19 C    0.971
    55   1 H    1.004 --    24 C    0.971
    56   1 H    1.005 --    25 C    0.973
    57   1 H    1.006 --    30 C    0.972
    58   1 H    1.001 --    31 C    0.970
    59   1 H    0.966 --    33 N    0.931
    60   1 H    1.003 --    34 C    0.984
    61   1 H    1.007 --    34 C    0.990
    62   1 H    1.012 --    34 C    0.986
    63   1 H    0.999 --    35 C    0.971
    64   1 H    1.005 --    36 C    0.972
    65   1 H    1.005 --    38 C    0.973
    66   1 H    0.998 --    39 C    0.975
    67  28 Ni   3.029 --    73 N    0.665   107 N    0.665    93 N    0.664
                            86 N    0.663
    68   6 C    3.933 --   106 C    1.363    69 C    1.362   108 H    0.970
    69   6 C    3.925 --    68 C    1.362    73 N    1.211    70 C    1.179
    70   6 C    3.957 --    71 C    1.644    69 C    1.179   109 H    0.975
    71   6 C    3.963 --    70 C    1.644    72 C    1.181   110 H    0.973
    72   6 C    3.918 --    74 C    1.318    73 N    1.221    71 C    1.181
    73   7 N    3.399 --    72 C    1.221    69 C    1.211    67 Ni   0.665
    74   6 C    3.939 --    83 C    1.322    72 C    1.318    75 C    1.037
    75   6 C    3.988 --    82 C    1.382    76 C    1.373    74 C    1.037
    76   6 C    3.987 --    77 C    1.477    75 C    1.373   111 H    0.972
    77   6 C    3.989 --    76 C    1.477    78 C    1.344   112 H    0.971
    78   6 C    3.952 --    81 C    1.353    77 C    1.344    79 N    1.110
    79   7 N    3.180 --    78 C    1.110    80 C    0.972   113 H    0.931
    80   6 C    3.968 --   116 H    0.990   114 H    0.986   115 H    0.984
                            79 N    0.972
    81   6 C    3.989 --    82 C    1.465    78 C    1.353   117 H    0.970
    82   6 C    3.986 --    81 C    1.465    75 C    1.382   118 H    0.972
    83   6 C    3.914 --    74 C    1.322    86 N    1.207    84 C    1.187
    84   6 C    3.960 --    85 C    1.631    83 C    1.187   119 H    0.973
    85   6 C    3.962 --    84 C    1.631    87 C    1.194   120 H    0.971
    86   7 N    3.404 --    87 C    1.234    83 C    1.207    67 Ni   0.663
    87   6 C    3.910 --    88 C    1.268    86 N    1.234    85 C    1.194
    88   6 C    3.942 --    87 C    1.268    89 C    1.267   134 C    1.172
    89   6 C    3.910 --    88 C    1.267    93 N    1.235    90 C    1.195
    90   6 C    3.960 --    91 C    1.630    89 C    1.195   121 H    0.971
    91   6 C    3.959 --    90 C    1.630    92 C    1.187   122 H    0.973
    92   6 C    3.914 --    94 C    1.322    93 N    1.206    91 C    1.187
    93   7 N    3.404 --    89 C    1.235    92 C    1.206    67 Ni   0.664
    94   6 C    3.939 --    92 C    1.322   103 C    1.318    95 C    1.038
    95   6 C    3.988 --    96 C    1.382   102 C    1.373    94 C    1.038
    96   6 C    3.986 --    97 C    1.466    95 C    1.382   123 H    0.972
    97   6 C    3.990 --    96 C    1.466    98 C    1.353   124 H    0.970
    98   6 C    3.952 --    97 C    1.353   101 C    1.345    99 N    1.110
    99   7 N    3.180 --    98 C    1.110   100 C    0.972   125 H    0.931
   100   6 C    3.968 --   127 H    0.990   128 H    0.986   126 H    0.984
                            99 N    0.972
   101   6 C    3.989 --   102 C    1.477    98 C    1.345   129 H    0.971
   102   6 C    3.986 --   101 C    1.477    95 C    1.373   130 H    0.972
   103   6 C    3.918 --    94 C    1.318   107 N    1.221   104 C    1.181
   104   6 C    3.963 --   105 C    1.644   103 C    1.181   131 H    0.973
   105   6 C    3.957 --   104 C    1.644   106 C    1.179   132 H    0.975
   106   6 C    3.925 --    68 C    1.363   107 N    1.211   105 C    1.179
   107   7 N    3.399 --   103 C    1.221   106 C    1.211    67 Ni   0.665
   108   1 H    1.001 --    68 C    0.970
   109   1 H    0.998 --    70 C    0.975
   110   1 H    1.005 --    71 C    0.973
   111   1 H    1.005 --    76 C    0.972
   112   1 H    0.999 --    77 C    0.971
   113   1 H    0.966 --    79 N    0.931
   114   1 H    1.012 --    80 C    0.986
   115   1 H    1.003 --    80 C    0.984
   116   1 H    1.007 --    80 C    0.990
   117   1 H    1.001 --    81 C    0.970
   118   1 H    1.006 --    82 C    0.972
   119   1 H    1.005 --    84 C    0.973
   120   1 H    1.005 --    85 C    0.971
   121   1 H    1.004 --    90 C    0.971
   122   1 H    1.005 --    91 C    0.973
   123   1 H    1.006 --    96 C    0.972
   124   1 H    1.001 --    97 C    0.970
   125   1 H    0.966 --    99 N    0.931
   126   1 H    1.003 --   100 C    0.984
   127   1 H    1.007 --   100 C    0.990
   128   1 H    1.012 --   100 C    0.986
   129   1 H    0.999 --   101 C    0.971
   130   1 H    1.005 --   102 C    0.972
   131   1 H    1.005 --   104 C    0.973
   132   1 H    0.998 --   105 C    0.975
   133   6 C    3.936 --   134 C    2.585    22 C    1.172
   134   6 C    3.936 --   133 C    2.585    88 C    1.172
 ---------------------------------------------------------------------------

           -------------------------------------------------
          | TOTAL ENERGY             -221.528387785567 Eh   |
          | GRADIENT NORM               0.000283225854 Eh/α |
          | HOMO-LUMO GAP               1.144013843795 eV   |
           -------------------------------------------------

 * finished run on 2022/07/30 at 02:34:57.978
