   * xtb version 6.5.1 (b24c23e) compiled by 'conda@728c89f4b128' on 2022-07-12
          program call               : xtb Cu_p-CP_C4_2.xyz --gfn 1 --opt -T 48

   ID    Z sym.   atoms
    1   29 Cu     1, 63
    2    6 C      2-6, 8-11, 13-24, 27-32, 35-39, 42, 43, 64-68, 70-73,
                  75-86, 89-94, 97-101, 104, 105, 125-128
    3    7 N      7, 12, 33, 34, 69, 74, 95, 96
    4    8 O      25, 26, 40, 41, 87, 88, 102, 103
    5    1 H      44-62, 106-124
########################################################################
[WARNING] Please study the warnings concerning your input carefully
-1- prog_main_parseArguments: Unknown option '-T' provided
########################################################################

          :  Hamiltonian                  GFN1-xTB          :
 * total energy  :  -244.5094052 Eh     change       -0.3468301E-08 Eh
 * total energy  :  -244.6653003 Eh     change       -0.1558952E+00 Eh
 * total energy  :  -244.7260545 Eh     change       -0.6075418E-01 Eh
 * total energy  :  -244.7260545 Eh     change       -0.1073687E-08 Eh
 * total energy  :  -244.7534392 Eh     change       -0.2738467E-01 Eh
 * total energy  :  -244.7690999 Eh     change       -0.1566071E-01 Eh
 * total energy  :  -244.7806136 Eh     change       -0.1151372E-01 Eh
 * total energy  :  -244.7877814 Eh     change       -0.7167780E-02 Eh
 * total energy  :  -244.7947874 Eh     change       -0.7005967E-02 Eh
 * total energy  :  -244.7997971 Eh     change       -0.5009770E-02 Eh
 * total energy  :  -244.8141527 Eh     change       -0.2032476E-04 Eh
 * total energy  :  -244.8141731 Eh     change       -0.2039724E-04 Eh
 * total energy  :  -244.8141921 Eh     change       -0.1904789E-04 Eh
 * total energy  :  -244.8142013 Eh     change       -0.9138017E-05 Eh
 * total energy  :  -244.8142131 Eh     change       -0.1185841E-04 Eh
 * total energy  :  -244.8142206 Eh     change       -0.7496168E-05 Eh
 * total energy  :  -244.8142275 Eh     change       -0.6861111E-05 Eh
 * total energy  :  -244.8142332 Eh     change       -0.5750453E-05 Eh
 * total energy  :  -244.8142360 Eh     change       -0.2724089E-05 Eh
   *** GEOMETRY OPTIMIZATION CONVERGED AFTER 51 ITERATIONS ***

 final structure:
================
128
 xtb: 6.5.1 (b24c23e)
Cu          17.71226698187559       -0.05395901775577        0.04262591148436
C           14.30710083026515       -0.13743290183673        0.05806148122546
C           14.93782126314989       -0.18794321617756        1.29203508434316
C           14.25751263724911       -0.23903063527532        2.55470780138547
C           15.21211841115150       -0.25275552807423        3.51743639264457
C           16.48569001110648       -0.21946850446763        2.85036309605064
N           16.28751787619636       -0.17471762104260        1.50054852365512
C           17.72789067333137       -0.19706562271429        3.48893602843711
C           18.96343544960281       -0.12685173322772        2.84197432324848
C           20.23878053010005       -0.15409832872808        3.50077572064733
C           21.18812921629898       -0.09340996993831        2.53288673114690
N           19.15657501644761       -0.06070728126834        1.48773391104989
C           20.50099451484270       -0.03599706962430        1.27764640711580
C           21.14076976784133        0.01907578086766        0.02712318661417
C           20.48723092490863        0.05460394607515       -1.21698324553443
C           21.16080460385577        0.07866076801312       -2.48060619661494
C           20.20106071447685        0.10223354421636       -3.43979168506256
C           18.93282716374598        0.10094052649090       -2.76675286116737
C           17.68961668124066        0.10775792349974       -3.40319618384783
C           17.68098786025919        0.18206703788037       -4.88433117440499
C           17.12868816337209       -0.85375588302510       -5.64249502910423
C           17.12308609118190       -0.78206586917668       -7.02328631885280
C           17.66601474266321        0.32841621023845       -7.67257353045571
C           17.63476231780134        0.36032436017587       -9.15397981107120
O           18.18274634281273        1.46680915872682       -9.67959705683864
O           17.16662410404208       -0.50952877263652       -9.84384430708814
C           18.21714189731967        1.36631796024163       -6.92033591075876
C           18.22510418475731        1.29032197284422       -5.53860487675593
C           16.45384259651775        0.05022533992970       -2.75384010173866
C           15.17268254356529        0.10365785432369       -3.40496477080226
C           14.22887531739855        0.03046477294183       -2.43428054682896
C           14.92343325578406       -0.05774743509963       -1.18157569579251
N           16.27096888350303       -0.03747049562951       -1.40406406093532
N           19.14049321197383        0.06178807941133       -1.41363934043081
C           17.73549117516529       -0.24914295601185        4.97155903071773
C           17.23333347704748       -1.36599089064986        5.64439888541352
C           17.24350790162002       -1.41102353543524        7.02640507636355
C           17.75085971503219       -0.33805590568562        7.76179161617732
C           17.73728581400644       -0.43180337012941        9.24103681187908
O           18.24256045030681        0.65027590402974        9.85277503019335
O           17.31961700201866       -1.37811803536034        9.85912098236091
C           18.25133052133241        0.78058269247514        7.09466368681457
C           18.24488806430090        0.82095381137106        5.71139122755351
H           13.22207471744507       -0.15021817417367        0.06377301251779
H           13.18570534586903       -0.25460252068874        2.67443305544923
H           15.07334500972747       -0.27179290271627        4.58640782267023
H           20.38551131459170       -0.22523890647379        4.56632471252236
H           22.26019001047240       -0.09297123468454        2.64849509492845
H           22.23147789033093        0.07119993878492       -2.60809853691269
H           20.33672438574161        0.10507664537577       -4.50915612417823
H           16.71870194128841       -1.72309926487502       -5.14106068583511
H           16.70065993184285       -1.58468124895510       -7.61783706344493
H           18.12129438560224        1.40895708960111      -10.64691192752020
H           18.63685850812355        2.23151719217898       -7.41979669659445
H           18.64195922933375        2.10263918343843       -4.95387214011843
H           15.02162125719595        0.19846639192669       -4.46820829593223
H           13.15576791827904        0.04179761829722       -2.54218363403291
H           16.84957964383618       -2.20504746623769        5.07519693885191
H           16.86061498691476       -2.27701344075218        7.55521641140358
H           18.19845413912106        0.50883940367591       10.81238595589360
H           18.64283429301678        1.61710113237930        7.66140060738517
H           18.62313461988603        1.69486169589055        5.19298694557121
Cu          31.17621248637656       -0.04923232888516       -0.04853028232044
C           34.58132066757337       -0.13054778055192       -0.07325743822425
C           33.95075691255115       -0.03558926211584       -1.30468817392363
C           34.63123601499071        0.06280488515434       -2.56446860800088
C           33.67671779799768        0.16071777210713       -3.52238918586659
C           32.40305606919407        0.11346119013770       -2.85633565420137
N           32.60107034829394        0.00039591972160       -1.51049142002497
C           31.16081504629849        0.20686085314566       -3.48836049797920
C           29.92513644561686        0.19902261064742       -2.83788876789226
C           28.64979600473875        0.24443132126483       -3.49568472014436
C           27.70041124586390        0.19268078383823       -2.52731292596320
N           29.73198399348311        0.10962254279949       -1.48497509958094
C           28.38754942880044        0.10818270213629       -1.27359554020915
C           27.74773009430489        0.02120128103240       -0.02490875800048
C           28.40117152204871       -0.08460062611321        1.21524913015827
C           27.72750130203602       -0.20340379670553        2.47345065768742
C           28.68717525963746       -0.29043458752127        3.42903222487521
C           29.95549397394664       -0.21700463775873        2.76014328860398
C           31.19863008100914       -0.28579515353044        3.39306103157014
C           31.20722060661220       -0.38252970423146        4.87289371602435
C           31.75780707642107       -1.49969198422344        5.50663034582146
C           31.76364502509477       -1.58747353155119        6.88647964350477
C           31.22257750167713       -0.55826413631560        7.65946701639173
C           31.25461519867441       -0.69697103421790        9.13470367893067
O           30.70533507765458        0.34089249101273        9.78434902992789
O           31.72324969445366       -1.64033355582515        9.71970299729534
C           30.67299214102492        0.56017607188670        7.03187774261780
C           30.66492970639680        0.64386686605638        5.65058135999365
C           32.43440542301948       -0.27057248636448        2.74129798048762
C           33.71557938724067       -0.29561280101588        3.39413891270733
C           34.65940228734168       -0.25664936159441        2.42150433591962
C           33.96488482816617       -0.19681408383347        1.16710698050150
N           32.61734495092983       -0.20084887470245        1.39049105355829
N           29.74789841241824       -0.10138895249078        1.41140836896264
C           31.15334365172484        0.32620083216718       -4.96708295122862
C           31.65913855923524       -0.70397301024397       -5.76400673054392
C           31.64932125565196       -0.58932720652761       -7.14198296927995
C           31.13822421562262        0.55947682338703       -7.74899510757359
C           31.15066120689562        0.63615412768157       -9.22917485592489
O           30.64111702364873        1.77970927602017       -9.71230818507321
O           31.57428737705689       -0.22968783298294       -9.95201894573908
C           30.63432670444383        1.59220178291578       -6.95754495041812
C           30.64060215656335        1.47283170006916       -5.57885337713048
H           35.66634845672981       -0.14274921859081       -0.08032690670930
H           35.70307691070906        0.06304662922902       -2.68490082454706
H           33.81556290603498        0.26754476803026       -4.58617505204864
H           28.50313317392789        0.29478260428331       -4.56242888397648
H           26.62832771086792        0.20408131345051       -2.64221782526412
H           26.65681462896510       -0.22385143283569        2.59938207658167
H           28.55132905291093       -0.40900688051865        4.49178023545542
H           32.16634075914188       -2.30616747802695        4.90831954222755
H           32.18504747958137       -2.45376694267538        7.38455757037290
H           30.76685975896500        0.17191804549662       10.73854414439299
H           30.25460286735786        1.36273528667574        7.62773118806701
H           30.24943793613485        1.51884400729635        5.16343136479419
H           33.86673562542043       -0.32574991075671        4.46115948093350
H           35.73251067732853       -0.25984455747039        2.52996028073429
H           32.04548702554285       -1.60185531111890       -5.29519259470465
H           32.03494445892986       -1.38737320842038       -7.76693989257281
H           30.68656273991016        1.75034935179113      -10.68176912043222
H           30.23980005992241        2.48706174045947       -7.42424906201352
H           30.25942193950886        2.27989404515588       -4.96332208548908
C           23.76912031669222        0.03062498770660        0.00845150789524
C           22.54752598388619        0.02794826605606        0.01902442022345
C           25.11939824874813        0.03208944701639       -0.00368223562841
C           26.34097468916347        0.02976514717802       -0.01597637357399

          :  Hamiltonian                  GFN1-xTB          :
         :: total energy            -244.814235973945 Eh    ::
         :: gradient norm              0.000679153340 Eh/a0 ::
         :: HOMO-LUMO gap              0.000038775849 eV    ::
         :: SCC energy              -248.277670653762 Eh    ::
         :: repulsion energy           3.576624896342 Eh    ::

    * Orbital Energies and Occupations

         #    Occupation            Energy/Eh            Energy/eV
      -------------------------------------------------------------
         1        2.0000           -0.8323918             -22.6505
       ...           ...                  ...                  ...
       206        2.0000           -0.4204454             -11.4409
       207        2.0000           -0.4204344             -11.4406
       208        2.0000           -0.4173067             -11.3555
       209        2.0000           -0.4173023             -11.3554
       210        2.0000           -0.4171394             -11.3509
       211        2.0000           -0.4170800             -11.3493
       212        2.0000           -0.4170761             -11.3492
       213        2.0000           -0.4170429             -11.3483
       214        2.0000           -0.4047123             -11.0128
       215        2.0000           -0.4047084             -11.0127
       216        2.0000           -0.4025355             -10.9535
       217        2.0000           -0.3900806             -10.6146
       218        1.0004           -0.3647773              -9.9261 (HOMO)
       219        0.9996           -0.3647759              -9.9261 (LUMO)
       220                         -0.3469795              -9.4418
       221                         -0.3387956              -9.2191
       222                         -0.3387936              -9.2190
       223                         -0.3329940              -9.0612
       224                         -0.3148686              -8.5680
       225                         -0.3131824              -8.5221
       226                         -0.3082369              -8.3876
       227                         -0.3082224              -8.3872
       228                         -0.3005147              -8.1774
       229                         -0.2941283              -8.0036
       ...                                ...                  ...
       446                          1.5108349              41.1119
      -------------------------------------------------------------
                  HL-Gap            0.0000014 Eh            0.0000 eV

Wiberg/Mayer (AO) data.
largest (>0.10) Wiberg bond orders for each atom

     #   Z sym  total        # sym  WBO       # sym  WBO       # sym  WBO
 ---------------------------------------------------------------------------
     1  29 Cu   2.183 --     7 N    0.505    33 N    0.504    34 N    0.501
                            12 N    0.501
     2   6 C    3.930 --    32 C    1.362     3 C    1.362    44 H    0.971
     3   6 C    3.916 --     2 C    1.362     7 N    1.229     4 C    1.169
     4   6 C    3.955 --     5 C    1.657     3 C    1.169    45 H    0.975
     5   6 C    3.958 --     4 C    1.657     6 C    1.171    46 H    0.973
     6   6 C    3.913 --     8 C    1.319     7 N    1.239     5 C    1.171
     7   7 N    3.243 --     6 C    1.239     3 C    1.229     1 Cu   0.505
     8   6 C    3.934 --     9 C    1.325     6 C    1.319    35 C    1.028
     9   6 C    3.908 --     8 C    1.325    12 N    1.223    10 C    1.179
    10   6 C    3.954 --    11 C    1.643     9 C    1.179    47 H    0.973
    11   6 C    3.956 --    10 C    1.643    13 C    1.186    48 H    0.974
    12   7 N    3.248 --    13 C    1.256     9 C    1.223     1 Cu   0.501
    13   6 C    3.897 --    14 C    1.261    12 N    1.256    11 C    1.186
    14   6 C    3.940 --    13 C    1.261    15 C    1.261   126 C    1.184
    15   6 C    3.897 --    14 C    1.261    34 N    1.256    16 C    1.186
    16   6 C    3.956 --    17 C    1.643    15 C    1.186    49 H    0.974
    17   6 C    3.954 --    16 C    1.643    18 C    1.179    50 H    0.973
    18   6 C    3.908 --    19 C    1.324    34 N    1.224    17 C    1.179
    19   6 C    3.934 --    18 C    1.324    29 C    1.318    20 C    1.030
    20   6 C    3.986 --    28 C    1.386    21 C    1.385    19 C    1.030
    21   6 C    3.987 --    22 C    1.464    20 C    1.385    51 H    0.972
                            27 C    0.102
    22   6 C    3.990 --    21 C    1.464    23 C    1.385    52 H    0.968
                            28 C    0.102
    23   6 C    3.982 --    27 C    1.388    22 C    1.385    24 C    1.010
    24   6 C    3.836 --    26 O    1.689    25 O    1.087    23 C    1.010
    25   8 O    2.096 --    24 C    1.087    53 H    0.839    26 O    0.128
    26   8 O    1.957 --    24 C    1.689    25 O    0.128
    27   6 C    3.991 --    28 C    1.462    23 C    1.388    54 H    0.970
                            21 C    0.102
    28   6 C    3.987 --    27 C    1.462    20 C    1.386    55 H    0.972
                            22 C    0.102
    29   6 C    3.913 --    19 C    1.318    33 N    1.240    30 C    1.171
    30   6 C    3.958 --    31 C    1.657    29 C    1.171    56 H    0.973
    31   6 C    3.955 --    30 C    1.657    32 C    1.170    57 H    0.975
    32   6 C    3.916 --     2 C    1.362    33 N    1.229    31 C    1.170
    33   7 N    3.243 --    29 C    1.240    32 C    1.229     1 Cu   0.504
    34   7 N    3.248 --    15 C    1.256    18 C    1.224     1 Cu   0.501
    35   6 C    3.986 --    43 C    1.387    36 C    1.386     8 C    1.028
    36   6 C    3.987 --    37 C    1.464    35 C    1.386    58 H    0.972
                            42 C    0.103
    37   6 C    3.990 --    36 C    1.464    38 C    1.385    59 H    0.968
                            43 C    0.103
    38   6 C    3.983 --    42 C    1.388    37 C    1.385    39 C    1.010
    39   6 C    3.836 --    41 O    1.689    40 O    1.088    38 C    1.010
    40   8 O    2.096 --    39 C    1.088    60 H    0.838    41 O    0.128
    41   8 O    1.957 --    39 C    1.689    40 O    0.128
    42   6 C    3.991 --    43 C    1.462    38 C    1.388    61 H    0.970
                            36 C    0.103
    43   6 C    3.988 --    42 C    1.462    35 C    1.387    62 H    0.972
                            37 C    0.103
    44   1 H    1.001 --     2 C    0.971
    45   1 H    0.997 --     4 C    0.975
    46   1 H    1.004 --     5 C    0.973
    47   1 H    1.004 --    10 C    0.973
    48   1 H    1.002 --    11 C    0.974
    49   1 H    1.002 --    16 C    0.974
    50   1 H    1.004 --    17 C    0.973
    51   1 H    1.004 --    21 C    0.972
    52   1 H    1.005 --    22 C    0.968
    53   1 H    0.873 --    25 O    0.839
    54   1 H    1.005 --    27 C    0.970
    55   1 H    1.004 --    28 C    0.972
    56   1 H    1.004 --    30 C    0.973
    57   1 H    0.997 --    31 C    0.975
    58   1 H    1.004 --    36 C    0.972
    59   1 H    1.005 --    37 C    0.968
    60   1 H    0.873 --    40 O    0.838
    61   1 H    1.005 --    42 C    0.970
    62   1 H    1.004 --    43 C    0.972
    63  29 Cu   2.182 --    69 N    0.505    95 N    0.504    96 N    0.501
                            74 N    0.501
    64   6 C    3.930 --    94 C    1.362    65 C    1.362   106 H    0.971
    65   6 C    3.916 --    64 C    1.362    69 N    1.229    66 C    1.169
    66   6 C    3.955 --    67 C    1.657    65 C    1.169   107 H    0.975
    67   6 C    3.958 --    66 C    1.657    68 C    1.171   108 H    0.973
    68   6 C    3.913 --    70 C    1.319    69 N    1.239    67 C    1.171
    69   7 N    3.243 --    68 C    1.239    65 C    1.229    63 Cu   0.505
    70   6 C    3.934 --    71 C    1.325    68 C    1.319    97 C    1.029
    71   6 C    3.908 --    70 C    1.325    74 N    1.223    72 C    1.179
    72   6 C    3.954 --    73 C    1.643    71 C    1.179   109 H    0.973
    73   6 C    3.956 --    72 C    1.643    75 C    1.186   110 H    0.974
    74   7 N    3.248 --    75 C    1.256    71 C    1.223    63 Cu   0.501
    75   6 C    3.897 --    76 C    1.261    74 N    1.256    73 C    1.186
    76   6 C    3.940 --    75 C    1.261    77 C    1.261   128 C    1.184
    77   6 C    3.897 --    76 C    1.261    96 N    1.256    78 C    1.186
    78   6 C    3.956 --    79 C    1.643    77 C    1.186   111 H    0.974
    79   6 C    3.954 --    78 C    1.643    80 C    1.179   112 H    0.973
    80   6 C    3.908 --    81 C    1.324    96 N    1.224    79 C    1.179
    81   6 C    3.934 --    80 C    1.324    91 C    1.318    82 C    1.030
    82   6 C    3.986 --    90 C    1.386    83 C    1.385    81 C    1.030
    83   6 C    3.987 --    84 C    1.464    82 C    1.385   113 H    0.972
                            89 C    0.102
    84   6 C    3.990 --    83 C    1.464    85 C    1.385   114 H    0.968
                            90 C    0.102
    85   6 C    3.982 --    89 C    1.388    84 C    1.385    86 C    1.010
    86   6 C    3.836 --    88 O    1.689    87 O    1.087    85 C    1.010
    87   8 O    2.096 --    86 C    1.087   115 H    0.839    88 O    0.128
    88   8 O    1.957 --    86 C    1.689    87 O    0.128
    89   6 C    3.991 --    90 C    1.462    85 C    1.388   116 H    0.970
                            83 C    0.102
    90   6 C    3.987 --    89 C    1.462    82 C    1.386   117 H    0.972
                            84 C    0.102
    91   6 C    3.913 --    81 C    1.318    95 N    1.240    92 C    1.171
    92   6 C    3.958 --    93 C    1.657    91 C    1.171   118 H    0.973
    93   6 C    3.955 --    92 C    1.657    94 C    1.170   119 H    0.975
    94   6 C    3.916 --    64 C    1.362    95 N    1.229    93 C    1.170
    95   7 N    3.243 --    91 C    1.240    94 C    1.229    63 Cu   0.504
    96   7 N    3.248 --    77 C    1.256    80 C    1.224    63 Cu   0.501
    97   6 C    3.986 --   105 C    1.387    98 C    1.386    70 C    1.029
    98   6 C    3.987 --    99 C    1.464    97 C    1.386   120 H    0.972
                           104 C    0.103
    99   6 C    3.990 --    98 C    1.464   100 C    1.385   121 H    0.968
                           105 C    0.103
   100   6 C    3.983 --   104 C    1.388    99 C    1.385   101 C    1.010
   101   6 C    3.836 --   103 O    1.689   102 O    1.087   100 C    1.010
   102   8 O    2.096 --   101 C    1.087   122 H    0.838   103 O    0.128
   103   8 O    1.958 --   101 C    1.689   102 O    0.128
   104   6 C    3.991 --   105 C    1.462   100 C    1.388   123 H    0.970
                            98 C    0.103
   105   6 C    3.988 --   104 C    1.462    97 C    1.387   124 H    0.972
                            99 C    0.103
   106   1 H    1.001 --    64 C    0.971
   107   1 H    0.997 --    66 C    0.975
   108   1 H    1.004 --    67 C    0.973
   109   1 H    1.004 --    72 C    0.973
   110   1 H    1.002 --    73 C    0.974
   111   1 H    1.002 --    78 C    0.974
   112   1 H    1.004 --    79 C    0.973
   113   1 H    1.004 --    83 C    0.972
   114   1 H    1.005 --    84 C    0.968
   115   1 H    0.873 --    87 O    0.839
   116   1 H    1.005 --    89 C    0.970
   117   1 H    1.004 --    90 C    0.972
   118   1 H    1.004 --    92 C    0.973
   119   1 H    0.997 --    93 C    0.975
   120   1 H    1.004 --    98 C    0.972
   121   1 H    1.005 --    99 C    0.968
   122   1 H    0.873 --   102 O    0.838
   123   1 H    1.005 --   104 C    0.970
   124   1 H    1.004 --   105 C    0.972
   125   6 C    3.937 --   126 C    2.482   127 C    1.305
   126   6 C    3.927 --   125 C    2.482    14 C    1.184   128 C    0.200
   127   6 C    3.937 --   128 C    2.482   125 C    1.305
   128   6 C    3.927 --   127 C    2.482    76 C    1.184   126 C    0.200
 ---------------------------------------------------------------------------

           -------------------------------------------------
          | TOTAL ENERGY             -244.814235973945 Eh   |
          | GRADIENT NORM               0.000679153340 Eh/α |
          | HOMO-LUMO GAP               0.000038775849 eV   |
           -------------------------------------------------

 * finished run on 2022/07/30 at 09:39:28.603
