   * xtb version 6.5.1 (b24c23e) compiled by 'conda@728c89f4b128' on 2022-07-12
          program call               : xtb PhNO2_C6_3.xyz --gfn 1 --opt -T 48

   ID    Z sym.   atoms
    1    6 C      1-5, 7-11, 15-19, 21-26, 28-32, 36-41, 62-66, 68-72, 76-80,
                  82-87, 89-93, 97-102, 123-139, 141-145, 149-153, 155-160,
                  162-166, 170-175
    2    7 N      6, 12, 20, 27, 33, 42, 67, 73, 81, 88, 94, 103, 140, 146,
                  154, 161, 167, 176
    3    8 O      13, 14, 34, 35, 74, 75, 95, 96, 147, 148, 168, 169
    4    1 H      43-61, 104-122, 177-194

          :  Hamiltonian                  GFN1-xTB          :
 * total energy  :  -370.4793747 Eh     change       -0.3674359E-08 Eh
 * total energy  :  -370.6930234 Eh     change       -0.2136487E+00 Eh
 * total energy  :  -370.8006039 Eh     change       -0.1075805E+00 Eh
 * total energy  :  -370.8500434 Eh     change       -0.4943953E-01 Eh
 * total energy  :  -370.9006472 Eh     change       -0.5060377E-01 Eh
 * total energy  :  -370.9571819 Eh     change       -0.5653470E-01 Eh
 * total energy  :  -370.9997734 Eh     change       -0.4259144E-01 Eh
 * total energy  :  -371.0285517 Eh     change       -0.2877830E-01 Eh
 * total energy  :  -371.0561515 Eh     change       -0.2759983E-01 Eh
 * total energy  :  -371.0794025 Eh     change       -0.2325101E-01 Eh
 * total energy  :  -371.2427018 Eh     change       -0.3017348E-04 Eh
 * total energy  :  -371.2426866 Eh     change        0.1521984E-04 Eh
 * total energy  :  -371.2427172 Eh     change       -0.3061395E-04 Eh
 * total energy  :  -371.2427254 Eh     change       -0.8193426E-05 Eh
 * total energy  :  -371.2427308 Eh     change       -0.5350310E-05 Eh
 * total energy  :  -371.2427360 Eh     change       -0.5277595E-05 Eh
 * total energy  :  -371.2427386 Eh     change       -0.2600527E-05 Eh
 * total energy  :  -371.2427438 Eh     change       -0.5196606E-05 Eh
 * total energy  :  -371.2427464 Eh     change       -0.2522658E-05 Eh
   *** GEOMETRY OPTIMIZATION CONVERGED AFTER 82 ITERATIONS ***

 final structure:
================
194
 xtb: 6.5.1 (b24c23e)
C           26.67132901035096       -0.10063965326351       -0.07944670932797
C           27.28784532100889       -1.30717089948566        0.22493353066426
C           26.64526588551203       -2.55297733356128        0.47147861434197
C           27.61166921036991       -3.47673771504733        0.75228024259785
C           28.87571006605595       -2.82189764435023        0.69601626512430
N           28.63044653719802       -1.52084124078087        0.36322524340526
C           30.14219964253264       -3.37983604592600        0.90778693568309
C           30.18083995837901       -4.81061163092183        1.28902411712330
C           30.85081843161585       -5.73752200906889        0.48423792224438
C           30.88315302191509       -7.07591219261774        0.83031796730103
C           30.24346038361400       -7.49192992563984        1.99461221992852
N           30.27252896410524       -8.89645006507911        2.36196498709405
O           30.87090603218195       -9.65004965478863        1.63773206088313
O           29.69492216591189       -9.22184427363804        3.36749302254641
C           29.57444035929002       -6.58518469806325        2.81184088980166
C           29.54397223085352       -5.24972527829060        2.45400555948348
C           31.35441200954777       -2.69504481180844        0.78401111904375
C           32.65163192508167       -3.28194290519785        1.07012010960623
C           33.56708235484968       -2.32205052768421        0.82533751961904
N           31.50222337516962       -1.39759123832849        0.40112569569432
C           32.82753353707829       -1.14814949304474        0.40304347643936
C           33.45961199800369        0.05869619121605        0.04055171125066
C           32.81745325486195        1.25826265101635       -0.32109368593613
C           33.45536181949802        2.47028278903284       -0.69566509165656
C           32.48348256827551        3.39971513836583       -0.94283597159370
C           31.22075784402094        2.78367339719799       -0.71900775782410
N           31.47422669626859        1.48832415201416       -0.35521019206256
C           29.95364441881550        3.35909912016579       -0.87104581458740
C           29.91263043955580        4.79266500382778       -1.23808573511532
C           29.28395383418136        5.20257519292621       -2.41840523451395
C           29.24186722752861        6.54043365040527       -2.76523189155144
C           29.82999503301015        7.47949740947588       -1.92244300795832
N           29.78650631925474        8.88588019914640       -2.28017255785107
O           29.22200883176577        9.18459286555034       -3.30129189376873
O           30.31887179941067        9.66770791696515       -1.53438040487586
C           30.45951197958727        7.09320786914989       -0.74244188602819
C           30.50031243809685        5.75227138127040       -0.40736788944360
C           28.73921762098421        2.68326660508240       -0.70502621166274
C           27.42972528280372        3.30867036592764       -0.81635062541186
C           26.52267216448271        2.33577317441830       -0.59952874970644
C           27.27620215786003        1.12112493896676       -0.34102265887946
N           28.60770294628060        1.37100703042066       -0.40183525832081
H           25.58674962139452       -0.12388483402920       -0.10979733652980
H           25.57940073517983       -2.71007629503725        0.43003874110472
H           27.46759727993376       -4.52260717633360        0.96947420802818
H           29.35022897334918       -0.81745559407245        0.23525208775594
H           31.33291729410375       -5.40333088320315       -0.42696784460504
H           31.39377284729905       -7.80213293520287        0.20942158503149
H           29.08927163782748       -6.93334833445956        3.71575218620250
H           29.03836879599179       -4.53233393649054        3.08987548345960
H           32.81743659138638       -4.28629574286886        1.42445949426802
H           34.63942309343670       -2.37462036690285        0.92328048792479
H           34.52259552213002        2.60342506965861       -0.76842298193678
H           32.62627537052047        4.41850779873061       -1.26397460274022
H           30.75565365386462        0.80182364701683       -0.15007634724048
H           28.84229566118328        4.46084600591699       -3.07353161798612
H           28.76237564307782        6.86624004928795       -3.68044802092368
H           30.90539085402631        7.84386402872439       -0.10104411994952
H           30.97388192113334        5.44145387066821        0.51664138845563
H           27.25283727430544        4.35274924281399       -1.01810044106742
H           25.44629998882519        2.40406667587620       -0.59730224177440
C           65.46455385199489        0.04063251487826       -0.12160581974578
C           64.85227875554146        1.23342335953487       -0.48322971086702
C           65.49967675081074        2.42686225991888       -0.91023530210072
C           64.53662708706744        3.36574675859407       -1.14912265005239
C           63.26980255598279        2.77819247619074       -0.86663315310256
N           63.51025846680137        1.49104709985395       -0.48055263948764
C           62.00528038167884        3.36792985124480       -0.98214001061501
C           61.97372597751268        4.79163724620628       -1.38995246834404
C           61.31681288682647        5.17774985704909       -2.56249427794521
C           61.29095790425517        6.50507106722555       -2.94966638337232
C           61.92405127440100        7.45680248232986       -2.15516474546016
N           61.90073505378621        8.85198038274909       -2.55697528494795
O           61.31468997015003        9.13049530840089       -3.57152570262425
O           62.47037108333007        9.64486736606782       -1.85160713032348
C           62.58082478942447        7.09417928417975       -0.98264592841331
C           62.60489120634222        5.76351983761940       -0.60712828264214
C           60.78991645527181        2.72012654664085       -0.74361467139035
C           59.49388184143628        3.37129481011485       -0.81740104095245
C           58.57511419538346        2.42621515488984       -0.53106094693926
N           60.63781259120633        1.41402716768553       -0.39316687466909
C           59.31136358975315        1.20445525933516       -0.26912082379008
C           58.67591859300130       -0.00913932839448        0.06317186494379
C           59.31409024145198       -1.22027029274538        0.39183892248165
C           58.67150905427217       -2.44539313131423        0.71203934640869
C           59.64002729134469       -3.37222024587251        0.98093814125464
C           60.90541771335055       -2.73730841135955        0.84031951734710
N           60.65666809931702       -1.44129942732351        0.47541815049011
C           62.17042958720570       -3.31517288970474        0.99983094178872
C           62.20675890884518       -4.73219410822531        1.42693930870707
C           62.82256538468923       -5.69660192309692        0.62251368932694
C           62.85949638795708       -7.02166640362862        1.01589103457509
C           62.27929006328048       -7.38695457796881        2.22747335486907
N           62.31683855731531       -8.77652027376484        2.64648627954881
O           62.86872149108184       -9.56332351442703        1.92054199571974
O           61.79254482051750       -9.05753899625016        3.69382144929335
C           61.66309713246451       -6.44283209296877        3.04407609413271
C           61.62728517321293       -5.12118260984219        2.63899983213577
C           63.38712200883620       -2.65774943900129        0.78412015716647
C           64.69458068095298       -3.25723610224822        1.00645763682610
C           65.60496870909172       -2.31618128940898        0.68725919356317
C           64.85554530732959       -1.13892403387265        0.28422652369320
N           63.52318203395832       -1.37827632637371        0.36504791370337
H           66.54917393985659        0.04139488062190       -0.15866188521183
H           66.56634304859980        2.53762496535884       -1.02167580028379
H           64.68466212413479        4.37395616858315       -1.50037324010073
H           62.78777571495425        0.82403575651905       -0.23088773248352
H           60.83972311158217        4.42561423830759       -3.17979606572638
H           60.79016567426019        6.81269544258089       -3.85973783873771
H           63.06149321117076        7.85459017457029       -0.37899687538571
H           63.10091202053361        5.47103161746528        0.31105149912556
H           59.33074503362107        4.41256356057485       -1.04300589544723
H           57.50245715417452        2.52338884804226       -0.48366515504223
H           57.60354879713953       -2.59114299200375        0.72670645675408
H           59.49309208760447       -4.40767097536313        1.24111527391991
H           61.37789998853887       -0.75315262205102        0.28571433652612
H           63.25812615389211       -5.40241992678818       -0.32520531984096
H           63.32882186049086       -7.77628368858217        0.39623782495983
H           61.22336797731755       -6.75167105712651        3.98479010864977
H           61.16405782652125       -4.37485400945809        3.27387525743719
H           64.86793036674962       -4.25655328776856        1.37171637092830
H           66.68117896416122       -2.37853609798568        0.72086947256631
C           38.66191943779733        0.07935990876560       -0.01469117926221
C           37.43351259265285        0.08998090520931        0.00399713823904
C           36.08936801938006        0.09187468941690        0.02099611117091
C           34.86541821905483        0.07793732099879        0.03536273529318
C           40.00573932652861        0.06037926372648       -0.03427753312727
C           41.22961392468316        0.03442054680412       -0.05189045553647
C           54.70169050877183       -0.05657675759527        0.05201340138115
C           53.47332582474765       -0.06754627125186        0.03428913931054
C           52.12930625552675       -0.07621981457877        0.01166013290233
C           50.90537168956673       -0.08028990599789       -0.01495416138144
C           56.04595812697650       -0.04288056684582        0.06453032185607
C           57.26986384178127       -0.02523213883373        0.07048366986968
C           42.63415635673001        0.00474384778221       -0.06708589072160
C           43.27569200838681        0.99382067056487       -0.83743941709456
C           42.64227914331799        2.01942432085676       -1.58558394471195
C           43.61733847370947        2.74703823512085       -2.21112988763890
C           44.87528150484272        2.18062158844464       -1.86721835020388
N           44.61858715348254        1.13106152760381       -1.02727464286224
C           46.14247743116535        2.61783182095269       -2.27419028747931
C           46.17025369677104        3.75391474977813       -3.22572885077071
C           46.79612302822138        4.95457460370763       -2.87667921114046
C           46.82309729704387        6.01664344482213       -3.76202125089041
C           46.22278731891763        5.87580705268545       -5.01000040065253
N           46.24942266583848        6.98717797517115       -5.94455971522783
O           45.71146012687976        6.83165770791116       -7.01081091098883
O           46.80711880139440        7.99578877622350       -5.59567371866840
C           45.59623465957852        4.68854595592768       -5.37791546015556
C           45.57018752713101        3.63447205870955       -4.48312063128471
C           47.36278247992954        2.07803379095984       -1.86236679925879
C           48.65483111747128        2.53157327293745       -2.34698635789788
C           49.58315854415165        1.78303816398438       -1.71692819033414
N           47.52699227423288        1.05734388660643       -0.97727516812234
C           48.85691700627070        0.86501503434205       -0.86165269164174
C           49.50046460873406       -0.08141713078133       -0.03938798147051
C           48.85935853100530       -1.04298982861979        0.76529069131251
C           49.49362177363720       -1.99280418899526        1.60704273399315
C           48.51843241360433       -2.74817224214409        2.19842689124024
C           47.25940670458075       -2.28497001579355        1.72736234203092
N           47.51591855833244       -1.24814531752428        0.87160438974063
C           45.99164114734571       -2.76286850460529        2.08330034654920
C           45.96168045755641       -3.91987960899598        3.00916041367257
C           46.55034648508386       -5.13426773792365        2.64329086095896
C           46.52318850668329       -6.21643186011345        3.50401980602540
C           45.90697532894851       -6.08162584659323        4.74483313423122
N           45.88054676696047       -7.21318679147900        5.65485049990977
O           45.33272196104515       -7.06196877639244        6.71658102463771
O           46.40961220373039       -8.23245906231821        5.29230378552696
C           45.31706304608204       -4.88086983364246        5.12935255852715
C           45.34499426948383       -3.80659204486121        4.25905844562516
C           44.77149443156117       -2.24236927903154        1.64672638175477
C           43.47893742626762       -2.80482142894756        1.99715211623280
C           42.55071932610279       -2.03014819083423        1.39932107542140
C           43.27743479131375       -1.00535200276105        0.67592268055340
N           44.60760521435150       -1.16457028638905        0.83219319936150
H           41.57673665345595        2.17591404728491       -1.63105559908527
H           43.47882733371100        3.60709198389912       -2.84558158671168
H           45.33086931578166        0.54460084501602       -0.60539309453580
H           47.24889217456287        5.05583309592903       -1.89732626362076
H           47.30052564315491        6.95271888761481       -3.49839339213422
H           45.14043548948077        4.60262545071333       -6.35697201846894
H           45.09716191098239        2.70039864692122       -4.76314135267446
H           48.80945645106674        3.30696798019570       -3.07945717023142
H           50.65635975902197        1.82060071461989       -1.81228856227002
H           50.55982428212890       -2.07737060129280        1.74116466461048
H           48.65776930118908       -3.54805421764608        2.90705949848281
H           46.80314133369406       -0.70777214733236        0.39285237191502
H           47.01538781061378       -5.23106588512830        1.66912535825095
H           46.97053608469902       -7.16329956545726        3.22650109634058
H           44.84715696075325       -4.80066033171867        6.10219274795928
H           44.90041914817398       -2.86251568765894        4.55144238747612
H           43.32402471882861       -3.68131669708089        2.60496558773117
H           41.47723147410310       -2.12693496883256        1.42176300643488

          :  Hamiltonian                  GFN1-xTB          :
         :: total energy            -371.242746361829 Eh    ::
         :: gradient norm              0.000386067711 Eh/a0 ::
         :: HOMO-LUMO gap              0.894052238245 eV    ::
         :: SCC energy              -376.717428644853 Eh    ::
         :: repulsion energy           5.639673689695 Eh    ::

    * Orbital Energies and Occupations

         #    Occupation            Energy/Eh            Energy/eV
      -------------------------------------------------------------
         1        2.0000           -0.9242225             -25.1494
       ...           ...                  ...                  ...
       313        2.0000           -0.4410274             -12.0010
       314        2.0000           -0.4409440             -11.9987
       315        2.0000           -0.4397579             -11.9664
       316        2.0000           -0.4395232             -11.9600
       317        2.0000           -0.4380879             -11.9210
       318        2.0000           -0.4370215             -11.8920
       319        2.0000           -0.4364385             -11.8761
       320        2.0000           -0.4251770             -11.5697
       321        2.0000           -0.4235641             -11.5258
       322        2.0000           -0.4234867             -11.5237
       323        2.0000           -0.4138452             -11.2613
       324        2.0000           -0.4085589             -11.1175
       325        2.0000           -0.4022250             -10.9451 (HOMO)
       326                         -0.3693692             -10.0510 (LUMO)
       327                         -0.3625084              -9.8644
       328                         -0.3620328              -9.8514
       329                         -0.3612386              -9.8298
       330                         -0.3593333              -9.7780
       331                         -0.3544706              -9.6456
       332                         -0.3513155              -9.5598
       333                         -0.3504490              -9.5362
       334                         -0.3504131              -9.5352
       335                         -0.3459051              -9.4126
       336                         -0.3447557              -9.3813
       ...                                ...                  ...
       664                          1.5556047              42.3302
      -------------------------------------------------------------
                  HL-Gap            0.0328558 Eh            0.8941 eV

Wiberg/Mayer (AO) data.
largest (>0.10) Wiberg bond orders for each atom

     #   Z sym  total        # sym  WBO       # sym  WBO       # sym  WBO
 ---------------------------------------------------------------------------
     1   6 C    3.927 --    41 C    1.368     2 C    1.347    43 H    0.970
     2   6 C    3.900 --     1 C    1.347     3 C    1.228     6 N    1.169
     3   6 C    3.954 --     4 C    1.597     2 C    1.228    44 H    0.976
     4   6 C    3.958 --     3 C    1.597     5 C    1.232    45 H    0.974
     5   6 C    3.897 --     7 C    1.300     4 C    1.232     6 N    1.181
     6   7 N    3.471 --     5 C    1.181     2 C    1.169    46 H    0.873
     7   6 C    3.936 --    17 C    1.331     5 C    1.300     8 C    1.036
     8   6 C    3.984 --    16 C    1.383     9 C    1.382     7 C    1.036
     9   6 C    3.987 --    10 C    1.464     8 C    1.382    47 H    0.971
                            15 C    0.101
    10   6 C    3.987 --     9 C    1.464    11 C    1.386    48 H    0.965
                            16 C    0.101
    11   6 C    3.940 --    15 C    1.387    10 C    1.386    12 N    0.921
    12   7 N    3.865 --    13 O    1.454    14 O    1.454    11 C    0.921
    13   8 O    1.828 --    12 N    1.454    14 O    0.251
    14   8 O    1.828 --    12 N    1.454    13 O    0.251
    15   6 C    3.987 --    16 C    1.464    11 C    1.387    49 H    0.965
                             9 C    0.101
    16   6 C    3.986 --    15 C    1.464     8 C    1.383    50 H    0.971
                            10 C    0.101
    17   6 C    3.913 --     7 C    1.331    20 N    1.288    18 C    1.123
    18   6 C    3.965 --    19 C    1.712    17 C    1.123    51 H    0.973
    19   6 C    3.963 --    18 C    1.712    21 C    1.127    52 H    0.974
    20   7 N    3.021 --    21 C    1.342    17 C    1.288
    21   6 C    3.906 --    20 N    1.342    22 C    1.255    19 C    1.127
    22   6 C    3.938 --    21 C    1.255    23 C    1.252   126 C    1.191
    23   6 C    3.883 --    22 C    1.252    24 C    1.248    27 N    1.188
    24   6 C    3.959 --    25 C    1.584    23 C    1.248    53 H    0.974
    25   6 C    3.954 --    24 C    1.584    26 C    1.240    54 H    0.974
    26   6 C    3.898 --    28 C    1.305    25 C    1.240    27 N    1.169
    27   7 N    3.475 --    23 C    1.188    26 C    1.169    55 H    0.872
    28   6 C    3.922 --    38 C    1.317    26 C    1.305    29 C    1.038
    29   6 C    3.984 --    37 C    1.382    30 C    1.381    28 C    1.038
    30   6 C    3.985 --    31 C    1.465    29 C    1.381    56 H    0.971
                            36 C    0.101
    31   6 C    3.987 --    30 C    1.465    32 C    1.386    57 H    0.965
                            37 C    0.101
    32   6 C    3.939 --    36 C    1.386    31 C    1.386    33 N    0.922
    33   7 N    3.865 --    34 O    1.454    35 O    1.453    32 C    0.922
    34   8 O    1.828 --    33 N    1.454    35 O    0.251
    35   8 O    1.828 --    33 N    1.453    34 O    0.251
    36   6 C    3.987 --    37 C    1.465    32 C    1.386    58 H    0.965
                            30 C    0.101
    37   6 C    3.985 --    36 C    1.465    29 C    1.382    59 H    0.971
                            31 C    0.101
    38   6 C    3.929 --    42 N    1.320    28 C    1.317    39 C    1.115
    39   6 C    3.967 --    40 C    1.725    38 C    1.115    60 H    0.973
    40   6 C    3.966 --    39 C    1.725    41 C    1.115    61 H    0.975
    41   6 C    3.926 --     1 C    1.368    42 N    1.298    40 C    1.115
    42   7 N    3.012 --    38 C    1.320    41 C    1.298
    43   1 H    1.001 --     1 C    0.970
    44   1 H    0.997 --     3 C    0.976
    45   1 H    1.003 --     4 C    0.974
    46   1 H    0.985 --     6 N    0.873
    47   1 H    1.004 --     9 C    0.971
    48   1 H    1.006 --    10 C    0.965
    49   1 H    1.006 --    15 C    0.965
    50   1 H    1.003 --    16 C    0.971
    51   1 H    1.003 --    18 C    0.973
    52   1 H    1.002 --    19 C    0.974
    53   1 H    1.001 --    24 C    0.974
    54   1 H    1.003 --    25 C    0.974
    55   1 H    0.986 --    27 N    0.872
    56   1 H    1.004 --    30 C    0.971
    57   1 H    1.006 --    31 C    0.965
    58   1 H    1.006 --    36 C    0.965
    59   1 H    1.003 --    37 C    0.971
    60   1 H    1.004 --    39 C    0.973
    61   1 H    0.997 --    40 C    0.975
    62   6 C    3.927 --   102 C    1.368    63 C    1.347   104 H    0.970
    63   6 C    3.900 --    62 C    1.347    64 C    1.228    67 N    1.169
    64   6 C    3.954 --    65 C    1.598    63 C    1.228   105 H    0.976
    65   6 C    3.958 --    64 C    1.598    66 C    1.232   106 H    0.974
    66   6 C    3.897 --    68 C    1.300    65 C    1.232    67 N    1.181
    67   7 N    3.471 --    66 C    1.181    63 C    1.169   107 H    0.873
    68   6 C    3.936 --    78 C    1.331    66 C    1.300    69 C    1.036
    69   6 C    3.984 --    77 C    1.383    70 C    1.383    68 C    1.036
    70   6 C    3.987 --    71 C    1.464    69 C    1.383   108 H    0.971
                            76 C    0.101
    71   6 C    3.987 --    70 C    1.464    72 C    1.387   109 H    0.965
                            77 C    0.101
    72   6 C    3.940 --    76 C    1.387    71 C    1.387    73 N    0.921
    73   7 N    3.865 --    74 O    1.454    75 O    1.454    72 C    0.921
    74   8 O    1.829 --    73 N    1.454    75 O    0.251
    75   8 O    1.828 --    73 N    1.454    74 O    0.251
    76   6 C    3.987 --    77 C    1.464    72 C    1.387   110 H    0.965
                            70 C    0.101
    77   6 C    3.986 --    76 C    1.464    69 C    1.383   111 H    0.971
                            71 C    0.101
    78   6 C    3.913 --    68 C    1.331    81 N    1.289    79 C    1.123
    79   6 C    3.965 --    80 C    1.712    78 C    1.123   112 H    0.973
    80   6 C    3.963 --    79 C    1.712    82 C    1.127   113 H    0.974
    81   7 N    3.021 --    82 C    1.342    78 C    1.289
    82   6 C    3.906 --    81 N    1.342    83 C    1.256    80 C    1.127
    83   6 C    3.938 --    82 C    1.256    84 C    1.252   134 C    1.190
    84   6 C    3.883 --    83 C    1.252    85 C    1.248    88 N    1.188
    85   6 C    3.959 --    86 C    1.584    84 C    1.248   114 H    0.974
    86   6 C    3.954 --    85 C    1.584    87 C    1.239   115 H    0.974
    87   6 C    3.898 --    89 C    1.305    86 C    1.239    88 N    1.169
    88   7 N    3.475 --    84 C    1.188    87 C    1.169   116 H    0.872
    89   6 C    3.922 --    99 C    1.317    87 C    1.305    90 C    1.038
    90   6 C    3.984 --    98 C    1.382    91 C    1.381    89 C    1.038
    91   6 C    3.985 --    92 C    1.465    90 C    1.381   117 H    0.971
                            97 C    0.101
    92   6 C    3.987 --    91 C    1.465    93 C    1.386   118 H    0.965
                            98 C    0.101
    93   6 C    3.939 --    97 C    1.386    92 C    1.386    94 N    0.922
    94   7 N    3.865 --    95 O    1.454    96 O    1.453    93 C    0.922
    95   8 O    1.828 --    94 N    1.454    96 O    0.251
    96   8 O    1.828 --    94 N    1.453    95 O    0.251
    97   6 C    3.987 --    98 C    1.465    93 C    1.386   119 H    0.965
                            91 C    0.101
    98   6 C    3.985 --    97 C    1.465    90 C    1.382   120 H    0.971
                            92 C    0.101
    99   6 C    3.929 --   103 N    1.320    89 C    1.317   100 C    1.115
   100   6 C    3.967 --   101 C    1.725    99 C    1.115   121 H    0.973
   101   6 C    3.966 --   100 C    1.725   102 C    1.115   122 H    0.975
   102   6 C    3.926 --    62 C    1.368   103 N    1.298   101 C    1.115
   103   7 N    3.012 --    99 C    1.320   102 C    1.298
   104   1 H    1.001 --    62 C    0.970
   105   1 H    0.997 --    64 C    0.976
   106   1 H    1.003 --    65 C    0.974
   107   1 H    0.985 --    67 N    0.873
   108   1 H    1.004 --    70 C    0.971
   109   1 H    1.006 --    71 C    0.965
   110   1 H    1.006 --    76 C    0.965
   111   1 H    1.003 --    77 C    0.971
   112   1 H    1.003 --    79 C    0.973
   113   1 H    1.002 --    80 C    0.974
   114   1 H    1.001 --    85 C    0.974
   115   1 H    1.003 --    86 C    0.974
   116   1 H    0.986 --    88 N    0.872
   117   1 H    1.004 --    91 C    0.971
   118   1 H    1.006 --    92 C    0.965
   119   1 H    1.006 --    97 C    0.965
   120   1 H    1.003 --    98 C    0.971
   121   1 H    1.004 --   100 C    0.973
   122   1 H    0.997 --   101 C    0.975
   123   6 C    3.925 --   124 C    2.366   127 C    1.337   126 C    0.190
   124   6 C    3.923 --   123 C    2.366   125 C    1.336   128 C    0.190
   125   6 C    3.932 --   126 C    2.448   124 C    1.336
   126   6 C    3.890 --   125 C    2.448    22 C    1.191   123 C    0.190
   127   6 C    3.929 --   128 C    2.445   123 C    1.337
   128   6 C    3.891 --   127 C    2.445   135 C    1.194   124 C    0.190
   129   6 C    3.923 --   130 C    2.367   133 C    1.335   132 C    0.190
   130   6 C    3.925 --   129 C    2.367   131 C    1.336   134 C    0.190
   131   6 C    3.929 --   132 C    2.446   130 C    1.336
   132   6 C    3.891 --   131 C    2.446   156 C    1.193   129 C    0.190
   133   6 C    3.932 --   134 C    2.449   129 C    1.335
   134   6 C    3.890 --   133 C    2.449    83 C    1.190   130 C    0.190
   135   6 C    3.926 --   175 C    1.255   136 C    1.248   128 C    1.194
   136   6 C    3.883 --   137 C    1.253   135 C    1.248   140 N    1.188
   137   6 C    3.955 --   138 C    1.578   136 C    1.253   177 H    0.974
   138   6 C    3.954 --   137 C    1.578   139 C    1.245   178 H    0.974
   139   6 C    3.894 --   141 C    1.297   138 C    1.245   140 N    1.169
   140   7 N    3.472 --   136 C    1.188   139 C    1.169   179 H    0.873
   141   6 C    3.925 --   151 C    1.335   139 C    1.297   142 C    1.034
   142   6 C    3.984 --   150 C    1.383   143 C    1.383   141 C    1.034
   143   6 C    3.986 --   144 C    1.464   142 C    1.383   180 H    0.971
                           149 C    0.102
   144   6 C    3.987 --   143 C    1.464   145 C    1.387   181 H    0.964
                           150 C    0.101
   145   6 C    3.941 --   149 C    1.387   144 C    1.387   146 N    0.921
   146   7 N    3.865 --   148 O    1.455   147 O    1.454   145 C    0.921
   147   8 O    1.829 --   146 N    1.454   148 O    0.252
   148   8 O    1.829 --   146 N    1.455   147 O    0.252
   149   6 C    3.987 --   150 C    1.464   145 C    1.387   182 H    0.965
                           143 C    0.102
   150   6 C    3.986 --   149 C    1.464   142 C    1.383   183 H    0.971
                           144 C    0.101
   151   6 C    3.916 --   141 C    1.335   154 N    1.286   152 C    1.123
   152   6 C    3.966 --   153 C    1.712   151 C    1.123   184 H    0.973
   153   6 C    3.963 --   152 C    1.712   155 C    1.127   185 H    0.974
   154   7 N    3.009 --   155 C    1.342   151 C    1.286
   155   6 C    3.906 --   154 N    1.342   156 C    1.255   153 C    1.127
   156   6 C    3.926 --   155 C    1.255   157 C    1.248   132 C    1.193
   157   6 C    3.884 --   158 C    1.252   156 C    1.248   161 N    1.188
   158   6 C    3.955 --   159 C    1.578   157 C    1.252   186 H    0.974
   159   6 C    3.955 --   158 C    1.578   160 C    1.244   187 H    0.974
   160   6 C    3.894 --   162 C    1.297   159 C    1.244   161 N    1.169
   161   7 N    3.472 --   157 C    1.188   160 C    1.169   188 H    0.873
   162   6 C    3.925 --   172 C    1.335   160 C    1.297   163 C    1.034
   163   6 C    3.984 --   164 C    1.384   171 C    1.383   162 C    1.034
   164   6 C    3.986 --   165 C    1.463   163 C    1.384   189 H    0.971
                           170 C    0.101
   165   6 C    3.987 --   164 C    1.463   166 C    1.387   190 H    0.964
                           171 C    0.102
   166   6 C    3.941 --   165 C    1.387   170 C    1.387   167 N    0.921
   167   7 N    3.865 --   168 O    1.454   169 O    1.454   166 C    0.921
   168   8 O    1.829 --   167 N    1.454   169 O    0.252
   169   8 O    1.829 --   167 N    1.454   168 O    0.252
   170   6 C    3.987 --   171 C    1.464   166 C    1.387   191 H    0.964
                           164 C    0.101
   171   6 C    3.986 --   170 C    1.464   163 C    1.383   192 H    0.971
                           165 C    0.102
   172   6 C    3.916 --   162 C    1.335   176 N    1.286   173 C    1.123
   173   6 C    3.966 --   174 C    1.711   172 C    1.123   193 H    0.973
   174   6 C    3.963 --   173 C    1.711   175 C    1.128   194 H    0.974
   175   6 C    3.906 --   176 N    1.342   135 C    1.255   174 C    1.128
   176   7 N    3.009 --   175 C    1.342   172 C    1.286
   177   1 H    1.001 --   137 C    0.974
   178   1 H    1.003 --   138 C    0.974
   179   1 H    0.986 --   140 N    0.873
   180   1 H    1.003 --   143 C    0.971
   181   1 H    1.006 --   144 C    0.964
   182   1 H    1.006 --   149 C    0.965
   183   1 H    1.003 --   150 C    0.971
   184   1 H    1.004 --   152 C    0.973
   185   1 H    1.002 --   153 C    0.974
   186   1 H    1.001 --   158 C    0.974
   187   1 H    1.003 --   159 C    0.974
   188   1 H    0.986 --   161 N    0.873
   189   1 H    1.003 --   164 C    0.971
   190   1 H    1.006 --   165 C    0.964
   191   1 H    1.006 --   170 C    0.964
   192   1 H    1.003 --   171 C    0.971
   193   1 H    1.003 --   173 C    0.973
   194   1 H    1.002 --   174 C    0.974
 ---------------------------------------------------------------------------

           -------------------------------------------------
          | TOTAL ENERGY             -371.242746361829 Eh   |
          | GRADIENT NORM               0.000386067711 Eh/α |
          | HOMO-LUMO GAP               0.894052238245 eV   |
           -------------------------------------------------

 * finished run on 2022/07/30 at 09:19:33.653
