   * xtb version 6.5.1 (b24c23e) compiled by 'conda@728c89f4b128' on 2022-07-12
          program call               : xtb Co_p-CP_C4_2.xyz --gfn 1 --opt -T 48

   ID    Z sym.   atoms
    1   27 Co     1, 63
    2    6 C      2-6, 8-11, 13-24, 27-32, 35-39, 42, 43, 64-68, 70-73,
                  75-86, 89-94, 97-101, 104, 105, 125-128
    3    7 N      7, 12, 33, 34, 69, 74, 95, 96
    4    8 O      25, 26, 40, 41, 87, 88, 102, 103
    5    1 H      44-62, 106-124
########################################################################
[WARNING] Please study the warnings concerning your input carefully
-1- prog_main_parseArguments: Unknown option '-T' provided
########################################################################

          :  Hamiltonian                  GFN1-xTB          :
 * total energy  :  -242.5081766 Eh     change       -0.2610420E-08 Eh
 * total energy  :  -242.6573302 Eh     change       -0.1491536E+00 Eh
 * total energy  :  -242.7166966 Eh     change       -0.5936645E-01 Eh
 * total energy  :  -242.7459586 Eh     change       -0.2926197E-01 Eh
 * total energy  :  -242.7632500 Eh     change       -0.1729140E-01 Eh
 * total energy  :  -242.7745069 Eh     change       -0.1125694E-01 Eh
 * total energy  :  -242.7851295 Eh     change       -0.1062262E-01 Eh
 * total energy  :  -242.7926496 Eh     change       -0.7520122E-02 Eh
 * total energy  :  -242.7996735 Eh     change       -0.7023821E-02 Eh
 * total energy  :  -242.8045306 Eh     change       -0.4857158E-02 Eh
 * total energy  :  -242.8153088 Eh     change       -0.9643878E-05 Eh
 * total energy  :  -242.8153251 Eh     change       -0.1625334E-04 Eh
 * total energy  :  -242.8153362 Eh     change       -0.1111633E-04 Eh
 * total energy  :  -242.8153457 Eh     change       -0.9475618E-05 Eh
 * total energy  :  -242.8153568 Eh     change       -0.1109426E-04 Eh
 * total energy  :  -242.8153674 Eh     change       -0.1065079E-04 Eh
 * total energy  :  -242.8153757 Eh     change       -0.8235730E-05 Eh
 * total energy  :  -242.8153837 Eh     change       -0.8046584E-05 Eh
 * total energy  :  -242.8153868 Eh     change       -0.3109166E-05 Eh
   *** GEOMETRY OPTIMIZATION CONVERGED AFTER 44 ITERATIONS ***

 final structure:
================
128
 xtb: 6.5.1 (b24c23e)
Co          17.74828856136611       -0.10468304661554        0.03882831493423
C           14.37304391767976       -0.19859281396065        0.06228619879927
C           15.04435890623346       -0.47356043806820        1.23383158700303
C           14.38909544783647       -0.79601601568244        2.46473748904710
C           15.34299630636411       -0.79062688571968        3.42452179538183
C           16.58300403535162       -0.47808005737503        2.77579533386985
N           16.39471293498444       -0.32223024484875        1.42635186017138
C           17.76782606758215       -0.21403590635703        3.44966430877250
C           18.94718569078427        0.07677704464024        2.78200598409167
C           20.20003569805580        0.29757612049756        3.44011532085634
C           21.14900868521584        0.32585519604553        2.47463102147865
N           19.12482950938192        0.01714887401827        1.41779862724841
C           20.47440129339507        0.12514204927053        1.23137891438907
C           21.14334554641075       -0.04278347183022        0.01695866440083
C           20.45872549027722       -0.20076369098423       -1.18998566935548
C           21.11446333122270       -0.39776817185050       -2.44360607198750
C           20.15373594119710       -0.34177773716731       -3.39701874582264
C           18.91471444341931       -0.10233389285273       -2.72055711472621
C           17.71316663772276        0.14966396504570       -3.36638547282279
C           17.69698701682629        0.23785874846769       -4.84351662949468
C           16.90981179271192       -0.63959579427382       -5.59447360613765
C           16.89956112533097       -0.56082042738704       -6.97472248345890
C           17.67212591649625        0.39966873139128       -7.63038237021822
C           17.62505055943810        0.44656596323229       -9.11165511349532
O           18.40219128387846        1.40192470100576       -9.64350699536257
O           16.96180544533193       -0.29178791388561       -9.79446173577375
C           18.45820015632283        1.27926044886097       -6.88541269970723
C           18.47091911215685        1.19545753286477       -5.50409144066891
C           16.52288443765188        0.30277744352914       -2.66819591777556
C           15.26149052309521        0.59420682213724       -3.28483377132599
C           14.31956365568077        0.48190097457783       -2.31954212588461
C           15.00836795962785        0.13974917103246       -1.11256749468890
N           16.36403302113666        0.09345852504269       -1.32195108232244
N           19.10848136833658       -0.07167392394001       -1.35874493896984
C           17.77396656875353       -0.25489516461875        4.93121776330174
C           17.55112244577711       -1.45764700668425        5.60565877890631
C           17.55642043548192       -1.49227063079641        6.98802427126014
C           17.78065150859430       -0.32487172027884        7.72016698903840
C           17.77253191989303       -0.41252010802340        9.20028873788150
O           18.00374595292655        0.76029446242972        9.80905634762811
O           17.58210751542132       -1.42775255224238        9.82010924349149
C           18.00312495215937        0.87848656864748        7.05028573281985
C           18.00153694990802        0.91037641207982        5.66650261233496
H           13.29017008367926       -0.23724532777670        0.06879400983866
H           13.33083734637834       -0.97765304598863        2.56399456629477
H           15.22730186602552       -0.96242307600888        4.48222698707256
H           20.32840060055918        0.38989563198914        4.50616209710223
H           22.21418361038497        0.45504889374793        2.57889201808603
H           22.17499438922746       -0.55077489538176       -2.56204985911527
H           20.26268369268042       -0.45448767227534       -4.46330297425464
H           16.31991732918969       -1.39511335750890       -5.08808047475351
H           16.29511324713808       -1.24198321976066       -7.56361065135493
H           18.31595647757906        1.36577355437936      -10.61000557296422
H           19.05728882072804        2.02795466357507       -7.39010123091431
H           19.07229285005870        1.88700575838540       -4.92486047377264
H           15.12832130589293        0.84771876145846       -4.32396402693149
H           13.25184026295321        0.61086110501057       -2.39753247405662
H           17.38873665361158       -2.36692836257696        5.03831184528380
H           17.38751111780438       -2.42255196014185        7.51919056982652
H           17.98272393147436        0.61742441037894       10.76928861514883
H           18.17570089886663        1.78713995790799        7.61485570355809
H           18.16330874163131        1.84717775481092        5.14537829421188
Co          31.14020871748617       -0.09964622179839       -0.05052242786132
C           34.51541960881836       -0.19139310247142       -0.08471852723224
C           33.84404429161783       -0.32855678191707       -1.28021760200070
C           34.49931027394197       -0.50651526612224       -2.54014763162215
C           33.54548161457772       -0.38976751931073       -3.49288512657964
C           32.30549080056614       -0.15417903068413       -2.81238553451233
N           32.49375847651588       -0.15546918091426       -1.45396735804779
C           31.12064962245173        0.18590458650027       -3.45125509948989
C           29.94125855477214        0.39748935753162       -2.75446151971973
C           28.68832493350550        0.69241233563672       -3.38269565709664
C           27.73937803402603        0.60883027289775       -2.42039414876520
N           29.76368121415284        0.18081749045114       -1.40623693465928
C           28.41407669512147        0.26613654481332       -1.20861945009892
C           27.74516746032178       -0.04072569205600       -0.02164780941755
C           28.42980497937510       -0.33644190759965        1.15912029307957
C           27.77404091874934       -0.67621204809117        2.38177507799694
C           28.73473894748727       -0.73008873341680        3.33533604647453
C           29.97376789051847       -0.41449546738142        2.69089734048870
C           31.17538971003766       -0.23892494096086        3.36142410197441
C           31.19148129765618       -0.32157409781755        4.83888300490683
C           31.97789694521828       -1.28038051170846        5.48366632587152
C           31.98784197395348       -1.36148066635024        6.86378062484760
C           31.21572688162502       -0.48258852263238        7.62579966883974
C           31.26234043170509       -0.60716684182607        9.10258713553066
O           30.48542311068116        0.28068248263351        9.74105125327658
O           31.92499209832064       -1.41982819905741        9.69568068091882
C           30.43048130027718        0.47770763150292        6.98721402241827
C           30.41806573457811        0.55394124147438        5.60544716341021
C           32.36578470179776       -0.00714841842947        2.68548603096839
C           33.62735796420104        0.21030846098519        3.33157833401159
C           34.56925447096661        0.20931002507677        2.35975041864354
C           33.88024777929133        0.00919476518035        1.12139316408919
N           32.52454443999024       -0.05995517172107        1.32406743542111
N           29.78002801606648       -0.22740325116156        1.34165380181278
C           31.11453183824951        0.31607491151466       -4.92763482133827
C           31.33861192787928       -0.80081000849218       -5.73605452215552
C           31.33403888269600       -0.67595197476521       -7.11319980379194
C           31.10864791951581        0.56775027898904       -7.70612152296560
C           31.11616089963209        0.65087864905627       -9.18650453292152
O           30.88414366247415        1.88585238125064       -9.65625327522288
O           31.31046908098092       -0.28551669272915       -9.91903271128985
C           30.88481113015117        1.68573445131829       -6.90218310178547
C           30.88602615828722        1.55805736975158       -5.52392436390116
H           35.59827336601104       -0.22961107650061       -0.09567312795354
H           35.55752586375375       -0.67572448867046       -2.65973304940665
H           33.66125904867376       -0.43794875574404       -4.56335728514636
H           28.55987916072845        0.90706731463255       -4.43097053650524
H           26.67416001773260        0.74887415974948       -2.50905096562673
H           26.71352605743557       -0.84193014368277        2.48181775145810
H           28.62576666266273       -0.96460291267581        4.38159654222062
H           32.56739761860485       -1.97280949659908        4.89354175693704
H           32.59165806607891       -2.10651018853745        7.37020429072307
H           30.57128477290883        0.13301553228970       10.69692097548654
H           29.83176650303114        1.16355018098000        7.57485631332311
H           29.81728887435527        1.30814129537297        5.10981881409565
H           33.76065551915738        0.34219818638080        4.39300668867695
H           35.63707452885676        0.32757391552599        2.45205441680734
H           31.50148138012764       -1.76927604186815       -5.27715344547657
H           31.50370660847335       -1.53877552778691       -7.74789727770519
H           30.90670397112929        1.85475407272447      -10.62651441273462
H           30.71143125813477        2.65318831088813       -7.35841927669346
H           30.72332452658590        2.42849866639958       -4.89846639294619
C           23.76960044476811       -0.04550071343565        0.00261204691048
C           22.54738774636459       -0.04626519609387        0.00838495632816
C           25.11893023243663       -0.04391629355750       -0.00721816445200
C           26.34112908846886       -0.04516150049510       -0.01345544621124

          :  Hamiltonian                  GFN1-xTB          :
         :: total energy            -242.815386810955 Eh    ::
         :: gradient norm              0.000710242498 Eh/a0 ::
         :: HOMO-LUMO gap              0.009000829529 eV    ::
         :: SCC energy              -246.320303295461 Eh    ::
         :: repulsion energy           3.617692638616 Eh    ::

    * Orbital Energies and Occupations

         #    Occupation            Energy/Eh            Energy/eV
      -------------------------------------------------------------
         1        2.0000           -0.8340487             -22.6956
       ...           ...                  ...                  ...
       204        2.0000           -0.4378606             -11.9148
       205        2.0000           -0.4358646             -11.8605
       206        2.0000           -0.4078108             -11.0971
       207        2.0000           -0.4070375             -11.0761
       208        2.0000           -0.4070267             -11.0758
       209        2.0000           -0.4059721             -11.0471
       210        2.0000           -0.4058485             -11.0437
       211        1.9998           -0.4025693             -10.9545
       212        1.9998           -0.4025656             -10.9544
       213        1.9998           -0.4024368             -10.9509
       214        1.9998           -0.4024332             -10.9508
       215        1.9099           -0.3966734             -10.7940
       216        1.1321           -0.3940250             -10.7220 (HOMO)
       217        0.9588           -0.3936943             -10.7130 (LUMO)
       218                         -0.3484469              -9.4817
       219                         -0.3398256              -9.2471
       220                         -0.3398137              -9.2468
       221                         -0.3352045              -9.1214
       222                         -0.3167668              -8.6197
       223                         -0.3153102              -8.5800
       224                         -0.3103249              -8.4444
       225                         -0.3103110              -8.4440
       226                         -0.3052914              -8.3074
       227                         -0.3051745              -8.3042
       ...                                ...                  ...
       446                          1.5054300              40.9648
      -------------------------------------------------------------
                  HL-Gap            0.0003308 Eh            0.0090 eV

Wiberg/Mayer (AO) data.
largest (>0.10) Wiberg bond orders for each atom

     #   Z sym  total        # sym  WBO       # sym  WBO       # sym  WBO
 ---------------------------------------------------------------------------
     1  27 Co   3.042 --    33 N    0.640     7 N    0.637    12 N    0.635
                            34 N    0.632
     2   6 C    3.930 --    32 C    1.365     3 C    1.365    44 H    0.970
     3   6 C    3.923 --     2 C    1.365     7 N    1.201     4 C    1.173
     4   6 C    3.960 --     5 C    1.651     3 C    1.173    45 H    0.975
     5   6 C    3.963 --     4 C    1.651     6 C    1.176    46 H    0.972
     6   6 C    3.919 --     8 C    1.318     7 N    1.214     5 C    1.176
     7   7 N    3.348 --     6 C    1.214     3 C    1.201     1 Co   0.637
     8   6 C    3.932 --     9 C    1.334     6 C    1.318    35 C    1.024
     9   6 C    3.916 --     8 C    1.334    12 N    1.193    10 C    1.180
    10   6 C    3.958 --    11 C    1.640     9 C    1.180    47 H    0.973
    11   6 C    3.962 --    10 C    1.640    13 C    1.189    48 H    0.973
    12   7 N    3.347 --    13 C    1.232     9 C    1.193     1 Co   0.635
    13   6 C    3.904 --    14 C    1.261    12 N    1.232    11 C    1.189
    14   6 C    3.934 --    15 C    1.261    13 C    1.261   126 C    1.187
    15   6 C    3.904 --    14 C    1.261    34 N    1.229    16 C    1.190
    16   6 C    3.961 --    17 C    1.636    15 C    1.190    49 H    0.973
    17   6 C    3.958 --    16 C    1.636    18 C    1.182    50 H    0.973
    18   6 C    3.916 --    19 C    1.327    34 N    1.196    17 C    1.182
    19   6 C    3.932 --    18 C    1.327    29 C    1.319    20 C    1.033
    20   6 C    3.986 --    28 C    1.385    21 C    1.383    19 C    1.033
    21   6 C    3.986 --    22 C    1.464    20 C    1.383    51 H    0.972
                            27 C    0.103
    22   6 C    3.990 --    21 C    1.464    23 C    1.385    52 H    0.968
                            28 C    0.102
    23   6 C    3.982 --    27 C    1.389    22 C    1.385    24 C    1.009
    24   6 C    3.836 --    26 O    1.690    25 O    1.088    23 C    1.009
    25   8 O    2.097 --    24 C    1.088    53 H    0.838    26 O    0.129
    26   8 O    1.958 --    24 C    1.690    25 O    0.129
    27   6 C    3.991 --    28 C    1.462    23 C    1.389    54 H    0.970
                            21 C    0.103
    28   6 C    3.987 --    27 C    1.462    20 C    1.385    55 H    0.972
                            22 C    0.102
    29   6 C    3.920 --    19 C    1.319    33 N    1.213    30 C    1.175
    30   6 C    3.963 --    31 C    1.650    29 C    1.175    56 H    0.973
    31   6 C    3.960 --    30 C    1.650    32 C    1.174    57 H    0.975
    32   6 C    3.923 --     2 C    1.365    33 N    1.201    31 C    1.174
    33   7 N    3.346 --    29 C    1.213    32 C    1.201     1 Co   0.640
    34   7 N    3.349 --    15 C    1.229    18 C    1.196     1 Co   0.632
    35   6 C    3.986 --    43 C    1.389    36 C    1.387     8 C    1.024
    36   6 C    3.987 --    37 C    1.463    35 C    1.387    58 H    0.972
                            42 C    0.103
    37   6 C    3.990 --    36 C    1.463    38 C    1.386    59 H    0.968
                            43 C    0.103
    38   6 C    3.984 --    42 C    1.389    37 C    1.386    39 C    1.009
    39   6 C    3.836 --    41 O    1.690    40 O    1.088    38 C    1.009
    40   8 O    2.097 --    39 C    1.088    60 H    0.838    41 O    0.129
    41   8 O    1.959 --    39 C    1.690    40 O    0.129
    42   6 C    3.991 --    43 C    1.460    38 C    1.389    61 H    0.970
                            36 C    0.103
    43   6 C    3.988 --    42 C    1.460    35 C    1.389    62 H    0.972
                            37 C    0.103
    44   1 H    1.000 --     2 C    0.970
    45   1 H    0.997 --     4 C    0.975
    46   1 H    1.004 --     5 C    0.972
    47   1 H    1.004 --    10 C    0.973
    48   1 H    1.001 --    11 C    0.973
    49   1 H    1.001 --    16 C    0.973
    50   1 H    1.003 --    17 C    0.973
    51   1 H    1.004 --    21 C    0.972
    52   1 H    1.005 --    22 C    0.968
    53   1 H    0.873 --    25 O    0.838
    54   1 H    1.005 --    27 C    0.970
    55   1 H    1.004 --    28 C    0.972
    56   1 H    1.003 --    30 C    0.973
    57   1 H    0.997 --    31 C    0.975
    58   1 H    1.003 --    36 C    0.972
    59   1 H    1.005 --    37 C    0.968
    60   1 H    0.873 --    40 O    0.838
    61   1 H    1.005 --    42 C    0.970
    62   1 H    1.003 --    43 C    0.972
    63  27 Co   3.043 --    95 N    0.640    69 N    0.637    74 N    0.635
                            96 N    0.632
    64   6 C    3.930 --    94 C    1.365    65 C    1.365   106 H    0.970
    65   6 C    3.923 --    64 C    1.365    69 N    1.201    66 C    1.173
    66   6 C    3.960 --    67 C    1.651    65 C    1.173   107 H    0.975
    67   6 C    3.963 --    66 C    1.651    68 C    1.176   108 H    0.972
    68   6 C    3.919 --    70 C    1.318    69 N    1.214    67 C    1.176
    69   7 N    3.348 --    68 C    1.214    65 C    1.201    63 Co   0.637
    70   6 C    3.932 --    71 C    1.334    68 C    1.318    97 C    1.024
    71   6 C    3.916 --    70 C    1.334    74 N    1.193    72 C    1.180
    72   6 C    3.958 --    73 C    1.640    71 C    1.180   109 H    0.973
    73   6 C    3.962 --    72 C    1.640    75 C    1.189   110 H    0.973
    74   7 N    3.347 --    75 C    1.232    71 C    1.193    63 Co   0.635
    75   6 C    3.904 --    76 C    1.261    74 N    1.232    73 C    1.189
    76   6 C    3.934 --    75 C    1.261    77 C    1.261   128 C    1.187
    77   6 C    3.904 --    76 C    1.261    96 N    1.229    78 C    1.190
    78   6 C    3.961 --    79 C    1.636    77 C    1.190   111 H    0.973
    79   6 C    3.958 --    78 C    1.636    80 C    1.182   112 H    0.973
    80   6 C    3.916 --    81 C    1.327    96 N    1.196    79 C    1.182
    81   6 C    3.932 --    80 C    1.327    91 C    1.319    82 C    1.033
    82   6 C    3.986 --    90 C    1.385    83 C    1.383    81 C    1.033
    83   6 C    3.986 --    84 C    1.464    82 C    1.383   113 H    0.972
                            89 C    0.103
    84   6 C    3.990 --    83 C    1.464    85 C    1.385   114 H    0.968
                            90 C    0.102
    85   6 C    3.982 --    89 C    1.389    84 C    1.385    86 C    1.009
    86   6 C    3.836 --    88 O    1.690    87 O    1.088    85 C    1.009
    87   8 O    2.097 --    86 C    1.088   115 H    0.838    88 O    0.129
    88   8 O    1.958 --    86 C    1.690    87 O    0.129
    89   6 C    3.991 --    90 C    1.462    85 C    1.389   116 H    0.970
                            83 C    0.103
    90   6 C    3.987 --    89 C    1.462    82 C    1.385   117 H    0.972
                            84 C    0.102
    91   6 C    3.920 --    81 C    1.319    95 N    1.213    92 C    1.175
    92   6 C    3.963 --    93 C    1.650    91 C    1.175   118 H    0.973
    93   6 C    3.960 --    92 C    1.650    94 C    1.174   119 H    0.975
    94   6 C    3.923 --    64 C    1.365    95 N    1.201    93 C    1.174
    95   7 N    3.346 --    91 C    1.213    94 C    1.201    63 Co   0.640
    96   7 N    3.349 --    77 C    1.229    80 C    1.196    63 Co   0.632
    97   6 C    3.986 --   105 C    1.389    98 C    1.387    70 C    1.024
    98   6 C    3.987 --    99 C    1.463    97 C    1.387   120 H    0.972
                           104 C    0.103
    99   6 C    3.990 --    98 C    1.463   100 C    1.386   121 H    0.968
                           105 C    0.103
   100   6 C    3.984 --   104 C    1.389    99 C    1.386   101 C    1.009
   101   6 C    3.836 --   103 O    1.690   102 O    1.088   100 C    1.009
   102   8 O    2.097 --   101 C    1.088   122 H    0.838   103 O    0.129
   103   8 O    1.959 --   101 C    1.690   102 O    0.129
   104   6 C    3.991 --   105 C    1.460   100 C    1.389   123 H    0.970
                            98 C    0.103
   105   6 C    3.988 --   104 C    1.460    97 C    1.389   124 H    0.972
                            99 C    0.103
   106   1 H    1.000 --    64 C    0.970
   107   1 H    0.997 --    66 C    0.975
   108   1 H    1.004 --    67 C    0.972
   109   1 H    1.004 --    72 C    0.973
   110   1 H    1.001 --    73 C    0.973
   111   1 H    1.001 --    78 C    0.973
   112   1 H    1.003 --    79 C    0.973
   113   1 H    1.004 --    83 C    0.972
   114   1 H    1.005 --    84 C    0.968
   115   1 H    0.873 --    87 O    0.838
   116   1 H    1.005 --    89 C    0.970
   117   1 H    1.004 --    90 C    0.972
   118   1 H    1.003 --    92 C    0.973
   119   1 H    0.997 --    93 C    0.975
   120   1 H    1.003 --    98 C    0.972
   121   1 H    1.005 --    99 C    0.968
   122   1 H    0.873 --   102 O    0.838
   123   1 H    1.005 --   104 C    0.970
   124   1 H    1.003 --   105 C    0.972
   125   6 C    3.930 --   126 C    2.472   127 C    1.310
   126   6 C    3.920 --   125 C    2.472    14 C    1.187   128 C    0.198
   127   6 C    3.930 --   128 C    2.472   125 C    1.310
   128   6 C    3.920 --   127 C    2.472    76 C    1.187   126 C    0.198
 ---------------------------------------------------------------------------

           -------------------------------------------------
          | TOTAL ENERGY             -242.815386810955 Eh   |
          | GRADIENT NORM               0.000710242498 Eh/α |
          | HOMO-LUMO GAP               0.009000829529 eV   |
           -------------------------------------------------

 * finished run on 2022/07/30 at 03:12:47.737
