   * xtb version 6.5.1 (b24c23e) compiled by 'conda@728c89f4b128' on 2022-07-12
          program call               : xtb Zn_BSA_C8_2.xyz --gfn 1 --opt -T 48

   ID    Z sym.   atoms
    1   30 Zn     1, 65
    2    6 C      2-6, 8-12, 17-21, 23-28, 30-34, 39-44, 66-70, 72-76, 81-85,
                  87-92, 94-98, 103-108, 129-136
    3    7 N      7, 22, 29, 45, 71, 86, 93, 109
    4   16 S      13, 35, 77, 99
    5    8 O      14-16, 36-38, 78-80, 100-102
    6    1 H      46-64, 110-128
########################################################################
[WARNING] Please study the warnings concerning your input carefully
-1- prog_main_parseArguments: Unknown option '-T' provided
########################################################################

          :  Hamiltonian                  GFN1-xTB          :
 * total energy  :  -269.9939045 Eh     change       -0.2700062E-09 Eh
 * total energy  :  -270.2381642 Eh     change       -0.2442597E+00 Eh
 * total energy  :  -270.3346212 Eh     change       -0.9645699E-01 Eh
 * total energy  :  -270.3651059 Eh     change       -0.3048472E-01 Eh
 * total energy  :  -270.3787787 Eh     change       -0.1367277E-01 Eh
 * total energy  :  -270.3867517 Eh     change       -0.7973030E-02 Eh
 * total energy  :  -270.3919286 Eh     change       -0.5176946E-02 Eh
 * total energy  :  -270.3956206 Eh     change       -0.3691971E-02 Eh
 * total energy  :  -270.3987563 Eh     change       -0.3135645E-02 Eh
 * total energy  :  -270.4012790 Eh     change       -0.2522742E-02 Eh
 * total energy  :  -270.4116195 Eh     change       -0.1547300E-04 Eh
 * total energy  :  -270.4116334 Eh     change       -0.1386265E-04 Eh
 * total energy  :  -270.4116432 Eh     change       -0.9875361E-05 Eh
 * total energy  :  -270.4116511 Eh     change       -0.7900507E-05 Eh
 * total energy  :  -270.4116587 Eh     change       -0.7594438E-05 Eh
 * total energy  :  -270.4116581 Eh     change        0.6477746E-06 Eh
 * total energy  :  -270.4116638 Eh     change       -0.5742987E-05 Eh
 * total energy  :  -270.4116688 Eh     change       -0.5009007E-05 Eh
 * total energy  :  -270.4116723 Eh     change       -0.3502265E-05 Eh
   *** GEOMETRY OPTIMIZATION CONVERGED AFTER 62 ITERATIONS ***

 final structure:
================
136
 xtb: 6.5.1 (b24c23e)
Zn          14.43769598511204        0.02379376475535        0.03917870457745
C           11.03013963606565        0.13292323698129        0.08686357652810
C           11.65599978990353       -0.18431678487310        1.28622403410459
C           10.97772595511487       -0.49255264417483        2.51429283603088
C           11.93317564927239       -0.74186611383521        3.44388233656637
C           13.20846352387655       -0.57759243379076        2.79669635095922
N           13.00485423031013       -0.25031695723261        1.48856851223700
C           14.45849852499916       -0.75049335632996        3.40374115468525
C           14.46782850437869       -1.08746334466138        4.84845572348556
C           13.92985062298822       -0.20012210959876        5.78425898686107
C           13.93878154321767       -0.50957482876008        7.13430552743773
C           14.48582970850475       -1.71747525960416        7.53603583550732
S           14.50569471742745       -2.11313372591474        9.24329377213343
O           14.43861631353725       -0.92450206079239       10.04130459747189
O           13.06826176804866       -2.86639378201337        9.32739391051543
O           15.52734882494745       -3.07580974759252        9.53521055824418
C           15.02849160004408       -2.61737795622293        6.63300753006718
C           15.01825613235706       -2.29506703115272        5.28609716956869
C           15.70017913618900       -0.63383018589088        2.76876969373200
C           16.97857824437599       -0.75536617569903        3.41405126110652
C           17.92654486697070       -0.56491292880597        2.46154988091530
N           15.89590486556598       -0.35743166765535        1.44251086444526
C           17.23836690077188       -0.31721583293378        1.22871830238310
C           17.87179759482164       -0.07600584752388       -0.00715391490543
C           17.22031165408129        0.19784986449835       -1.22666251892286
C           17.88838258220623        0.40470497007521       -2.47793374931251
C           16.92766826689268        0.64813763249611       -3.40536412007462
C           15.66215067518274        0.60238026924767       -2.72566749416813
N           15.87710059465837        0.31488297253319       -1.40470352073857
C           14.41304800587028        0.79623372259804       -3.32647730939961
C           14.40301962459944        1.13456785134501       -4.77085044011689
C           13.77712985410828        0.28892933760785       -5.69037376701350
C           13.76274052238688        0.60261393424702       -7.03944718362956
C           14.37879961138486        1.77108531969937       -7.45725745180406
S           14.35058455404436        2.18166823590362       -9.16174722637671
O           14.50410510123709        3.59464569747086       -9.35628213638917
O           15.74476692420149        1.47968917334539       -9.61275210279540
O           13.26637478496280        1.51098106416251       -9.81428248522753
C           15.00411140497109        2.63206776782029       -6.56975793654402
C           15.01494828996003        2.30655148733950       -5.22364822751227
C           13.17193369196369        0.70307270515220       -2.68447242439968
C           11.89207118893523        0.95163623088414       -3.29492306443336
C           10.94931125123900        0.76390935777052       -2.33840924417710
C           11.64073895780399        0.40985601702221       -1.13017276468141
N           12.98467893506747        0.38759169912969       -1.37103601119228
H            9.94528361458524        0.16859680495849        0.10258464176297
H            9.90628494887188       -0.51970856143072        2.63585146253385
H           11.79143997872678       -1.02373650311593        4.47493083436841
H           13.51835479214323        0.74532226326594        5.45046639302786
H           13.53466588351921        0.17585638690640        7.86864669913593
H           12.93280243577233       -3.22917085023953       10.21112245226120
H           15.45307749554740       -3.55015750622348        6.98234284279321
H           15.42794644957393       -2.98980313015520        4.56213235582678
H           17.13054153009374       -0.94721151764351        4.46393640724038
H           18.99842379261053       -0.58237682214256        2.57758823590276
H           18.95604606011494        0.35974176295420       -2.62236827618663
H           17.06212067675252        0.82956827580978       -4.45954745667806
H           13.31103592606843       -0.62644939233416       -5.34477521840690
H           13.27930532074321       -0.04521061163087       -7.75981920736489
H           16.07419337805765        1.88835929649479      -10.42283631007479
H           15.46549534514269        3.54350400636090       -6.92876450956670
H           15.48656552990680        2.97343550112532       -4.51126835929338
H           11.73947034430185        1.24451431131611       -4.32130097310819
H            9.87897353762124        0.86183999335721       -2.42916458458206
Zn          33.04778589422627        0.03713004525630       -0.02894733902379
C           36.45531781109359        0.15610081993366       -0.03294562459562
C           35.82946454254229        0.30420093529717       -1.26468765552506
C           36.50774371152167        0.47120019290381       -2.51978531593449
C           35.55229732133706        0.58290176695678       -3.47572422427472
C           34.27700188185585        0.49669332075470       -2.81361127629371
N           34.48061455243564        0.31771525690542       -1.47709637341488
C           33.02697586251711        0.56032912759761       -3.44160108542089
C           33.01770152508838        0.78071475960991       -4.90863780952265
C           33.55565799456792        1.95094808094631       -5.45056243437112
C           33.54676436277294        2.16196545707360       -6.81945294840509
C           32.99981254902288        1.18778833233308       -7.63890449777395
S           32.97971915963872        1.45074068966983       -9.37157156214236
O           33.04679912338892        2.85009014716310       -9.67406037324857
O           34.41703725975099        0.78177269583067       -9.72830248982573
O           31.95789552821071        0.66403676779945       -9.99824226265179
C           32.45721541968275        0.01796311880868       -7.13207768401307
C           32.46739203157614       -0.17993441717789       -5.76135150571163
C           31.78528853402085        0.43432318768552       -2.80842699278034
C           30.50688817372680        0.55975162971910       -3.45296877263177
C           29.55891701929334        0.38494161548413       -2.49746914735545
N           31.58955192703356        0.20135223917261       -1.47385622952804
C           30.24709170470641        0.15991206848606       -1.26029795526625
C           29.61367842454354       -0.07240530061407       -0.02270393667971
C           30.26518285990722       -0.26860865413036        1.21167185918994
C           29.59712249252327       -0.53892927198041        2.45079175353178
C           30.55782802120880       -0.65525979705749        3.40255874162298
C           31.82333242518069       -0.44653959056348        2.75407733305989
N           31.60838846278894       -0.22564096425920        1.42035069390252
C           33.07242034984255       -0.48821614434119        3.38401855639494
C           33.08240487151339       -0.70730302008987        4.85123474864818
C           33.70806010746252       -1.83287476341988        5.39344732210462
C           33.72231086911479       -2.03964788248619        6.76299767814421
C           33.10640122909932       -1.10797010860999        7.58278123039104
S           33.13435317876760       -1.35584776511888        9.31841930420569
O           32.98081971116187       -0.11452829105051       10.02090084650019
O           31.74006184686965       -2.17464593854934        9.47806065448741
O           34.21842668064680       -2.22013135082722        9.67748740678607
C           32.48135196139937        0.02005679178667        7.07599239122706
C           32.47060203398537        0.21470460216475        5.70483302812321
C           34.31353010151294       -0.33753488631304        2.75303423528260
C           35.59337987705006       -0.33197874292637        3.41214180344026
C           36.53614475452396       -0.15313067798602        2.45393171780973
C           35.84472672506578       -0.03594594408902        1.20034258031191
N           34.50078416748434       -0.14562080160292        1.41594172180960
H           37.54017699137107        0.19499373130458       -0.03438993044156
H           37.57918484681579        0.49073111372470       -2.64279051187245
H           35.69401625529316        0.70171478113460       -4.53798531335500
H           33.96710782151023        2.70629358072779       -4.79118665647325
H           33.95083052459623        3.07017323106006       -7.24872727431821
H           34.55231712119304        0.77126185603576      -10.68356413412513
H           32.03272218969949       -0.71989920992455       -7.80122030044468
H           32.05770829048235       -1.09293835981175       -5.34516118930928
H           30.35492970614467        0.76922740495817       -4.49948374269428
H           28.48703730580193        0.41159981744355       -2.61174523415178
H           28.52946991947866       -0.63420653012882        2.56836780822840
H           30.42339101354790       -0.87616711714657        4.44917864042210
H           34.17406397340208       -2.55597450319128        4.73422776639911
H           34.20554090698865       -2.90783147577577        7.19319893521611
H           31.41093815123200       -2.09449600766466       10.38196181184910
H           32.02008832699290        0.73455233432007        7.74622319676422
H           31.99914933490853        1.09761907066173        5.28909786526340
H           35.74594011697447       -0.43888160623948        4.47412971591061
H           37.60648110059267       -0.09560556480422        2.57444579315327
C           19.27640230742944       -0.10626049576826       -0.02229738256309
C           20.50090633072262       -0.12631486367309       -0.02778900975667
C           21.84324866958516       -0.14067353255210       -0.03206164658372
C           23.07393499631668       -0.14803751341594       -0.03046426348981
C           24.41157940050304       -0.14881040996831       -0.02764519259005
C           25.64225782404841       -0.14277250854120       -0.02402305209912
C           26.98457216040612       -0.12720658873999       -0.02137435437082
C           28.20908121774666       -0.10644621427815       -0.01964391073401

          :  Hamiltonian                  GFN1-xTB          :
         :: total energy            -270.411672350491 Eh    ::
         :: gradient norm              0.000818502572 Eh/a0 ::
         :: HOMO-LUMO gap              1.128724974803 eV    ::
         :: SCC energy              -274.151440329866 Eh    ::
         :: repulsion energy           3.861537106546 Eh    ::

    * Orbital Energies and Occupations

         #    Occupation            Energy/Eh            Energy/eV
      -------------------------------------------------------------
         1        2.0000           -1.0344860             -28.1498
       ...           ...                  ...                  ...
       221        2.0000           -0.4377464             -11.9117
       222        2.0000           -0.4377417             -11.9116
       223        2.0000           -0.4374054             -11.9024
       224        2.0000           -0.4373552             -11.9010
       225        2.0000           -0.4370153             -11.8918
       226        2.0000           -0.4370060             -11.8915
       227        2.0000           -0.4365854             -11.8801
       228        2.0000           -0.4269058             -11.6167
       229        2.0000           -0.4175123             -11.3611
       230        2.0000           -0.4096674             -11.1476
       231        2.0000           -0.4096672             -11.1476
       232        2.0000           -0.4028703             -10.9627
       233        2.0000           -0.3934124             -10.7053 (HOMO)
       234                         -0.3519325              -9.5766 (LUMO)
       235                         -0.3446778              -9.3792
       236                         -0.3446757              -9.3791
       237                         -0.3418723              -9.3028
       238                         -0.3187335              -8.6732
       239                         -0.3151586              -8.5759
       240                         -0.3102333              -8.4419
       241                         -0.3065565              -8.3418
       242                         -0.3065403              -8.3414
       243                         -0.3047507              -8.2927
       244                         -0.2989915              -8.1360
       ...                                ...                  ...
       488                          1.5963984              43.4402
      -------------------------------------------------------------
                  HL-Gap            0.0414799 Eh            1.1287 eV

Wiberg/Mayer (AO) data.
largest (>0.10) Wiberg bond orders for each atom

     #   Z sym  total        # sym  WBO       # sym  WBO       # sym  WBO
 ---------------------------------------------------------------------------
     1  30 Zn   1.992 --     7 N    0.459    45 N    0.459    22 N    0.455
                            29 N    0.455
     2   6 C    3.929 --    44 C    1.358     3 C    1.358    46 H    0.971
     3   6 C    3.920 --     2 C    1.358     7 N    1.232     4 C    1.169
     4   6 C    3.960 --     5 C    1.661     3 C    1.169    47 H    0.975
     5   6 C    3.963 --     4 C    1.661     6 C    1.170    48 H    0.973
     6   6 C    3.919 --     8 C    1.313     7 N    1.246     5 C    1.170
     7   7 N    3.293 --     6 C    1.246     3 C    1.232     1 Zn   0.459
     8   6 C    3.931 --    19 C    1.321     6 C    1.313     9 C    1.030
     9   6 C    3.985 --    10 C    1.390    18 C    1.390     8 C    1.030
    10   6 C    3.986 --    11 C    1.450     9 C    1.390    49 H    0.971
                            17 C    0.105
    11   6 C    3.989 --    10 C    1.450    12 C    1.406    50 H    0.967
                            18 C    0.105
    12   6 C    3.929 --    11 C    1.406    17 C    1.406    13 S    0.754
    13  16 S    5.263 --    14 O    1.721    16 O    1.717    15 O    1.012
                            12 C    0.754
    14   8 O    2.079 --    13 S    1.721    16 O    0.139
    15   8 O    2.086 --    13 S    1.012    51 H    0.828
    16   8 O    2.075 --    13 S    1.717    14 O    0.139
    17   6 C    3.989 --    18 C    1.451    12 C    1.406    52 H    0.967
                            10 C    0.105
    18   6 C    3.986 --    17 C    1.451     9 C    1.390    53 H    0.971
                            11 C    0.105
    19   6 C    3.913 --     8 C    1.321    22 N    1.227    20 C    1.177
    20   6 C    3.959 --    21 C    1.647    19 C    1.177    54 H    0.973
    21   6 C    3.962 --    20 C    1.647    23 C    1.185    55 H    0.974
    22   7 N    3.296 --    23 C    1.262    19 C    1.227     1 Zn   0.455
    23   6 C    3.899 --    22 N    1.262    24 C    1.254    21 C    1.185
    24   6 C    3.940 --    25 C    1.254    23 C    1.254   129 C    1.193
    25   6 C    3.899 --    29 N    1.262    24 C    1.254    26 C    1.185
    26   6 C    3.962 --    27 C    1.647    25 C    1.185    56 H    0.974
    27   6 C    3.959 --    26 C    1.647    28 C    1.178    57 H    0.973
    28   6 C    3.913 --    30 C    1.321    29 N    1.228    27 C    1.178
    29   7 N    3.296 --    25 C    1.262    28 C    1.228     1 Zn   0.455
    30   6 C    3.931 --    28 C    1.321    41 C    1.313    31 C    1.031
    31   6 C    3.985 --    32 C    1.390    40 C    1.389    30 C    1.031
    32   6 C    3.986 --    33 C    1.450    31 C    1.390    58 H    0.971
                            39 C    0.105
    33   6 C    3.989 --    32 C    1.450    34 C    1.407    59 H    0.967
                            40 C    0.105
    34   6 C    3.929 --    33 C    1.407    39 C    1.406    35 S    0.754
    35  16 S    5.266 --    38 O    1.729    36 O    1.711    37 O    1.014
                            34 C    0.754
    36   8 O    2.070 --    35 S    1.711    38 O    0.138
    37   8 O    2.089 --    35 S    1.014    60 H    0.828
    38   8 O    2.086 --    35 S    1.729    36 O    0.138
    39   6 C    3.989 --    40 C    1.451    34 C    1.406    61 H    0.967
                            32 C    0.105
    40   6 C    3.986 --    39 C    1.451    31 C    1.389    62 H    0.971
                            33 C    0.105
    41   6 C    3.919 --    30 C    1.313    45 N    1.246    42 C    1.170
    42   6 C    3.963 --    43 C    1.661    41 C    1.170    63 H    0.973
    43   6 C    3.960 --    42 C    1.661    44 C    1.169    64 H    0.975
    44   6 C    3.920 --     2 C    1.358    45 N    1.232    43 C    1.169
    45   7 N    3.293 --    41 C    1.246    44 C    1.232     1 Zn   0.459
    46   1 H    1.001 --     2 C    0.971
    47   1 H    0.997 --     4 C    0.975
    48   1 H    1.004 --     5 C    0.973
    49   1 H    1.003 --    10 C    0.971
    50   1 H    0.999 --    11 C    0.967
    51   1 H    0.855 --    15 O    0.828
    52   1 H    1.000 --    17 C    0.967
    53   1 H    1.003 --    18 C    0.971
    54   1 H    1.003 --    20 C    0.973
    55   1 H    1.002 --    21 C    0.974
    56   1 H    1.002 --    26 C    0.974
    57   1 H    1.004 --    27 C    0.973
    58   1 H    1.003 --    32 C    0.971
    59   1 H    1.000 --    33 C    0.967
    60   1 H    0.855 --    37 O    0.828
    61   1 H    1.000 --    39 C    0.967
    62   1 H    1.003 --    40 C    0.971
    63   1 H    1.004 --    42 C    0.973
    64   1 H    0.997 --    43 C    0.975
    65  30 Zn   1.992 --    71 N    0.459   109 N    0.459    86 N    0.455
                            93 N    0.455
    66   6 C    3.929 --   108 C    1.358    67 C    1.358   110 H    0.971
    67   6 C    3.920 --    66 C    1.358    71 N    1.232    68 C    1.169
    68   6 C    3.960 --    69 C    1.661    67 C    1.169   111 H    0.975
    69   6 C    3.963 --    68 C    1.661    70 C    1.170   112 H    0.973
    70   6 C    3.919 --    72 C    1.313    71 N    1.246    69 C    1.170
    71   7 N    3.293 --    70 C    1.246    67 C    1.232    65 Zn   0.459
    72   6 C    3.931 --    83 C    1.321    70 C    1.313    73 C    1.030
    73   6 C    3.985 --    74 C    1.390    82 C    1.390    72 C    1.030
    74   6 C    3.986 --    75 C    1.450    73 C    1.390   113 H    0.971
                            81 C    0.105
    75   6 C    3.989 --    74 C    1.450    76 C    1.406   114 H    0.967
                            82 C    0.105
    76   6 C    3.929 --    75 C    1.406    81 C    1.406    77 S    0.754
    77  16 S    5.263 --    78 O    1.721    80 O    1.717    79 O    1.012
                            76 C    0.754
    78   8 O    2.079 --    77 S    1.721    80 O    0.139
    79   8 O    2.086 --    77 S    1.012   115 H    0.828
    80   8 O    2.075 --    77 S    1.717    78 O    0.139
    81   6 C    3.989 --    82 C    1.451    76 C    1.406   116 H    0.967
                            74 C    0.105
    82   6 C    3.986 --    81 C    1.451    73 C    1.390   117 H    0.971
                            75 C    0.105
    83   6 C    3.913 --    72 C    1.321    86 N    1.227    84 C    1.177
    84   6 C    3.959 --    85 C    1.647    83 C    1.177   118 H    0.973
    85   6 C    3.962 --    84 C    1.647    87 C    1.185   119 H    0.974
    86   7 N    3.296 --    87 C    1.262    83 C    1.227    65 Zn   0.455
    87   6 C    3.899 --    86 N    1.262    88 C    1.254    85 C    1.185
    88   6 C    3.940 --    89 C    1.254    87 C    1.254   136 C    1.193
    89   6 C    3.899 --    93 N    1.262    88 C    1.254    90 C    1.185
    90   6 C    3.962 --    91 C    1.647    89 C    1.185   120 H    0.974
    91   6 C    3.959 --    90 C    1.647    92 C    1.178   121 H    0.973
    92   6 C    3.913 --    94 C    1.321    93 N    1.227    91 C    1.178
    93   7 N    3.296 --    89 C    1.262    92 C    1.227    65 Zn   0.455
    94   6 C    3.931 --    92 C    1.321   105 C    1.313    95 C    1.031
    95   6 C    3.985 --    96 C    1.390   104 C    1.389    94 C    1.031
    96   6 C    3.986 --    97 C    1.450    95 C    1.390   122 H    0.971
                           103 C    0.105
    97   6 C    3.989 --    96 C    1.450    98 C    1.407   123 H    0.967
                           104 C    0.105
    98   6 C    3.929 --    97 C    1.407   103 C    1.406    99 S    0.754
    99  16 S    5.266 --   102 O    1.729   100 O    1.711   101 O    1.014
                            98 C    0.754
   100   8 O    2.070 --    99 S    1.711   102 O    0.138
   101   8 O    2.089 --    99 S    1.014   124 H    0.828
   102   8 O    2.086 --    99 S    1.729   100 O    0.138
   103   6 C    3.989 --   104 C    1.451    98 C    1.406   125 H    0.967
                            96 C    0.105
   104   6 C    3.986 --   103 C    1.451    95 C    1.389   126 H    0.971
                            97 C    0.105
   105   6 C    3.919 --    94 C    1.313   109 N    1.246   106 C    1.170
   106   6 C    3.963 --   107 C    1.661   105 C    1.170   127 H    0.973
   107   6 C    3.960 --   106 C    1.661   108 C    1.169   128 H    0.975
   108   6 C    3.920 --    66 C    1.358   109 N    1.232   107 C    1.169
   109   7 N    3.293 --   105 C    1.246   108 C    1.232    65 Zn   0.459
   110   1 H    1.001 --    66 C    0.971
   111   1 H    0.997 --    68 C    0.975
   112   1 H    1.004 --    69 C    0.973
   113   1 H    1.003 --    74 C    0.971
   114   1 H    0.999 --    75 C    0.967
   115   1 H    0.855 --    79 O    0.828
   116   1 H    1.000 --    81 C    0.967
   117   1 H    1.003 --    82 C    0.971
   118   1 H    1.003 --    84 C    0.973
   119   1 H    1.002 --    85 C    0.974
   120   1 H    1.002 --    90 C    0.974
   121   1 H    1.004 --    91 C    0.973
   122   1 H    1.003 --    96 C    0.971
   123   1 H    1.000 --    97 C    0.967
   124   1 H    0.855 --   101 O    0.828
   125   1 H    1.000 --   103 C    0.967
   126   1 H    1.003 --   104 C    0.971
   127   1 H    1.004 --   106 C    0.973
   128   1 H    0.997 --   107 C    0.975
   129   6 C    3.877 --   130 C    2.438    24 C    1.193   132 C    0.187
   130   6 C    3.934 --   129 C    2.438   131 C    1.345
   131   6 C    3.893 --   132 C    2.335   130 C    1.345   134 C    0.182
   132   6 C    3.925 --   131 C    2.335   133 C    1.370   129 C    0.187
   133   6 C    3.925 --   134 C    2.335   132 C    1.370   136 C    0.187
   134   6 C    3.893 --   133 C    2.335   135 C    1.345   131 C    0.182
   135   6 C    3.934 --   136 C    2.438   134 C    1.345
   136   6 C    3.877 --   135 C    2.438    88 C    1.193   133 C    0.187
 ---------------------------------------------------------------------------

           -------------------------------------------------
          | TOTAL ENERGY             -270.411672350491 Eh   |
          | GRADIENT NORM               0.000818502572 Eh/α |
          | HOMO-LUMO GAP               1.128724974803 eV   |
           -------------------------------------------------

 * finished run on 2022/07/30 at 16:10:00.258
