   * xtb version 6.5.1 (b24c23e) compiled by 'conda@728c89f4b128' on 2022-07-12
          program call               : xtb Co_PhCHO_C8_2.xyz --gfn 1 --opt -T 48

   ID    Z sym.   atoms
    1   27 Co     1, 61
    2    6 C      2-6, 8-13, 15-19, 21-26, 28-33, 35-40, 62-66, 68-73, 75-79,
                  81-86, 88-93, 95-100, 121-128
    3    7 N      7, 20, 27, 41, 67, 80, 87, 101
    4    8 O      14, 34, 74, 94
    5    1 H      42-60, 102-120
########################################################################
[WARNING] Please study the warnings concerning your input carefully
-1- prog_main_parseArguments: Unknown option '-T' provided
########################################################################

          :  Hamiltonian                  GFN1-xTB          :
 * total energy  :  -231.6645745 Eh     change        0.5872778E-09 Eh
 * total energy  :  -232.0472385 Eh     change       -0.3826640E+00 Eh
 * total energy  :  -232.1347312 Eh     change       -0.8749273E-01 Eh
 * total energy  :  -232.1699620 Eh     change       -0.3523079E-01 Eh
 * total energy  :  -232.1833911 Eh     change       -0.1342908E-01 Eh
 * total energy  :  -232.1911223 Eh     change       -0.7731282E-02 Eh
 * total energy  :  -232.1958271 Eh     change       -0.4704806E-02 Eh
 * total energy  :  -232.1976254 Eh     change       -0.1798293E-02 Eh
 * total energy  :  -232.2000709 Eh     change       -0.2445506E-02 Eh
 * total energy  :  -232.2013824 Eh     change       -0.1311499E-02 Eh
 * total energy  :  -232.2058684 Eh     change        0.2126878E-04 Eh
 * total energy  :  -232.2058947 Eh     change       -0.2629819E-04 Eh
 * total energy  :  -232.2058311 Eh     change        0.6355270E-04 Eh
 * total energy  :  -232.2058956 Eh     change       -0.6452377E-04 Eh
 * total energy  :  -232.2058996 Eh     change       -0.3913272E-05 Eh
 * total energy  :  -232.2058732 Eh     change        0.2633228E-04 Eh
 * total energy  :  -232.2059061 Eh     change       -0.3290432E-04 Eh
 * total energy  :  -232.2059120 Eh     change       -0.5837518E-05 Eh
 * total energy  :  -232.2059152 Eh     change       -0.3197760E-05 Eh
   *** GEOMETRY OPTIMIZATION CONVERGED AFTER 52 ITERATIONS ***

 final structure:
================
128
 xtb: 6.5.1 (b24c23e)
Co          13.31300472817626        0.03240463694304       -0.11592496266876
C            9.94197993887782        0.09331448474851       -0.26668662592581
C           10.62285718201861        1.28966999933787       -0.32803675348623
C            9.97741538132974        2.56217311447392       -0.44123796529851
C           10.93216316044613        3.50010583812551       -0.24118920821962
C           12.16426954585376        2.79925139574669       -0.02511381227595
N           11.97025530663524        1.44504175765819       -0.11732929133134
C           13.34788028812549        3.40769304347958        0.37165957720609
C           13.36033892198079        4.87110387198765        0.60282689374727
C           13.58544358740287        5.37924198490177        1.88512335564550
C           13.59084530081662        6.74377956097467        2.10226754676297
C           13.37685139234030        7.62986606623623        1.04135016480571
C           13.38707715820228        9.08179352994529        1.29878155154377
O           13.56990307414429        9.56725615426305        2.38552770848622
C           13.15738725616375        7.12213140179696       -0.24127510596622
C           13.14739390456926        5.75543462665312       -0.45751553724776
C           14.52350549580579        2.69314371172127        0.54039784341635
C           15.78073135685858        3.29585608758435        0.86889608301356
C           16.72671098743846        2.34123342597003        0.70340367041581
N           14.69598512651987        1.36315399086727        0.22743058379298
C           16.04549228843781        1.15790965828715        0.28314590587936
C           16.70668198878692       -0.00846270004685       -0.11130204153983
C           16.01259056071116       -1.17357451727838       -0.44628583917352
C           16.65846170779888       -2.38796990309575       -0.83192431762196
C           15.69610317628998       -3.34010304391266       -0.88248235810064
C           14.46470544959924       -2.70134465942573       -0.52812492924135
N           14.66441414986949       -1.35744254299577       -0.31357481652566
C           13.26144521537698       -3.37136387842295       -0.36107672845035
C           13.24105980430044       -4.84651643171107       -0.47396680961968
C           12.45948974574135       -5.46776249863767       -1.45232254744668
C           12.44046718030343       -6.84654939987606       -1.56300892624472
C           13.19914762129937       -7.63267620756500       -0.69249500721776
C           13.19218904917677       -9.10414302193535       -0.78720638783865
O           13.82708349586283       -9.82452781689010       -0.06046543469866
C           13.98076528476792       -7.01137062659391        0.28716992713189
C           14.00467785566470       -5.63403303149585        0.39290063630153
C           12.07216465936041       -2.69586056624652       -0.12256105736389
C           10.80342573239868       -3.33973540215124        0.05702081089321
C            9.86629503982697       -2.36318160291807        0.05626871967092
C           10.56541538769842       -1.12406385581546       -0.09844644140909
N           11.92082659486189       -1.33278813985727       -0.14675983173044
H            8.86030867444728        0.11344725439688       -0.32759535039856
H            8.92347963098732        2.69819716810765       -0.62414012879423
H           10.82133007115640        4.57202857132718       -0.22172097347829
H           13.74081125415378        4.69379771974967        2.71050743184068
H           13.75884991816866        7.14744811861366        3.09494983145847
H           13.20911990942025        9.70578864914390        0.39705133165544
H           12.99542433321581        7.80294990188497       -1.07064294909240
H           12.98939926044355        5.36402356729671       -1.45611869581654
H           15.91375499445428        4.32528972290183        1.15864335673229
H           17.79343577318445        2.41791558650429        0.83851916340229
H           17.71495236175791       -2.48484169358569       -1.02315043199740
H           15.79832448184010       -4.38170712899005       -1.13975208250760
H           11.87992183163854       -4.85965949851324       -2.13774210085885
H           11.83555119584972       -7.32022726716430       -2.32938177824657
H           12.54406679696364       -9.50554009889100       -1.59530306196876
H           14.56447769755309       -7.63016076402950        0.96020904807224
H           14.60286945765028       -5.15552606876112        1.16003733260314
H           10.66216142251140       -4.40298440006605        0.16366224436216
H            8.79587907335021       -2.45271476405055        0.15088057178109
Co          31.83744843086658       -0.01892753360889       -0.11926655873429
C           35.20911415768040       -0.05493940639109       -0.27996267946612
C           34.52951592234015       -1.23216830777080       -0.50516200399372
C           35.17702940556683       -2.47588257430681       -0.79245898339173
C           34.22322115825005       -3.43352409830133       -0.72666844493274
C           32.98964950036721       -2.77072321212769       -0.41845594413564
N           33.18201337165080       -1.41668562481640       -0.32013895495688
C           31.80528454360732       -3.43016561244967       -0.11707093349490
C           31.79366699719538       -4.91159874290525       -0.09617436889602
C           31.56210606114665       -5.59679251229571        1.09968971604308
C           31.55653676395550       -6.97833370133526        1.12076103101609
C           31.77694118414665       -7.70472866718455       -0.05408021515054
C           31.76561354841542       -9.17851933359393       -0.00570787645162
O           31.57658592186910       -9.81341722956918        0.99990102035418
C           32.00329947586404       -7.01992380102080       -1.25028006547457
C           32.01334212970127       -5.63636703833869       -1.27014230664903
C           30.62787583543359       -2.74790568981837        0.14624989736119
C           29.37032849281316       -3.39293689062605        0.37930822136395
C           28.42378138492824       -2.42510130162745        0.35135117986857
N           30.45484090381679       -1.38674768951230        0.02839019720814
C           29.10497957775932       -1.19273448542518        0.11014461354621
C           28.44297385350048        0.01845671645067       -0.10841661462370
C           29.13581876943603        1.22081705424762       -0.26836972552696
C           28.48795109938184        2.47788728374464       -0.47012276087970
C           29.44963939198680        3.42808092918080       -0.38438961380428
C           30.68260923422209        2.74553004721028       -0.13175320321316
N           30.48428527478160        1.38447964443547       -0.11395589591317
C           31.88648158260985        3.38587564639691        0.12316147946349
C           31.90608679078484        4.86218494250968        0.22166827305124
C           32.67903812926134        5.61722343898147       -0.66511498982886
C           32.69796175486618        6.99769941219931       -0.57796435409162
C           31.94794651563846        7.65093271567389        0.40292948192364
C           31.95544948374938        9.12082894028102        0.51955524935045
O           31.32852073776933        9.72962882215610        1.34811122389191
C           31.17482336127032        6.89560868329443        1.29087090564277
C           31.15081451198542        5.51726257959261        1.19894583016390
C           33.07727074895515        2.68479664544667        0.25681963560356
C           34.34632021459257        3.29885584753426        0.51936906311055
C           35.28399083120249        2.33307865789076        0.37869474515492
C           34.58491645195677        1.12689152328054        0.05540370584582
N           33.22922696669474        1.33878720046689        0.04087068084684
H           36.29074661633634       -0.06531479171517       -0.34399226144624
H           36.23153133259792       -2.58394096046657       -0.99016388647867
H           34.33550660534077       -4.49764348520852       -0.85594273488808
H           31.40162310961214       -5.03555952049275        2.01319724098035
H           31.38327067300916       -7.51891389621266        2.04507060591033
H           31.94915281994372       -9.66804274743575       -0.98594609293370
H           32.17045577715358       -7.57602613826983       -2.16701815536888
H           32.17650716245976       -5.10710057089781       -2.20214457924420
H           29.23761019901576       -4.45366112176620        0.51577561258389
H           27.35673015825236       -2.52127586266270        0.47047514664794
H           27.43075071552544        2.60064085851468       -0.64150410013329
H           29.34609451239679        4.49600887583870       -0.48625087393857
H           33.25203981415329        5.11351903291885       -1.43546459250613
H           33.29616166011949        7.57635825592615       -1.27433215873476
H           32.59667517123969        9.63386890159918       -0.22867891722845
H           30.59776404079017        7.41157718407775        2.05072955967407
H           30.55916435493467        4.93370610618984        1.89515765281407
H           34.48733113991393        4.33699880180902        0.77273597946240
H           36.35471973859978        2.40966721161223        0.48080930818604
C           18.10875232508111       -0.01391500307869       -0.14622584169904
C           19.33367730675603       -0.00787419572216       -0.16994919323170
C           20.67504781403246       -0.00136847601633       -0.18776199437474
C           21.90647291108581        0.00986058256709       -0.19613510884447
C           23.24309235105750        0.01904204322663       -0.19538193042010
C           24.47456244415279        0.02644445843011       -0.18567446135290
C           25.81593767881824        0.03052158602026       -0.16645655346020
C           27.04085787512058        0.02817952250727       -0.14244232792203

          :  Hamiltonian                  GFN1-xTB          :
         :: total energy            -232.205915162802 Eh    ::
         :: gradient norm              0.000304567271 Eh/a0 ::
         :: HOMO-LUMO gap              0.005705754052 eV    ::
         :: SCC energy              -235.910736929028 Eh    ::
         :: repulsion energy           3.816943894641 Eh    ::

    * Orbital Energies and Occupations

         #    Occupation            Energy/Eh            Energy/eV
      -------------------------------------------------------------
         1        2.0000           -0.7930521             -21.5800
       ...           ...                  ...                  ...
       200        2.0000           -0.4306568             -11.7188
       201        2.0000           -0.4221934             -11.4885
       202        2.0000           -0.4097706             -11.1504
       203        2.0000           -0.4097680             -11.1504
       204        2.0000           -0.4090978             -11.1321
       205        2.0000           -0.4087498             -11.1226
       206        2.0000           -0.4067925             -11.0694
       207        1.9998           -0.4053166             -11.0292
       208        1.9998           -0.4053021             -11.0288
       209        1.9998           -0.4051851             -11.0256
       210        1.9998           -0.4051706             -11.0253
       211        1.8745           -0.3991214             -10.8606
       212        1.1181           -0.3967778             -10.7969 (HOMO)
       213        1.0083           -0.3965681             -10.7912 (LUMO)
       214                         -0.3515742              -9.5668
       215                         -0.3438711              -9.3572
       216                         -0.3438437              -9.3565
       217                         -0.3419625              -9.3053
       218                         -0.3289202              -8.9504
       219                         -0.3286154              -8.9421
       220                         -0.3236749              -8.8076
       221                         -0.3236516              -8.8070
       222                         -0.3138489              -8.5403
       223                         -0.3131271              -8.5206
       ...                                ...                  ...
       446                          1.5912317              43.2996
      -------------------------------------------------------------
                  HL-Gap            0.0002097 Eh            0.0057 eV

Wiberg/Mayer (AO) data.
largest (>0.10) Wiberg bond orders for each atom

     #   Z sym  total        # sym  WBO       # sym  WBO       # sym  WBO
 ---------------------------------------------------------------------------
     1  27 Co   3.038 --    41 N    0.639     7 N    0.637    20 N    0.635
                            27 N    0.632
     2   6 C    3.930 --     3 C    1.366    40 C    1.364    42 H    0.970
     3   6 C    3.923 --     2 C    1.366     7 N    1.200     4 C    1.173
     4   6 C    3.959 --     5 C    1.650     3 C    1.173    43 H    0.975
     5   6 C    3.963 --     4 C    1.650     6 C    1.176    44 H    0.972
     6   6 C    3.919 --     8 C    1.317     7 N    1.215     5 C    1.176
     7   7 N    3.348 --     6 C    1.215     3 C    1.200     1 Co   0.637
     8   6 C    3.932 --    17 C    1.335     6 C    1.317     9 C    1.026
     9   6 C    3.986 --    16 C    1.385    10 C    1.383     8 C    1.026
    10   6 C    3.988 --    11 C    1.470     9 C    1.383    45 H    0.972
                            15 C    0.100
    11   6 C    3.988 --    10 C    1.470    12 C    1.371    46 H    0.968
                            16 C    0.101
    12   6 C    3.984 --    15 C    1.379    11 C    1.371    13 C    1.048
    13   6 C    3.864 --    14 O    1.809    12 C    1.048    47 H    0.942
    14   8 O    2.005 --    13 C    1.809
    15   6 C    3.993 --    16 C    1.464    12 C    1.379    48 H    0.971
                            10 C    0.100
    16   6 C    3.988 --    15 C    1.464     9 C    1.385    49 H    0.972
                            11 C    0.101
    17   6 C    3.915 --     8 C    1.335    20 N    1.191    18 C    1.179
    18   6 C    3.957 --    19 C    1.640    17 C    1.179    50 H    0.973
    19   6 C    3.962 --    18 C    1.640    21 C    1.189    51 H    0.973
    20   7 N    3.348 --    21 C    1.233    17 C    1.191     1 Co   0.635
    21   6 C    3.901 --    22 C    1.257    20 N    1.233    19 C    1.189
    22   6 C    3.935 --    23 C    1.260    21 C    1.257   121 C    1.194
    23   6 C    3.901 --    22 C    1.260    27 N    1.228    24 C    1.190
    24   6 C    3.961 --    25 C    1.637    23 C    1.190    52 H    0.973
    25   6 C    3.958 --    24 C    1.637    26 C    1.182    53 H    0.973
    26   6 C    3.916 --    28 C    1.327    27 N    1.197    25 C    1.182
    27   7 N    3.349 --    23 C    1.228    26 C    1.197     1 Co   0.632
    28   6 C    3.932 --    26 C    1.327    37 C    1.319    29 C    1.034
    29   6 C    3.986 --    30 C    1.382    36 C    1.381    28 C    1.034
    30   6 C    3.987 --    31 C    1.466    29 C    1.382    54 H    0.972
                            35 C    0.101
    31   6 C    3.993 --    30 C    1.466    32 C    1.378    55 H    0.971
    32   6 C    3.983 --    31 C    1.378    35 C    1.370    33 C    1.048
    33   6 C    3.864 --    34 O    1.809    32 C    1.048    56 H    0.942
    34   8 O    2.004 --    33 C    1.809
    35   6 C    3.988 --    36 C    1.471    32 C    1.370    57 H    0.968
                            30 C    0.101
    36   6 C    3.987 --    35 C    1.471    29 C    1.381    58 H    0.972
    37   6 C    3.920 --    28 C    1.319    41 N    1.212    38 C    1.175
    38   6 C    3.963 --    39 C    1.650    37 C    1.175    59 H    0.973
    39   6 C    3.960 --    38 C    1.650    40 C    1.174    60 H    0.975
    40   6 C    3.923 --     2 C    1.364    41 N    1.202    39 C    1.174
    41   7 N    3.346 --    37 C    1.212    40 C    1.202     1 Co   0.639
    42   1 H    1.000 --     2 C    0.970
    43   1 H    0.997 --     4 C    0.975
    44   1 H    1.004 --     5 C    0.972
    45   1 H    1.003 --    10 C    0.972
    46   1 H    1.005 --    11 C    0.968
    47   1 H    1.010 --    13 C    0.942
    48   1 H    1.000 --    15 C    0.971
    49   1 H    1.003 --    16 C    0.972
    50   1 H    1.003 --    18 C    0.973
    51   1 H    1.001 --    19 C    0.973
    52   1 H    1.001 --    24 C    0.973
    53   1 H    1.003 --    25 C    0.973
    54   1 H    1.004 --    30 C    0.972
    55   1 H    1.000 --    31 C    0.971
    56   1 H    1.010 --    33 C    0.942
    57   1 H    1.005 --    35 C    0.968
    58   1 H    1.004 --    36 C    0.972
    59   1 H    1.003 --    38 C    0.973
    60   1 H    0.997 --    39 C    0.975
    61  27 Co   3.035 --   101 N    0.639    67 N    0.636    80 N    0.635
                            87 N    0.632
    62   6 C    3.930 --    63 C    1.366   100 C    1.364   102 H    0.970
    63   6 C    3.923 --    62 C    1.366    67 N    1.200    64 C    1.173
    64   6 C    3.959 --    65 C    1.651    63 C    1.173   103 H    0.975
    65   6 C    3.963 --    64 C    1.651    66 C    1.176   104 H    0.972
    66   6 C    3.919 --    68 C    1.317    67 N    1.215    65 C    1.176
    67   7 N    3.348 --    66 C    1.215    63 C    1.200    61 Co   0.636
    68   6 C    3.932 --    77 C    1.335    66 C    1.317    69 C    1.026
    69   6 C    3.986 --    76 C    1.385    70 C    1.383    68 C    1.026
    70   6 C    3.988 --    71 C    1.470    69 C    1.383   105 H    0.972
                            75 C    0.100
    71   6 C    3.988 --    70 C    1.470    72 C    1.371   106 H    0.968
                            76 C    0.101
    72   6 C    3.984 --    75 C    1.379    71 C    1.371    73 C    1.048
    73   6 C    3.864 --    74 O    1.809    72 C    1.048   107 H    0.942
    74   8 O    2.005 --    73 C    1.809
    75   6 C    3.993 --    76 C    1.464    72 C    1.379   108 H    0.971
                            70 C    0.100
    76   6 C    3.988 --    75 C    1.464    69 C    1.385   109 H    0.972
                            71 C    0.101
    77   6 C    3.915 --    68 C    1.335    80 N    1.191    78 C    1.179
    78   6 C    3.957 --    79 C    1.640    77 C    1.179   110 H    0.973
    79   6 C    3.962 --    78 C    1.640    81 C    1.189   111 H    0.973
    80   7 N    3.348 --    81 C    1.233    77 C    1.191    61 Co   0.635
    81   6 C    3.901 --    82 C    1.257    80 N    1.233    79 C    1.189
    82   6 C    3.935 --    83 C    1.260    81 C    1.257   128 C    1.194
    83   6 C    3.901 --    82 C    1.260    87 N    1.229    84 C    1.190
    84   6 C    3.961 --    85 C    1.637    83 C    1.190   112 H    0.973
    85   6 C    3.958 --    84 C    1.637    86 C    1.182   113 H    0.973
    86   6 C    3.916 --    88 C    1.327    87 N    1.197    85 C    1.182
    87   7 N    3.349 --    83 C    1.229    86 C    1.197    61 Co   0.632
    88   6 C    3.932 --    86 C    1.327    97 C    1.319    89 C    1.033
    89   6 C    3.986 --    90 C    1.382    96 C    1.381    88 C    1.033
    90   6 C    3.987 --    91 C    1.466    89 C    1.382   114 H    0.972
                            95 C    0.101
    91   6 C    3.993 --    90 C    1.466    92 C    1.378   115 H    0.971
    92   6 C    3.983 --    91 C    1.378    95 C    1.370    93 C    1.048
    93   6 C    3.864 --    94 O    1.809    92 C    1.048   116 H    0.942
    94   8 O    2.004 --    93 C    1.809
    95   6 C    3.988 --    96 C    1.471    92 C    1.370   117 H    0.968
                            90 C    0.101
    96   6 C    3.987 --    95 C    1.471    89 C    1.381   118 H    0.972
    97   6 C    3.920 --    88 C    1.319   101 N    1.212    98 C    1.175
    98   6 C    3.963 --    99 C    1.650    97 C    1.175   119 H    0.973
    99   6 C    3.960 --    98 C    1.650   100 C    1.174   120 H    0.975
   100   6 C    3.923 --    62 C    1.364   101 N    1.202    99 C    1.174
   101   7 N    3.346 --    97 C    1.212   100 C    1.202    61 Co   0.639
   102   1 H    1.000 --    62 C    0.970
   103   1 H    0.997 --    64 C    0.975
   104   1 H    1.004 --    65 C    0.972
   105   1 H    1.003 --    70 C    0.972
   106   1 H    1.005 --    71 C    0.968
   107   1 H    1.010 --    73 C    0.942
   108   1 H    1.000 --    75 C    0.971
   109   1 H    1.003 --    76 C    0.972
   110   1 H    1.003 --    78 C    0.973
   111   1 H    1.001 --    79 C    0.973
   112   1 H    1.001 --    84 C    0.973
   113   1 H    1.003 --    85 C    0.973
   114   1 H    1.004 --    90 C    0.972
   115   1 H    1.000 --    91 C    0.971
   116   1 H    1.010 --    93 C    0.942
   117   1 H    1.005 --    95 C    0.968
   118   1 H    1.004 --    96 C    0.972
   119   1 H    1.003 --    98 C    0.973
   120   1 H    0.997 --    99 C    0.975
   121   6 C    3.871 --   122 C    2.431    22 C    1.194   124 C    0.185
   122   6 C    3.931 --   121 C    2.431   123 C    1.350
   123   6 C    3.886 --   124 C    2.324   122 C    1.350   126 C    0.180
   124   6 C    3.920 --   123 C    2.324   125 C    1.376   121 C    0.185
   125   6 C    3.920 --   126 C    2.324   124 C    1.376   128 C    0.185
   126   6 C    3.886 --   125 C    2.324   127 C    1.350   123 C    0.180
   127   6 C    3.931 --   128 C    2.431   126 C    1.350
   128   6 C    3.871 --   127 C    2.431    82 C    1.194   125 C    0.185
 ---------------------------------------------------------------------------

           -------------------------------------------------
          | TOTAL ENERGY             -232.205915162802 Eh   |
          | GRADIENT NORM               0.000304567271 Eh/α |
          | HOMO-LUMO GAP               0.005705754052 eV   |
           -------------------------------------------------

 * finished run on 2022/07/29 at 22:56:34.916
