   * xtb version 6.5.1 (b24c23e) compiled by 'conda@728c89f4b128' on 2022-07-12
          program call               : xtb Co_Py_C6_2.xyz --gfn 1 --opt -T 48

   ID    Z sym.   atoms
    1   27 Co     1, 55
    2    6 C      2-6, 8-11, 13-17, 19-24, 26-29, 31-36, 56-60, 62-65, 67-71,
                  73-78, 80-83, 85-90, 109-114
    3    7 N      7, 12, 18, 25, 30, 37, 61, 66, 72, 79, 84, 91
    4    1 H      38-54, 92-108
########################################################################
[WARNING] Please study the warnings concerning your input carefully
-1- prog_main_parseArguments: Unknown option '-T' provided
########################################################################

          :  Hamiltonian                  GFN1-xTB          :
 * total energy  :  -202.5099194 Eh     change       -0.1573142E-09 Eh
 * total energy  :  -202.8272747 Eh     change       -0.3173553E+00 Eh
 * total energy  :  -202.9003404 Eh     change       -0.7306570E-01 Eh
 * total energy  :  -202.9329631 Eh     change       -0.3262266E-01 Eh
 * total energy  :  -202.9438961 Eh     change       -0.1093298E-01 Eh
 * total energy  :  -202.9501157 Eh     change       -0.6219614E-02 Eh
 * total energy  :  -202.9530853 Eh     change       -0.2969636E-02 Eh
 * total energy  :  -202.9546648 Eh     change       -0.1579482E-02 Eh
 * total energy  :  -202.9557439 Eh     change       -0.1079112E-02 Eh
 * total energy  :  -202.9564891 Eh     change       -0.7451413E-03 Eh
 * total energy  :  -202.9586054 Eh     change       -0.9406322E-05 Eh
 * total energy  :  -202.9586151 Eh     change       -0.9660229E-05 Eh
 * total energy  :  -202.9586255 Eh     change       -0.1037723E-04 Eh
 * total energy  :  -202.9586337 Eh     change       -0.8251219E-05 Eh
 * total energy  :  -202.9586404 Eh     change       -0.6741032E-05 Eh
 * total energy  :  -202.9586482 Eh     change       -0.7782125E-05 Eh
 * total energy  :  -202.9586561 Eh     change       -0.7851294E-05 Eh
 * total energy  :  -202.9586616 Eh     change       -0.5539001E-05 Eh
 * total energy  :  -202.9586654 Eh     change       -0.3791446E-05 Eh
   *** GEOMETRY OPTIMIZATION CONVERGED AFTER 39 ITERATIONS ***

 final structure:
================
114
 xtb: 6.5.1 (b24c23e)
Co          11.11350203691523       -0.03937859262994       -0.00705217502074
C            7.73894289764496       -0.06911656518402       -0.09621680352370
C            8.40661319233700       -1.26822089718976       -0.21938548837130
C            7.74895705243439       -2.53151492887595       -0.36228135630573
C            8.70283672740273       -3.48238385004896       -0.23066987322650
C            9.94519629364028       -2.79821083541295       -0.01977394280384
N            9.75957943650693       -1.43980245646305       -0.06301705426448
C           11.12863669890839       -3.42811827718686        0.34028987478615
C           11.13143359627721       -4.89849008344916        0.52366184635602
C           11.34814126781840       -5.46802044610255        1.77725938066677
C           11.33826182237021       -6.84850763120082        1.90157973781985
N           11.13466666072970       -7.66662187253584        0.87415947535221
C           10.93031580931398       -7.13074588834442       -0.32475175869413
C           10.91741704362656       -5.76281743979761       -0.54859071800560
C           12.30919499779572       -2.72702654548949        0.53054112423359
C           13.56009075378886       -3.34238185983424        0.85863813904045
C           14.51113043285772       -2.38619066369011        0.73314957228447
N           12.49117807280359       -1.39160965955651        0.24865575883050
C           13.84007594422158       -1.19126649973278        0.33000202753705
C           14.50984460313435       -0.02517086926061       -0.05071899538814
C           13.82214740882750        1.14057862218364       -0.39682547610505
C           14.47253960357693        2.34622312239212       -0.80216058188544
C           13.51356048899115        3.30058572787859       -0.87047037048455
C           12.28073506966243        2.67422124752529       -0.49880897986301
N           12.47418065957051        1.33052068277141       -0.27205162456116
C           11.08884710807736        3.35672066303469       -0.30673392863564
C           11.07841150930822        4.83128516988432       -0.42765219889071
C           10.27420267486511        5.47483724681557       -1.36785602558884
C           10.30127039631049        6.85820716447168       -1.44625046142724
N           11.05960352206902        7.61363974370063       -0.65829983997069
C           11.82744950567368        7.00837064814080        0.24205490923008
C           11.87332151992417        5.63138184397354        0.39240847660874
C            9.90237217797322        2.69539905665146       -0.01821465887209
C            8.64988562323096        3.35227345916210        0.21690737802218
C            7.70336159299716        2.38526374567981        0.26048760868261
C            8.38096183965778        1.13919232859377        0.07034519017776
N            9.73443537018981        1.33455417780716       -0.04180614454514
H            6.65557275386085       -0.07858525744086       -0.11624940752361
H            6.68897755059657       -2.65373130306942       -0.51833186498836
H            8.58635295096980       -4.55367544893278       -0.25269987391544
H           11.50762262823470       -4.83886099579890        2.64478192124154
H           11.50055580824300       -7.31653217286184        2.86813531525996
H           10.76971519923532       -7.82520538723025       -1.14420831443860
H           10.75827756610733       -5.37047851000572       -1.54588432082211
H           13.68578797070993       -4.37890157277551        1.12560631939293
H           15.57568822820709       -2.46964478615057        0.88128699208445
H           15.52916914244484        2.43577685173747       -0.99630489868979
H           13.61974412566029        4.33720107660656       -1.14556586820872
H            9.64949657660776        4.89890834694871       -2.04016619101106
H            9.68745172290044        7.38159094577211       -2.17348870735648
H           12.43375081609259        7.65251718481680        0.87212254354667
H           12.50603319831466        5.18208352819584        1.14853756262218
H            8.52471691134807        4.41708902011568        0.32826056014805
H            6.63941918404039        2.48631944822213        0.40434467703834
Co          27.07652163981721        0.03462128979062       -0.01859295165286
C           30.45127970317834        0.03829908154012       -0.10620149081824
C           29.78403672000550        1.14941534798083       -0.57419846132175
C           30.44225152504881        2.31669736575463       -1.07725611661947
C           29.48829662746056        3.26430264287414       -1.23009380401221
C           28.24536553289339        2.67064023756387       -0.83168474674211
N           28.43078271432351        1.35852378360134       -0.47728911384846
C           27.06140763971091        3.37769278668486       -0.67283458256273
C           27.05853851879371        4.83779405238567       -0.92524301657234
C           26.83958907974864        5.74721021667241        0.10813951464848
C           26.84912823132080        7.10416779365256       -0.17442945228777
N           27.05448462862221        7.58817222702419       -1.39505758272080
C           27.26108446551594        6.72686235878209       -2.38589693227203
C           27.27448882759873        5.35297036671351       -2.20215881235379
C           25.88038021592550        2.76213962457861       -0.28847598942278
C           24.62926692894519        3.44622720222889       -0.15518546687517
C           23.67825979748851        2.49488351964559        0.00307752677248
N           25.69851423219829        1.40254725810055       -0.16907510378774
C           24.34951528267603        1.23444431017205       -0.03367807900317
C           23.68017533672323        0.00780216498580       -0.05861671419899
C           24.36829430060143       -1.20799143321037       -0.05110573716198
C           23.71810702532946       -2.47947674777194       -0.08993553508887
C           24.67711399025717       -3.41254876714343        0.12171963365737
C           25.90969623327161       -2.70513619531033        0.29678878462206
N           25.71615826036056       -1.35340629791981        0.12405929909212
C           27.10113086761720       -3.30225280075417        0.68042692141468
C           27.11165350357127       -4.74837179106380        0.99303983671912
C           27.91744103957424       -5.63697875680035        0.28172388462304
C           27.89084001357806       -6.98337593326522        0.60899600743278
N           27.13153668140948       -7.47751485208261        1.58157117757673
C           26.36212867790026       -6.63710550671048        2.26589368186504
C           26.31564912377467       -5.27594810408768        2.00919628031740
C           28.28718674474305       -2.58522684888548        0.76692678725752
C           29.53901674340005       -3.14501909216304        1.18529047564309
C           30.48564429079299       -2.20658618381983        0.94830378425623
C           29.80872527479433       -1.06971972668101        0.40305686664629
N           28.45545243305338       -1.28980051663463        0.34960481656219
H           31.53469005786997        0.04203871266086       -0.12595749547056
H           31.50258005485810        2.38860819171214       -1.25995370515274
H           29.60502071429146        4.28285596958371       -1.56272760349897
H           26.67858260727630        5.39746307148560        1.12087098793005
H           26.68499833358202        7.83299305103223        0.61391306856524
H           27.42311490494535        7.15304001978827       -3.37164103367783
H           27.43546330085452        4.68760760255786       -3.04193631458605
H           24.50337808145312        4.51551395294775       -0.20230667666322
H           22.61362485450907        2.61788220236152        0.11968975376702
H           22.66156205777442       -2.62148599344001       -0.25038013229662
H           24.57115501025197       -4.48443006551853        0.15872258690377
H           28.54310165269012       -5.28102007832484       -0.52808956891961
H           28.50591943653565       -7.69521493389740        0.06628058255704
H           25.75508877682634       -7.07057999566663        3.05527355994694
H           25.68169074748902       -4.62659031976386        2.60110378816355
H           29.66371322755680       -4.13157691300837        1.60128604423005
H           31.54924405106393       -2.26107476083323        1.11761616280643
C           19.70947378406462       -0.00843290684390       -0.09736213466562
C           18.48049076551669       -0.01210671660763       -0.09579619300816
C           17.13690061664426       -0.01565086263432       -0.08892676240900
C           15.91258927236266       -0.02203103922548       -0.07240244495045
C           21.05305665313942       -0.00412883735743       -0.09040718848409
C           22.27743844151729       -0.00214218421346       -0.07847935845506

          :  Hamiltonian                  GFN1-xTB          :
         :: total energy            -202.958665412729 Eh    ::
         :: gradient norm              0.000418526040 Eh/a0 ::
         :: HOMO-LUMO gap              0.004837766923 eV    ::
         :: SCC energy              -206.211881912672 Eh    ::
         :: repulsion energy           3.355199810693 Eh    ::

    * Orbital Energies and Occupations

         #    Occupation            Energy/Eh            Energy/eV
      -------------------------------------------------------------
         1        2.0000           -0.7778596             -21.1666
       ...           ...                  ...                  ...
       176        2.0000           -0.4220254             -11.4839
       177        2.0000           -0.4216600             -11.4740
       178        2.0000           -0.4034387             -10.9781
       179        2.0000           -0.4034360             -10.9781
       180        2.0000           -0.4029959             -10.9661
       181        2.0000           -0.4023831             -10.9494
       182        2.0000           -0.4020776             -10.9411
       183        1.9998           -0.3989793             -10.8568
       184        1.9998           -0.3989777             -10.8567
       185        1.9998           -0.3988999             -10.8546
       186        1.9998           -0.3988990             -10.8546
       187        1.8586           -0.3927600             -10.6875
       188        1.1177           -0.3905378             -10.6271 (HOMO)
       189        1.0247           -0.3903600             -10.6222 (LUMO)
       190                         -0.3453910              -9.3986
       191                         -0.3352433              -9.1224
       192                         -0.3352411              -9.1224
       193                         -0.3337284              -9.0812
       194                         -0.3078061              -8.3758
       195                         -0.3017502              -8.2110
       196                         -0.3009036              -8.1880
       197                         -0.3008540              -8.1867
       198                         -0.2930933              -7.9755
       199                         -0.2841910              -7.7332
       ...                                ...                  ...
       398                          1.5696306              42.7118
      -------------------------------------------------------------
                  HL-Gap            0.0001778 Eh            0.0048 eV

Wiberg/Mayer (AO) data.
largest (>0.10) Wiberg bond orders for each atom

     #   Z sym  total        # sym  WBO       # sym  WBO       # sym  WBO
 ---------------------------------------------------------------------------
     1  27 Co   3.040 --     7 N    0.640    37 N    0.637    25 N    0.635
                            18 N    0.633
     2   6 C    3.928 --     3 C    1.367    36 C    1.363    38 H    0.970
     3   6 C    3.924 --     2 C    1.367     7 N    1.200     4 C    1.173
     4   6 C    3.960 --     5 C    1.651     3 C    1.173    39 H    0.975
     5   6 C    3.963 --     4 C    1.651     6 C    1.176    40 H    0.972
     6   6 C    3.920 --     8 C    1.320     7 N    1.212     5 C    1.176
     7   7 N    3.346 --     6 C    1.212     3 C    1.200     1 Co   0.640
     8   6 C    3.932 --    15 C    1.334     6 C    1.320     9 C    1.022
     9   6 C    3.986 --    14 C    1.395    10 C    1.395     8 C    1.022
                            12 N    0.107
    10   6 C    3.987 --    11 C    1.441     9 C    1.395    41 H    0.973
                            13 C    0.109
    11   6 C    3.972 --    10 C    1.441    12 N    1.416    42 H    0.972
                            14 C    0.109
    12   7 N    3.031 --    13 C    1.416    11 C    1.416     9 C    0.107
    13   6 C    3.972 --    14 C    1.441    12 N    1.416    43 H    0.972
                            10 C    0.109
    14   6 C    3.987 --    13 C    1.441     9 C    1.395    44 H    0.973
                            11 C    0.109
    15   6 C    3.916 --     8 C    1.334    18 N    1.192    16 C    1.180
    16   6 C    3.958 --    17 C    1.639    15 C    1.180    45 H    0.973
    17   6 C    3.962 --    16 C    1.639    19 C    1.189    46 H    0.973
    18   7 N    3.349 --    19 C    1.232    15 C    1.192     1 Co   0.633
    19   6 C    3.902 --    20 C    1.257    18 N    1.232    17 C    1.189
    20   6 C    3.934 --    21 C    1.260    19 C    1.257   112 C    1.192
    21   6 C    3.902 --    20 C    1.260    25 N    1.230    22 C    1.190
    22   6 C    3.961 --    23 C    1.637    21 C    1.190    47 H    0.973
    23   6 C    3.958 --    22 C    1.637    24 C    1.181    48 H    0.973
    24   6 C    3.917 --    26 C    1.330    25 N    1.194    23 C    1.181
    25   7 N    3.347 --    21 C    1.230    24 C    1.194     1 Co   0.635
    26   6 C    3.932 --    24 C    1.330    33 C    1.317    27 C    1.031
    27   6 C    3.986 --    32 C    1.392    28 C    1.391    26 C    1.031
                            30 N    0.106
    28   6 C    3.986 --    29 C    1.442    27 C    1.391    49 H    0.973
                            31 C    0.108
    29   6 C    3.972 --    28 C    1.442    30 N    1.415    50 H    0.972
                            32 C    0.108
    30   7 N    3.030 --    31 C    1.416    29 C    1.415    27 C    0.106
    31   6 C    3.972 --    32 C    1.442    30 N    1.416    51 H    0.972
                            28 C    0.108
    32   6 C    3.987 --    31 C    1.442    27 C    1.392    52 H    0.973
                            29 C    0.108
    33   6 C    3.921 --    26 C    1.317    37 N    1.212    34 C    1.176
    34   6 C    3.963 --    35 C    1.648    33 C    1.176    53 H    0.973
    35   6 C    3.959 --    34 C    1.648    36 C    1.175    54 H    0.975
    36   6 C    3.924 --     2 C    1.363    37 N    1.201    35 C    1.175
    37   7 N    3.347 --    33 C    1.212    36 C    1.201     1 Co   0.637
    38   1 H    1.000 --     2 C    0.970
    39   1 H    0.997 --     4 C    0.975
    40   1 H    1.004 --     5 C    0.972
    41   1 H    1.003 --    10 C    0.973
    42   1 H    1.013 --    11 C    0.972
    43   1 H    1.013 --    13 C    0.972
    44   1 H    1.003 --    14 C    0.973
    45   1 H    1.004 --    16 C    0.973
    46   1 H    1.001 --    17 C    0.973
    47   1 H    1.001 --    22 C    0.973
    48   1 H    1.003 --    23 C    0.973
    49   1 H    1.004 --    28 C    0.973
    50   1 H    1.013 --    29 C    0.972
    51   1 H    1.013 --    31 C    0.972
    52   1 H    1.004 --    32 C    0.973
    53   1 H    1.004 --    34 C    0.973
    54   1 H    0.997 --    35 C    0.975
    55  27 Co   3.040 --    61 N    0.640    91 N    0.637    79 N    0.635
                            72 N    0.633
    56   6 C    3.928 --    57 C    1.367    90 C    1.363    92 H    0.970
    57   6 C    3.924 --    56 C    1.367    61 N    1.200    58 C    1.173
    58   6 C    3.960 --    59 C    1.651    57 C    1.173    93 H    0.975
    59   6 C    3.963 --    58 C    1.651    60 C    1.176    94 H    0.972
    60   6 C    3.920 --    62 C    1.320    61 N    1.212    59 C    1.176
    61   7 N    3.346 --    60 C    1.212    57 C    1.200    55 Co   0.640
    62   6 C    3.932 --    69 C    1.334    60 C    1.320    63 C    1.022
    63   6 C    3.986 --    68 C    1.395    64 C    1.395    62 C    1.022
                            66 N    0.107
    64   6 C    3.987 --    65 C    1.441    63 C    1.395    95 H    0.973
                            67 C    0.109
    65   6 C    3.972 --    64 C    1.441    66 N    1.416    96 H    0.972
                            68 C    0.109
    66   7 N    3.031 --    67 C    1.416    65 C    1.416    63 C    0.107
    67   6 C    3.972 --    68 C    1.441    66 N    1.416    97 H    0.972
                            64 C    0.109
    68   6 C    3.987 --    67 C    1.441    63 C    1.395    98 H    0.973
                            65 C    0.109
    69   6 C    3.916 --    62 C    1.334    72 N    1.192    70 C    1.180
    70   6 C    3.958 --    71 C    1.639    69 C    1.180    99 H    0.973
    71   6 C    3.962 --    70 C    1.639    73 C    1.189   100 H    0.973
    72   7 N    3.349 --    73 C    1.232    69 C    1.192    55 Co   0.633
    73   6 C    3.902 --    74 C    1.257    72 N    1.232    71 C    1.189
    74   6 C    3.934 --    75 C    1.260    73 C    1.257   114 C    1.193
    75   6 C    3.902 --    74 C    1.260    79 N    1.230    76 C    1.190
    76   6 C    3.961 --    77 C    1.637    75 C    1.190   101 H    0.973
    77   6 C    3.958 --    76 C    1.637    78 C    1.181   102 H    0.973
    78   6 C    3.917 --    80 C    1.331    79 N    1.194    77 C    1.181
    79   7 N    3.347 --    75 C    1.230    78 C    1.194    55 Co   0.635
    80   6 C    3.932 --    78 C    1.331    87 C    1.317    81 C    1.031
    81   6 C    3.986 --    86 C    1.392    82 C    1.391    80 C    1.031
                            84 N    0.106
    82   6 C    3.987 --    83 C    1.442    81 C    1.391   103 H    0.973
                            85 C    0.108
    83   6 C    3.972 --    82 C    1.442    84 N    1.415   104 H    0.972
                            86 C    0.108
    84   7 N    3.030 --    85 C    1.416    83 C    1.415    81 C    0.106
    85   6 C    3.972 --    86 C    1.442    84 N    1.416   105 H    0.972
                            82 C    0.108
    86   6 C    3.987 --    85 C    1.442    81 C    1.392   106 H    0.973
                            83 C    0.108
    87   6 C    3.921 --    80 C    1.317    91 N    1.212    88 C    1.176
    88   6 C    3.963 --    89 C    1.648    87 C    1.176   107 H    0.973
    89   6 C    3.959 --    88 C    1.648    90 C    1.175   108 H    0.975
    90   6 C    3.924 --    56 C    1.363    91 N    1.201    89 C    1.175
    91   7 N    3.346 --    87 C    1.212    90 C    1.201    55 Co   0.637
    92   1 H    1.000 --    56 C    0.970
    93   1 H    0.997 --    58 C    0.975
    94   1 H    1.004 --    59 C    0.972
    95   1 H    1.003 --    64 C    0.973
    96   1 H    1.013 --    65 C    0.972
    97   1 H    1.013 --    67 C    0.972
    98   1 H    1.003 --    68 C    0.973
    99   1 H    1.004 --    70 C    0.973
   100   1 H    1.001 --    71 C    0.973
   101   1 H    1.001 --    76 C    0.973
   102   1 H    1.003 --    77 C    0.973
   103   1 H    1.004 --    82 C    0.973
   104   1 H    1.013 --    83 C    0.972
   105   1 H    1.013 --    85 C    0.972
   106   1 H    1.004 --    86 C    0.973
   107   1 H    1.004 --    88 C    0.973
   108   1 H    0.997 --    89 C    0.975
   109   6 C    3.920 --   110 C    2.359   113 C    1.340   112 C    0.189
   110   6 C    3.920 --   109 C    2.359   111 C    1.340   114 C    0.189
   111   6 C    3.930 --   112 C    2.442   110 C    1.340
   112   6 C    3.884 --   111 C    2.442    20 C    1.192   109 C    0.189
   113   6 C    3.930 --   114 C    2.442   109 C    1.340
   114   6 C    3.884 --   113 C    2.442    74 C    1.193   110 C    0.189
 ---------------------------------------------------------------------------

           -------------------------------------------------
          | TOTAL ENERGY             -202.958665412729 Eh   |
          | GRADIENT NORM               0.000418526040 Eh/α |
          | HOMO-LUMO GAP               0.004837766923 eV   |
           -------------------------------------------------

 * finished run on 2022/07/29 at 22:56:00.636
