   * xtb version 6.5.1 (b24c23e) compiled by 'conda@728c89f4b128' on 2022-07-12
          program call               : xtb Fe_NMA_C2_3.xyz --gfn 1 --opt -T 48

   ID    Z sym.   atoms
    1   26 Fe     1, 67, 137
    2    6 C      2-6, 8-12, 14-19, 21-26, 28-32, 34-40, 68-72, 74-78, 80-85,
                  87-92, 94-98, 100-106, 133-136, 138-142, 144-148, 150-155,
                  157-162, 164-168, 170-176
    3    7 N      7, 13, 20, 27, 33, 41, 73, 79, 86, 93, 99, 107, 143, 149,
                  156, 163, 169, 177
    4    1 H      42-66, 108-132, 178-201
########################################################################
[WARNING] Please study the warnings concerning your input carefully
-1- prog_main_parseArguments: Unknown option '-T' provided
########################################################################

          :  Hamiltonian                  GFN1-xTB          :
 * total energy  :  -307.7963560 Eh     change       -0.1506208E-07 Eh
 * total energy  :  -324.5049925 Eh     change       -0.1670864E+02 Eh
 * total energy  :  -326.6189821 Eh     change       -0.2113990E+01 Eh
 * total energy  :  -327.9593122 Eh     change       -0.1340330E+01 Eh
 * total energy  :  -328.6403218 Eh     change       -0.6810096E+00 Eh
 * total energy  :  -329.0173593 Eh     change       -0.3770376E+00 Eh
 * total energy  :  -329.2332816 Eh     change       -0.2159222E+00 Eh
 * total energy  :  -329.3701107 Eh     change       -0.1368291E+00 Eh
 * total energy  :  -329.4719233 Eh     change       -0.1018126E+00 Eh
 * total energy  :  -329.5720406 Eh     change       -0.1001173E+00 Eh
 * total energy  :  -330.4205962 Eh     change       -0.1734310E-04 Eh
 * total energy  :  -330.4206305 Eh     change       -0.3427173E-04 Eh
 * total energy  :  -330.4206474 Eh     change       -0.1693467E-04 Eh
 * total energy  :  -330.4206696 Eh     change       -0.2222513E-04 Eh
 * total energy  :  -330.4206809 Eh     change       -0.1125195E-04 Eh
 * total energy  :  -330.4206892 Eh     change       -0.8385584E-05 Eh
 * total energy  :  -330.4206982 Eh     change       -0.8991865E-05 Eh
 * total energy  :  -330.4207043 Eh     change       -0.6044584E-05 Eh
 * total energy  :  -330.4207090 Eh     change       -0.4744222E-05 Eh
   *** GEOMETRY OPTIMIZATION CONVERGED AFTER 71 ITERATIONS ***

 final structure:
================
201
 xtb: 6.5.1 (b24c23e)
Fe          38.65215112145248        0.07217094400457        0.01658586176484
C           35.26553434694259        0.12893785107588       -0.02119386774941
C           35.91448790161732        0.90557179551401        0.91708652372502
C           35.24149875552539        1.70504905022491        1.89506021066346
C           36.19754002516272        2.42066859680197        2.53478492433413
C           37.45164100416218        2.06513641743425        1.93670119214847
N           37.26960787616722        1.10158736353216        0.98365906683213
C           38.66646515826236        2.67286957926235        2.24692641065013
C           38.66969046499513        3.80642865171431        3.19637330853112
C           37.91342974206380        4.95384354048364        2.93803230468068
C           37.92151113148395        6.01892150479587        3.81784051510805
C           38.67608087544161        5.96286174255574        4.99656293828359
N           38.68918608362098        7.07425667308376        5.82480871573486
C           39.03326987658495        6.92489694483172        7.23216445136420
C           39.43616828211879        4.81907086161517        5.25890369312131
C           39.43100715444253        3.76119111674986        4.36616676755927
C           39.87184440747338        2.26131900303848        1.69307100444640
C           41.12785000900038        2.90275601140642        1.94308736185510
C           42.07656165544144        2.15414301536395        1.33039026425422
N           40.05329534112105        1.16208559948482        0.88719459854021
C           41.39981819431200        1.06832285397402        0.69551444866024
C           42.06427379648776        0.01166314642724        0.05543341630002
C           41.37768215370510       -1.02607453452024       -0.59250271224626
C           42.02819121063163       -2.14014346319664       -1.20513249702469
C           41.06799659317808       -2.85249803349436       -1.84316440126950
C           39.83199348806264       -2.16136692077346       -1.62944877406821
N           40.03362851247957       -1.07031616219441       -0.81740691871102
C           38.62827064076383       -2.52171857366740       -2.22198950900839
C           38.61667856588709       -3.64311678114023       -3.18537300724206
C           39.41438183578122       -3.61016217140505       -4.33130237303570
C           39.40367304557329       -4.65261748181914       -5.24165852735370
C           38.60162439683487       -5.77518474878067       -5.01449898833938
N           38.51940880664833       -6.82685378979329       -5.91331200846294
C           39.62408774940619       -7.08639631370838       -6.82663574256496
C           37.79814689004938       -5.81253385683222       -3.86771342390291
C           37.80328684118002       -4.76043562287818       -2.97235475377604
C           37.42931002764585       -1.86995072977072       -1.94106924401107
C           36.17860382566899       -2.17572994869297       -2.57309497928471
C           35.23229707064131       -1.43480729734360       -1.94797481395454
C           35.90875065257068       -0.66685504314100       -0.94736908150148
N           37.25739475233500       -0.90859601454636       -0.98380342659670
H           34.18138481814185        0.14728956236384       -0.03323620277736
H           34.17504577696481        1.70656856214406        2.05648665723879
H           36.07617795312790        3.12320671001985        3.34342467533866
H           37.33273489986765        5.01631970586570        2.02422579845962
H           37.34150225765918        6.90909068652811        3.59801127787518
H           37.88921178111512        7.67920543728816        5.68393895711352
H           40.08921085767167        6.67128484744577        7.33430623067177
H           38.42777499745912        6.14921316049058        7.71482559189491
H           38.85486269648751        7.88030721856895        7.72557822316273
H           40.03481428848609        4.74880774387509        6.15879670456064
H           40.01066937957861        2.87228455802763        4.59030897941787
H           41.25909973377387        3.81100032078317        2.50822632390374
H           43.14146964411155        2.31346829914227        1.30663432628661
H           43.08438095156251       -2.34316000455594       -1.14769597662449
H           41.17841598700942       -3.76694846319348       -2.40288950758895
H           40.03342841359254       -2.74070724915485       -4.52412154794262
H           40.01929387474434       -4.58549269981139       -6.13024945999694
H           38.15438898286588       -7.67438335955365       -5.49602228430170
H           39.69259846496900       -6.28833045630621       -7.56703119107284
H           39.42089556840174       -8.02458911443395       -7.34292024842119
H           40.57786814153308       -7.16562512657887       -6.29262690566115
H           37.17025878278433       -6.67820488674103       -3.68462826977536
H           37.18984559243260       -4.81206372181309       -2.07949542673499
H           36.05233898692873       -2.86474738843762       -3.39245615100174
H           34.17063954517300       -1.39830216660536       -2.13475140006479
Fe          60.34149482553032       -0.00584037193554       -0.07794481645535
C           63.72942864093075       -0.01163827921137       -0.09495351259462
C           63.07809045117116       -1.09212643316323       -0.65449387774499
C           63.74801337560682       -2.22949374652552       -1.20781403508067
C           62.79256837516630       -3.00209796522903       -1.77839287738722
C           61.54221961418216       -2.32719159349946       -1.58323896731222
N           61.72483224115117       -1.18674992552601       -0.85107595077085
C           60.33156543701021       -2.74886809995627       -2.12862585515807
C           60.32998868008716       -3.92634967635092       -3.02314284313444
C           61.10673192291856       -3.93955039128475       -4.18568520338951
C           61.10440795191856       -5.03690762865071       -5.02504283171079
C           60.33552865040119       -6.16648777683491       -4.71767371123023
N           60.33174665432225       -7.22572684107314       -5.61248187336844
C           59.97884559295836       -8.56107062876898       -5.14941810562019
C           59.55329555259916       -6.15706647560244       -3.55897944297752
C           59.55258783880296       -5.04864281927096       -2.72979871905826
C           59.12908093663508       -2.10394970425891       -1.86932149986501
C           57.87934103833005       -2.47204938004361       -2.46409702580806
C           56.92850812241324       -1.70393128303029       -1.87928793423322
N           58.94305387528058       -1.07888816379570       -0.97195372758446
C           57.59750392782663       -0.86027834858954       -0.94111088036409
C           56.92765663144891       -0.00608669534988       -0.05231321579757
C           57.61051126385308        0.85027267847429        0.82431977494268
C           56.95468690081763        1.69809802290625        1.76819088041428
C           57.91394050661557        2.46912660896309        2.33543775471312
C           59.15511121271955        2.09832166362993        1.72459068282463
N           58.95630510859738        1.06941927218941        0.83453611004454
C           60.36185758718300        2.74324664818874        1.96446661559253
C           60.37328734031144        3.92468953075274        2.85337919541030
C           59.59290202597534        5.04605673038394        2.56417818932724
C           59.60346401188832        6.15766590218711        3.38881632381521
C           60.38783241419440        6.16591221561130        4.54616257734349
N           60.46950495206070        7.26771532533939        5.38358656096482
C           59.37265077888075        8.22517071835369        5.42624019258706
C           61.17424821642328        5.04471995136973        4.83965587804071
C           61.16936144696187        3.94553286049884        4.00271440354792
C           61.56480493875128        2.31718318336846        1.40572430433333
C           62.81903231318044        2.98993756958686        1.58384388292026
C           63.76656126881279        2.21072831937790        1.00923974348773
C           63.08774667647735        1.07243010748211        0.46868320005223
N           61.73684280089387        1.17230631476467        0.67803147759859
H           64.81377085013247       -0.01384396172576       -0.10023684436619
H           64.81215958654013       -2.39812144166151       -1.15749940999005
H           62.91203191755282       -3.94734610573125       -2.28279176072011
H           61.69992012468895       -3.06849186631809       -4.44165092025863
H           61.70112924892004       -5.02863432839868       -5.93112859238602
H           61.14361313703453       -7.22982750784023       -6.21815643661224
H           58.91938199546751       -8.60046176126458       -4.89319563239810
H           60.57236031028834       -8.85418823607192       -4.27586478520388
H           60.16681052715393       -9.26048201618910       -5.96403117547617
H           58.94234881844864       -7.01267263474883       -3.29860572799290
H           58.95577564909460       -5.06107118855743       -1.82424158452009
H           57.75386034269244       -3.21626786416303       -3.23349794443768
H           55.86707258873412       -1.70100574434421       -2.06108630755744
H           55.89557424491921        1.69623221186701        1.96402173220378
H           57.79960189258804        3.21728631129817        3.10284530130828
H           58.98780984718940        5.05571472578314        1.66410625157504
H           59.00157196594949        7.01839325805360        3.12430017787617
H           60.81674140784605        7.03531465366012        6.30619639751115
H           59.32326690335461        8.77909846502572        4.48787504342365
H           59.56982746248559        8.92772321271922        6.23592618259651
H           58.41148213385872        7.72891510791605        5.60287797397029
H           61.78857602718514        5.04350623952184        5.73393754631616
H           61.76931090439994        3.07733690059731        4.25260871458203
H           62.94656301750951        3.93835603012950        2.08012971005323
H           64.83059819216615        2.37607086999593        0.94733794027150
C           43.46703818154297       -0.00220459227456        0.05813056198085
C           44.68778754751293       -0.00484417940001        0.05183655381401
C           54.30373619786283       -0.00630962088751       -0.03224865676860
C           55.52457312801018       -0.00616112506930       -0.04133188371775
Fe          49.49526884168103        0.01330424202432       -0.00782307643366
C           46.08938716442498       -0.00457781840526        0.04318546629720
C           46.76802542440570       -1.12817282083380       -0.45549543310917
C           46.11645499891046       -2.30172563429710       -0.94124168075062
C           47.06582049627026       -3.05208512375827       -1.55382123470249
C           48.30075283257449       -2.34032303219744       -1.42454767234730
N           48.10712768064690       -1.18690262339639       -0.70437924691709
C           49.47349570233859       -2.66569092461663       -2.09971357245213
C           49.45999064271869       -3.81920758519172       -3.02711957487340
C           49.23480752276388       -5.11505550162246       -2.55561780399877
C           49.22707591793748       -6.19005514822692       -3.42402865237913
C           49.43503056268013       -5.99845450386890       -4.79563342577324
N           49.36102879848922       -7.09932822465011       -5.63548407986988
C           50.02024943662168       -7.06078457420448       -6.93401744396372
C           49.64335596907147       -4.70134927902980       -5.27361254958315
C           49.66498332890532       -3.63194384831259       -4.39491547858301
C           50.65683674291312       -1.95031523658462       -1.94343751591842
C           51.88621079371840       -2.26509861729554       -2.60525021613670
C           52.84998399831426       -1.51361992885730       -2.01695316412948
N           50.86911117958925       -0.98544121553568       -0.98902885898230
C           52.21204851109164       -0.75178046149640       -0.99223359579338
C           52.90187933035202        0.00028067363596       -0.02710828111047
C           52.22680895604442        0.76233100592663        0.94034672491047
C           52.87129940356156        1.48766643924980        1.98660327480680
C           51.91919744776879        2.25487707549317        2.57621853155810
C           50.69618973685703        1.99924073411038        1.87935278380746
N           50.88928622715575        1.02793897303705        0.92903325281561
C           49.51502324662223        2.71645438192805        2.05765829610940
C           49.52604118667401        3.89471495697987        2.94429025307321
C           48.60653463223917        4.01449579852022        3.99008178422764
C           48.61287273877706        5.11515070113947        4.82801485772642
C           49.54556665972167        6.13950251947335        4.63521664064688
N           49.56009372493604        7.28954174877571        5.40576642965042
C           48.97951713519163        7.27986618686377        6.74095623577701
C           50.46147705829510        6.03146758067199        3.58038090785061
C           50.45556514271320        4.92364236465036        2.75607027060903
C           48.32412645857198        2.35959118503511        1.42940656592687
C           47.10494890492001        3.10469913548627        1.50469581672943
C           46.14045020934877        2.33119379529880        0.94434425702951
C           46.77424222468455        1.12551311735137        0.51903694180249
N           48.11519136554548        1.18065981920205        0.75758482502328
H           45.06467657334009       -2.50937110388537       -0.83697748386523
H           46.94120355750510       -3.99219637752356       -2.06575684709656
H           49.09029763785632       -5.28030304989809       -1.49369820703898
H           49.06073384955607       -7.19273992591248       -3.04469364625816
H           49.51760504880742       -7.97402607044788       -5.14921982141447
H           49.50431776688074       -6.36279924906079       -7.59466367346893
H           51.07085333400683       -6.76206993953991       -6.84359022988646
H           49.96513552379017       -8.05852519214500       -7.36934943890541
H           49.78559752894340       -4.51934493976086       -6.33170835594973
H           49.81853267174520       -2.62926681747858       -4.77854575848565
H           51.99702037431231       -2.98457412405579       -3.39999343882331
H           53.90260220928860       -1.48150931230966       -2.24245620108541
H           53.91642837499014        1.41066478307384        2.23588549779678
H           52.02896981713382        2.92540838463032        3.41300053562952
H           47.89281732010880        3.21689070869219        4.16533675412609
H           47.88969033665836        5.17181181589402        5.63222498119567
H           50.44363448608681        7.78249248356252        5.36644240624637
H           49.38637978837802        6.46538971141144        7.35106948041470
H           49.20859445632962        8.23422490742581        7.21505447063416
H           47.89584708971987        7.17327803106719        6.67663353357204
H           51.17777261553778        6.82892205762399        3.41295931685002
H           51.16138159308016        4.86196063948983        1.93507082338952
H           47.00551036486399        4.09351011868080        1.92195005707993
H           45.09417145940606        2.55450897367705        0.81858831616301

          :  Hamiltonian                  GFN1-xTB          :
         :: total energy            -330.420709053394 Eh    ::
         :: gradient norm              0.000678358938 Eh/a0 ::
         :: HOMO-LUMO gap              0.040709897807 eV    ::
         :: SCC energy              -335.525269661488 Eh    ::
         :: repulsion energy           5.284417751341 Eh    ::

    * Orbital Energies and Occupations

         #    Occupation            Energy/Eh            Energy/eV
      -------------------------------------------------------------
         1        2.0000           -0.7825876             -21.2953
       ...           ...                  ...                  ...
       294        2.0000           -0.3850847             -10.4787
       295        2.0000           -0.3844990             -10.4628
       296        1.9999           -0.3772475             -10.2654
       297        1.9945           -0.3737779             -10.1710
       298        1.9927           -0.3735134             -10.1638
       299        1.9927           -0.3735078             -10.1637
       300        1.9766           -0.3723924             -10.1333
       301        1.9705           -0.3721695             -10.1272
       302        1.9701           -0.3721582             -10.1269
       303        1.9682           -0.3720985             -10.1253
       304        1.9677           -0.3720843             -10.1249
       305        1.9675           -0.3720769             -10.1247
       306        1.0798           -0.3683310             -10.0228 (HOMO)
       307        0.3910           -0.3668349              -9.9821 (LUMO)
       308        0.3647           -0.3667536              -9.9799
       309        0.3641           -0.3667515              -9.9798
       310                         -0.3328165              -9.0564
       311                         -0.3199732              -8.7069
       312                         -0.3176978              -8.6450
       313                         -0.3154559              -8.5840
       314                         -0.3153534              -8.5812
       315                         -0.3082320              -8.3874
       316                         -0.2904784              -7.9043
       317                         -0.2854608              -7.7678
       ...                                ...                  ...
       671                          1.3360022              36.3545
      -------------------------------------------------------------
                  HL-Gap            0.0014961 Eh            0.0407 eV

Wiberg/Mayer (AO) data.
largest (>0.10) Wiberg bond orders for each atom

     #   Z sym  total        # sym  WBO       # sym  WBO       # sym  WBO
 ---------------------------------------------------------------------------
     1  26 Fe   3.093 --     7 N    0.657    41 N    0.656    27 N    0.651
                            20 N    0.651
     2   6 C    3.914 --     3 C    1.362    40 C    1.362    42 H    0.971
     3   6 C    3.928 --     2 C    1.362     7 N    1.208     4 C    1.176
     4   6 C    3.959 --     5 C    1.645     3 C    1.176    43 H    0.975
     5   6 C    3.963 --     4 C    1.645     6 C    1.178    44 H    0.973
     6   6 C    3.920 --     8 C    1.303     7 N    1.231     5 C    1.178
     7   7 N    3.370 --     6 C    1.231     3 C    1.208     1 Fe   0.657
     8   6 C    3.917 --    17 C    1.331     6 C    1.303     9 C    1.039
     9   6 C    3.984 --    16 C    1.381    10 C    1.370     8 C    1.039
    10   6 C    3.986 --    11 C    1.479     9 C    1.370    45 H    0.972
    11   6 C    3.987 --    10 C    1.479    12 C    1.343    46 H    0.971
    12   6 C    3.950 --    15 C    1.352    11 C    1.343    13 N    1.111
    13   7 N    3.179 --    12 C    1.111    14 C    0.971    47 H    0.931
    14   6 C    3.967 --    50 H    0.990    48 H    0.986    49 H    0.984
                            13 N    0.971
    15   6 C    3.988 --    16 C    1.466    12 C    1.352    51 H    0.970
    16   6 C    3.986 --    15 C    1.466     9 C    1.381    52 H    0.972
    17   6 C    3.918 --     8 C    1.331    20 N    1.201    18 C    1.182
    18   6 C    3.958 --    19 C    1.634    17 C    1.182    53 H    0.973
    19   6 C    3.961 --    18 C    1.634    21 C    1.192    54 H    0.966
    20   7 N    3.370 --    21 C    1.249    17 C    1.201     1 Fe   0.651
    21   6 C    3.910 --    20 N    1.249    22 C    1.246    19 C    1.192
    22   6 C    3.914 --    21 C    1.246    23 C    1.246   133 C    1.207
    23   6 C    3.910 --    27 N    1.249    22 C    1.246    24 C    1.192
    24   6 C    3.961 --    25 C    1.633    23 C    1.192    55 H    0.966
    25   6 C    3.958 --    24 C    1.633    26 C    1.182    56 H    0.973
    26   6 C    3.918 --    28 C    1.330    27 N    1.201    25 C    1.182
    27   7 N    3.370 --    23 C    1.249    26 C    1.201     1 Fe   0.651
    28   6 C    3.917 --    26 C    1.330    37 C    1.304    29 C    1.040
    29   6 C    3.984 --    30 C    1.380    36 C    1.370    28 C    1.040
    30   6 C    3.986 --    31 C    1.467    29 C    1.380    57 H    0.972
    31   6 C    3.988 --    30 C    1.467    32 C    1.351    58 H    0.970
    32   6 C    3.949 --    31 C    1.351    35 C    1.342    33 N    1.112
    33   7 N    3.179 --    32 C    1.112    34 C    0.971    59 H    0.931
    34   6 C    3.967 --    61 H    0.990    60 H    0.986    62 H    0.984
                            33 N    0.971
    35   6 C    3.987 --    36 C    1.479    32 C    1.342    63 H    0.971
    36   6 C    3.986 --    35 C    1.479    29 C    1.370    64 H    0.972
    37   6 C    3.920 --    28 C    1.304    41 N    1.230    38 C    1.178
    38   6 C    3.963 --    39 C    1.645    37 C    1.178    65 H    0.973
    39   6 C    3.959 --    38 C    1.645    40 C    1.176    66 H    0.975
    40   6 C    3.927 --     2 C    1.362    41 N    1.208    39 C    1.176
    41   7 N    3.370 --    37 C    1.230    40 C    1.208     1 Fe   0.656
    42   1 H    1.001 --     2 C    0.971
    43   1 H    0.998 --     4 C    0.975
    44   1 H    1.005 --     5 C    0.973
    45   1 H    1.005 --    10 C    0.972
    46   1 H    0.999 --    11 C    0.971
    47   1 H    0.965 --    13 N    0.931
    48   1 H    1.012 --    14 C    0.986
    49   1 H    1.003 --    14 C    0.984
    50   1 H    1.007 --    14 C    0.990
    51   1 H    1.001 --    15 C    0.970
    52   1 H    1.006 --    16 C    0.972
    53   1 H    1.005 --    18 C    0.973
    54   1 H    1.007 --    19 C    0.966
    55   1 H    1.007 --    24 C    0.966
    56   1 H    1.005 --    25 C    0.973
    57   1 H    1.005 --    30 C    0.972
    58   1 H    1.001 --    31 C    0.970
    59   1 H    0.965 --    33 N    0.931
    60   1 H    1.012 --    34 C    0.986
    61   1 H    1.007 --    34 C    0.990
    62   1 H    1.003 --    34 C    0.984
    63   1 H    0.999 --    35 C    0.971
    64   1 H    1.005 --    36 C    0.972
    65   1 H    1.005 --    38 C    0.973
    66   1 H    0.998 --    39 C    0.975
    67  26 Fe   3.094 --   107 N    0.657    73 N    0.657    86 N    0.651
                            93 N    0.651
    68   6 C    3.915 --   106 C    1.362    69 C    1.362   108 H    0.971
    69   6 C    3.928 --    68 C    1.362    73 N    1.208    70 C    1.176
    70   6 C    3.959 --    71 C    1.645    69 C    1.176   109 H    0.975
    71   6 C    3.963 --    70 C    1.645    72 C    1.178   110 H    0.973
    72   6 C    3.920 --    74 C    1.304    73 N    1.231    71 C    1.178
    73   7 N    3.370 --    72 C    1.231    69 C    1.208    67 Fe   0.657
    74   6 C    3.917 --    83 C    1.331    72 C    1.304    75 C    1.039
    75   6 C    3.985 --    82 C    1.381    76 C    1.371    74 C    1.039
    76   6 C    3.986 --    77 C    1.478    75 C    1.371   111 H    0.972
    77   6 C    3.988 --    76 C    1.478    78 C    1.343   112 H    0.971
    78   6 C    3.950 --    81 C    1.352    77 C    1.343    79 N    1.110
    79   7 N    3.178 --    78 C    1.110    80 C    0.971   113 H    0.931
    80   6 C    3.968 --   116 H    0.990   114 H    0.986   115 H    0.984
                            79 N    0.971
    81   6 C    3.988 --    82 C    1.466    78 C    1.352   117 H    0.970
    82   6 C    3.986 --    81 C    1.466    75 C    1.381   118 H    0.972
    83   6 C    3.919 --    74 C    1.331    86 N    1.201    84 C    1.182
    84   6 C    3.958 --    85 C    1.633    83 C    1.182   119 H    0.973
    85   6 C    3.961 --    84 C    1.633    87 C    1.192   120 H    0.965
    86   7 N    3.370 --    87 C    1.249    83 C    1.201    67 Fe   0.651
    87   6 C    3.910 --    86 N    1.249    88 C    1.246    85 C    1.192
    88   6 C    3.915 --    89 C    1.246    87 C    1.246   136 C    1.206
    89   6 C    3.910 --    93 N    1.248    88 C    1.246    90 C    1.192
    90   6 C    3.961 --    91 C    1.633    89 C    1.192   121 H    0.966
    91   6 C    3.958 --    90 C    1.633    92 C    1.182   122 H    0.973
    92   6 C    3.919 --    94 C    1.330    93 N    1.201    91 C    1.182
    93   7 N    3.370 --    89 C    1.248    92 C    1.201    67 Fe   0.651
    94   6 C    3.917 --    92 C    1.330   103 C    1.304    95 C    1.040
    95   6 C    3.985 --    96 C    1.381   102 C    1.371    94 C    1.040
    96   6 C    3.986 --    97 C    1.466    95 C    1.381   123 H    0.972
    97   6 C    3.988 --    96 C    1.466    98 C    1.352   124 H    0.970
    98   6 C    3.950 --    97 C    1.352   101 C    1.343    99 N    1.111
    99   7 N    3.179 --    98 C    1.111   100 C    0.971   125 H    0.931
   100   6 C    3.968 --   127 H    0.990   126 H    0.986   128 H    0.984
                            99 N    0.971
   101   6 C    3.988 --   102 C    1.479    98 C    1.343   129 H    0.971
   102   6 C    3.986 --   101 C    1.479    95 C    1.371   130 H    0.972
   103   6 C    3.920 --    94 C    1.304   107 N    1.230   104 C    1.178
   104   6 C    3.963 --   105 C    1.645   103 C    1.178   131 H    0.973
   105   6 C    3.959 --   104 C    1.645   106 C    1.176   132 H    0.975
   106   6 C    3.928 --    68 C    1.362   107 N    1.208   105 C    1.176
   107   7 N    3.370 --   103 C    1.230   106 C    1.208    67 Fe   0.657
   108   1 H    1.001 --    68 C    0.971
   109   1 H    0.998 --    70 C    0.975
   110   1 H    1.005 --    71 C    0.973
   111   1 H    1.005 --    76 C    0.972
   112   1 H    0.999 --    77 C    0.971
   113   1 H    0.965 --    79 N    0.931
   114   1 H    1.012 --    80 C    0.986
   115   1 H    1.003 --    80 C    0.984
   116   1 H    1.007 --    80 C    0.990
   117   1 H    1.001 --    81 C    0.970
   118   1 H    1.005 --    82 C    0.972
   119   1 H    1.005 --    84 C    0.973
   120   1 H    1.007 --    85 C    0.965
   121   1 H    1.007 --    90 C    0.966
   122   1 H    1.005 --    91 C    0.973
   123   1 H    1.005 --    96 C    0.972
   124   1 H    1.001 --    97 C    0.970
   125   1 H    0.965 --    99 N    0.931
   126   1 H    1.012 --   100 C    0.986
   127   1 H    1.007 --   100 C    0.990
   128   1 H    1.003 --   100 C    0.984
   129   1 H    0.999 --   101 C    0.971
   130   1 H    1.005 --   102 C    0.972
   131   1 H    1.005 --   104 C    0.973
   132   1 H    0.998 --   105 C    0.975
   133   6 C    3.916 --   134 C    2.534    22 C    1.207
   134   6 C    3.922 --   133 C    2.534   138 C    1.211
   135   6 C    3.923 --   136 C    2.534   158 C    1.211
   136   6 C    3.916 --   135 C    2.534    88 C    1.206
   137  26 Fe   3.091 --   143 N    0.648   163 N    0.647   156 N    0.647
                           177 N    0.645
   138   6 C    3.899 --   139 C    1.243   176 C    1.240   134 C    1.211
   139   6 C    3.910 --   143 N    1.247   138 C    1.243   140 C    1.195
   140   6 C    3.960 --   141 C    1.629   139 C    1.195   178 H    0.966
   141   6 C    3.959 --   140 C    1.629   142 C    1.187   179 H    0.972
   142   6 C    3.915 --   144 C    1.318   143 N    1.204   141 C    1.187
   143   7 N    3.361 --   139 C    1.247   142 C    1.204   137 Fe   0.648
   144   6 C    3.907 --   153 C    1.319   142 C    1.318   145 C    1.032
   145   6 C    3.984 --   152 C    1.384   146 C    1.374   144 C    1.032
   146   6 C    3.987 --   147 C    1.476   145 C    1.374   180 H    0.973
   147   6 C    3.987 --   146 C    1.476   148 C    1.344   181 H    0.971
   148   6 C    3.951 --   151 C    1.352   147 C    1.344   149 N    1.111
   149   7 N    3.178 --   148 C    1.111   150 C    0.971   182 H    0.931
   150   6 C    3.967 --   185 H    0.990   183 H    0.986   184 H    0.984
                           149 N    0.971
   151   6 C    3.988 --   152 C    1.465   148 C    1.352   186 H    0.970
   152   6 C    3.986 --   151 C    1.465   145 C    1.384   187 H    0.973
   153   6 C    3.915 --   144 C    1.319   156 N    1.203   154 C    1.187
   154   6 C    3.959 --   155 C    1.629   153 C    1.187   188 H    0.973
   155   6 C    3.961 --   154 C    1.629   157 C    1.196   189 H    0.965
   156   7 N    3.360 --   157 C    1.248   153 C    1.203   137 Fe   0.647
   157   6 C    3.910 --   156 N    1.248   158 C    1.242   155 C    1.196
   158   6 C    3.900 --   157 C    1.242   159 C    1.242   135 C    1.211
   159   6 C    3.910 --   163 N    1.245   158 C    1.242   160 C    1.199
   160   6 C    3.958 --   161 C    1.623   159 C    1.199   190 H    0.966
   161   6 C    3.959 --   160 C    1.623   162 C    1.190   191 H    0.973
   162   6 C    3.915 --   164 C    1.309   163 N    1.207   161 C    1.190
   163   7 N    3.360 --   159 C    1.245   162 C    1.207   137 Fe   0.647
   164   6 C    3.908 --   173 C    1.311   162 C    1.309   165 C    1.052
   165   6 C    3.983 --   166 C    1.374   172 C    1.364   164 C    1.052
   166   6 C    3.983 --   167 C    1.471   165 C    1.374   192 H    0.972
   167   6 C    3.987 --   166 C    1.471   168 C    1.347   193 H    0.970
   168   6 C    3.947 --   167 C    1.347   171 C    1.339   169 N    1.117
   169   7 N    3.182 --   168 C    1.117   170 C    0.971   194 H    0.930
   170   6 C    3.967 --   196 H    0.990   197 H    0.986   195 H    0.983
                           169 N    0.971
   171   6 C    3.987 --   172 C    1.483   168 C    1.339   198 H    0.971
   172   6 C    3.983 --   171 C    1.483   165 C    1.364   199 H    0.972
   173   6 C    3.915 --   164 C    1.311   177 N    1.206   174 C    1.189
   174   6 C    3.959 --   175 C    1.623   173 C    1.189   200 H    0.973
   175   6 C    3.958 --   174 C    1.623   176 C    1.199   201 H    0.967
   176   6 C    3.910 --   177 N    1.247   138 C    1.240   175 C    1.199
   177   7 N    3.359 --   176 C    1.247   173 C    1.206   137 Fe   0.645
   178   1 H    1.006 --   140 C    0.966
   179   1 H    1.005 --   141 C    0.972
   180   1 H    1.004 --   146 C    0.973
   181   1 H    0.999 --   147 C    0.971
   182   1 H    0.965 --   149 N    0.931
   183   1 H    1.012 --   150 C    0.986
   184   1 H    1.003 --   150 C    0.984
   185   1 H    1.007 --   150 C    0.990
   186   1 H    1.001 --   151 C    0.970
   187   1 H    1.004 --   152 C    0.973
   188   1 H    1.005 --   154 C    0.973
   189   1 H    1.007 --   155 C    0.965
   190   1 H    1.006 --   160 C    0.966
   191   1 H    1.005 --   161 C    0.973
   192   1 H    1.006 --   166 C    0.972
   193   1 H    1.001 --   167 C    0.970
   194   1 H    0.965 --   169 N    0.930
   195   1 H    1.003 --   170 C    0.983
   196   1 H    1.007 --   170 C    0.990
   197   1 H    1.011 --   170 C    0.986
   198   1 H    0.999 --   171 C    0.971
   199   1 H    1.006 --   172 C    0.972
   200   1 H    1.005 --   174 C    0.973
   201   1 H    1.006 --   175 C    0.967
 ---------------------------------------------------------------------------

           -------------------------------------------------
          | TOTAL ENERGY             -330.420709053394 Eh   |
          | GRADIENT NORM               0.000678358938 Eh/α |
          | HOMO-LUMO GAP               0.040709897807 eV   |
           -------------------------------------------------

 * finished run on 2022/07/29 at 15:45:01.074
