   * xtb version 6.5.1 (b24c23e) compiled by 'conda@728c89f4b128' on 2022-07-12
          program call               : xtb Ph2Me_C8_2.xyz --gfn 1 --opt -T 48

   ID    Z sym.   atoms
    1    6 C      1-5, 7-10, 12-30, 33-40, 70-74, 76-79, 81-99, 102-109,
                  139-146
    2    7 N      6, 11, 31, 32, 75, 80, 100, 101
    3    1 H      41-69, 110-138
########################################################################
[WARNING] Please study the warnings concerning your input carefully
-1- prog_main_parseArguments: Unknown option '-T' provided
########################################################################

          :  Hamiltonian                  GFN1-xTB          :
 * total energy  :  -225.3125766 Eh     change       -0.2303722E-08 Eh
 * total energy  :  -225.5705057 Eh     change       -0.2579291E+00 Eh
 * total energy  :  -225.6556506 Eh     change       -0.8514486E-01 Eh
 * total energy  :  -225.6856493 Eh     change       -0.2999868E-01 Eh
 * total energy  :  -225.6976279 Eh     change       -0.1197858E-01 Eh
 * total energy  :  -225.7044858 Eh     change       -0.6857946E-02 Eh
 * total energy  :  -225.7073569 Eh     change       -0.2871080E-02 Eh
 * total energy  :  -225.7079770 Eh     change       -0.6200700E-03 Eh
 * total energy  :  -225.7101944 Eh     change       -0.2217397E-02 Eh
 * total energy  :  -225.7112858 Eh     change       -0.1091438E-02 Eh
 * total energy  :  -225.7195653 Eh     change       -0.1927490E-04 Eh
 * total energy  :  -225.7195906 Eh     change       -0.2532978E-04 Eh
 * total energy  :  -225.7196201 Eh     change       -0.2942952E-04 Eh
 * total energy  :  -225.7196482 Eh     change       -0.2812686E-04 Eh
 * total energy  :  -225.7196709 Eh     change       -0.2267816E-04 Eh
 * total energy  :  -225.7196853 Eh     change       -0.1442914E-04 Eh
 * total energy  :  -225.7196931 Eh     change       -0.7813373E-05 Eh
 * total energy  :  -225.7196983 Eh     change       -0.5193202E-05 Eh
 * total energy  :  -225.7197028 Eh     change       -0.4520883E-05 Eh
   *** GEOMETRY OPTIMIZATION CONVERGED AFTER 64 ITERATIONS ***

 final structure:
================
146
 xtb: 6.5.1 (b24c23e)
C            9.02752825663748        0.11612617278364       -0.00122277082481
C            9.63401394488863        1.31403959792258        0.35485884206921
C            8.98065800348229        2.52118804149949        0.73082067037113
C            9.94195185108084        3.45599965988770        0.99521421630436
C           11.21361080488640        2.85259037361586        0.78006540240307
N           10.97695163750907        1.56054874691745        0.40430102234041
C           12.47549917200013        3.43698648884844        0.93461808337017
C           13.69247587353958        2.78036724089148        0.74167081265042
C           14.98733209226381        3.42831114299013        0.84959397957151
C           15.91222034309951        2.47927993940606        0.59658876043092
N           13.85285713526846        1.46870825811944        0.41141008767994
C           15.18107107807805        1.25638734036748        0.32686293812450
C           15.82299718329561        0.03621308695687        0.03036349766474
C           15.18912153007458       -1.18337230784220       -0.27550110181203
C           15.83461512266134       -2.41927996431341       -0.54407220628095
C           14.86887878073298       -3.35152300567260       -0.80509342107148
C           13.60277391576635       -2.70978406890560       -0.71240285730432
C           12.34292008735759       -3.28780915367173       -0.89859761212828
C           12.31881068275469       -4.71909283831540       -1.28878422723062
C           11.70910913448020       -5.66438797084719       -0.46484737367973
C           11.69549592308956       -7.00834656796507       -0.82170964024477
C           11.02728601645412       -8.02446437632663        0.06470479602884
C           12.29181788905150       -7.40355509582974       -2.01567931261618
C           12.90230911504844       -6.47201789480513       -2.84994591665026
C           13.52687884051504       -6.90678265706562       -4.14820525246178
C           12.91384720439697       -5.13133279814953       -2.48054121432168
C           11.12453293492898       -2.61799254468283       -0.74680475584123
C            9.82374188302472       -3.22072451992102       -0.99285445713889
C            8.90582611848746       -2.26653911226437       -0.73790249142059
C            9.64485152284323       -1.07887793691870       -0.34720017682307
N           10.97776457227303       -1.32499978095105       -0.37199833113616
N           13.84853617951845       -1.40314388075496       -0.38067594416185
C           12.50575397819854        4.86655020539222        1.33357489279575
C           13.09108046637973        5.24505039059160        2.54028300735553
C           13.12378594926453        6.58283236454021        2.92145989069827
C           13.77112166237315        6.97955164456720        4.22070906496058
C           12.57072495304640        7.54418077933648        2.08202197498482
C           11.98263431272954        7.18193665474065        0.87310380180566
C           11.40980501237676        8.23460357830039       -0.03712405479778
C           11.95043609692248        5.84150767964989        0.50534589193358
H            7.94216586550875        0.12431470220259       -0.00757645490558
H            7.91102285710240        2.64338485277185        0.79312281047514
H            9.79038091032497        4.47323075080969        1.31820222924709
H           11.70344414316078        0.88361805900957        0.19672392147351
H           15.14446853797148        4.47072606256075        1.07474455048842
H           16.98627682512212        2.57337793012043        0.58030263486026
H           16.90237449979101       -2.56757034988474       -0.53081776767485
H           15.01655060323445       -4.39463432534638       -1.03245708427299
H           11.26246982067954       -5.34678775695469        0.47097022684757
H            9.99917223299018       -8.18680590508392       -0.26699299840545
H           11.55103928756273       -8.97984438598255        0.02224503314679
H           11.00071479450324       -7.68155410226928        1.09906953251789
H           12.28398381222967       -8.45152354972189       -2.29733586201611
H           14.33211546843161       -6.23122486781822       -4.43744987336168
H           13.92574268767114       -7.91822329301430       -4.06741166277503
H           12.77614107965041       -6.90039361085269       -4.94173774149196
H           13.37540159686044       -4.39447564451339       -3.12892355289122
H            9.66126527004206       -4.23302973998406       -1.32653724543651
H            7.83086658872530       -2.32747855273260       -0.80655021591349
H           13.12577200630743       -0.70690758424811       -0.23083386163260
H           13.50802271349356        4.48530019504439        3.19225290283180
H           13.54461265493536        6.25362667993592        5.00232440199668
H           13.43004220821568        7.96336812336524        4.54281716436363
H           14.85597219276270        7.01632849642985        4.09856205663387
H           12.59549662899932        8.58932074506049        2.37303610632028
H           10.97723829991854        9.05240205656258        0.53987676808272
H           12.19929386198654        8.64700020570974       -0.66966060645017
H           10.64076980656127        7.81316755489939       -0.68464135059270
H           11.50730083139347        5.54887745508136       -0.44037034047309
C           34.35895236274232       -0.10192811848203       -0.05802722361037
C           33.75320016080393       -1.31558246405242       -0.35756519689816
C           34.40755896083824       -2.54674871941193       -0.64294551563589
C           33.44708516057317       -3.48753976781075       -0.88843277920577
C           32.17492578459807       -2.85893259881803       -0.77028924248307
N           32.41050310929227       -1.55405315515664       -0.44104685607477
C           30.91332549440892       -3.44195205334159       -0.93277739919556
C           29.69620024258328       -2.77814783504884       -0.76626590859189
C           28.40113069765602       -3.39166323426978       -0.99993064253498
C           27.47641629592423       -2.44527468561373       -0.73661385898652
N           29.53604200848994       -1.47973664133027       -0.38721237414197
C           28.20782024592814       -1.25394366825847       -0.35119437950236
C           27.56589232692145       -0.05141837605138        0.01029491372563
C           28.19917280788354        1.15582378367156        0.36282741009588
C           27.55269876518780        2.35732448717022        0.75617158279688
C           28.51757311600991        3.29479365396011        1.00121153775260
C           29.78413682379214        2.69568991209036        0.75565681827746
C           31.04366210530443        3.28976459414076        0.88583334784436
C           31.06722352066735        4.72231481235275        1.27090449441821
C           31.68362370561061        5.12401692047097        2.45538195494959
C           31.69774576718277        6.46452320814340        2.82503729180159
C           32.37474057636223        6.89560690602134        4.09803696400692
C           31.09396438422929        7.40699229365312        1.99777077350842
C           30.47604845680632        7.02242599570363        0.81165091445253
C           29.84249260139293        8.05186279739283       -0.08467313266895
C           30.46519615875192        5.67862525541229        0.45384924405881
C           32.26220589174567        2.63497966171581        0.67882016971482
C           33.56325414342609        3.27891021460468        0.77136801268657
C           34.48093438063412        2.32603109483541        0.51074821640882
C           33.74154950090090        1.10401578536168        0.24748784404654
N           32.40868758700998        1.32956836963703        0.34959695511160
N           29.53948933892115        1.40011991796759        0.38211827781187
C           30.88335166122998       -4.87700303003578       -1.31087766456038
C           30.29165557227721       -5.81213836949568       -0.46381450646569
C           30.25827481591007       -7.15924569078357       -0.81050748202785
C           29.60325227951800       -8.15602220534849        0.10699495901336
C           30.81785605499842       -7.56624535222844       -2.01706102151445
C           31.41282995601995       -6.64420560380304       -2.87408629491629
C           31.99325254757794       -7.09485838547030       -4.18740881512242
C           31.44497730044933       -5.30150131051997       -2.51480597326785
H           35.44433385202473       -0.10560979543522       -0.06667332447374
H           35.47727092387888       -2.68307737319280       -0.64986089898207
H           33.59966289047147       -4.52843694945261       -1.12354963414544
H           31.68326013159601       -0.86578257906404       -0.27815365985515
H           28.24343645696638       -4.40449292437248       -1.33354686772242
H           26.40229071328648       -2.51854210303378       -0.79679769396258
H           26.48488491088747        2.47729354932594        0.84361007079847
H           28.36886037388721        4.30951757776671        1.33258359630453
H           32.13524911447517        4.37848979625377        3.10060830708094
H           33.40300188493656        7.19806300706512        3.88683503104216
H           31.85712948075757        7.74540345599664        4.54385732472307
H           32.40199378621134        6.07962773898497        4.82028587680978
H           31.10167997045098        8.45392525104307        2.28324768385658
H           29.03778288666409        7.61174005363227       -0.67387114326221
H           29.44072248817177        8.88010170643731        0.49949607195853
H           30.58846923699184        8.45350336581527       -0.77422332342725
H           29.99866452480489        5.36900191899761       -0.47506671829387
H           33.72638973181670        4.32113852446529        0.99414836574452
H           35.55597663984209        2.41273917238300        0.48337246643951
H           30.26319624624070        0.72479070272171        0.15901092895527
H           29.87006413384234       -5.48490495273313        0.48027964382415
H           29.83191888633326       -7.92963602777157        1.14896436727547
H           29.93626374638720       -9.16970696829245       -0.11545146531847
H           28.51864773211434       -8.11692062243208       -0.01645320943532
H           30.79289145661814       -8.61525458875829       -2.29377578974082
H           32.42743601070780       -8.09100643109002       -4.09778070095472
H           31.20768881582354       -7.13491205506392       -4.94552950283129
H           32.76265109512939       -6.40339441802762       -4.53120439718293
H           31.89296525234075       -4.57227714587116       -3.18108064909513
C           17.22775415248675        0.02192612128333        0.03668174194466
C           18.45262255650189        0.00781723533901        0.04008031685512
C           19.79473989269688       -0.00232802591439        0.04261349040137
C           21.02575828209024       -0.01047377018240        0.04249853342094
C           22.36318456717111       -0.01782246606650        0.04126523085697
C           23.59412891086619       -0.02720876076886        0.03750132796937
C           24.93623404936205       -0.03402685609517        0.03123287717203
C           26.16110619728194       -0.04287887091654        0.02305707328216

          :  Hamiltonian                  GFN1-xTB          :
         :: total energy            -225.719702841092 Eh    ::
         :: gradient norm              0.000464207664 Eh/a0 ::
         :: HOMO-LUMO gap              1.010846460366 eV    ::
         :: SCC energy              -229.596879231276 Eh    ::
         :: repulsion energy           3.993202733218 Eh    ::

    * Orbital Energies and Occupations

         #    Occupation            Energy/Eh            Energy/eV
      -------------------------------------------------------------
         1        2.0000           -0.8010549             -21.7978
       ...           ...                  ...                  ...
       197        2.0000           -0.4183956             -11.3851
       198        2.0000           -0.4172312             -11.3534
       199        2.0000           -0.4165922             -11.3361
       200        2.0000           -0.4137566             -11.2589
       201        2.0000           -0.4136936             -11.2572
       202        2.0000           -0.4122855             -11.2189
       203        2.0000           -0.4122596             -11.2182
       204        2.0000           -0.4093741             -11.1396
       205        2.0000           -0.4036980             -10.9852
       206        2.0000           -0.3958537             -10.7717
       207        2.0000           -0.3955317             -10.7630
       208        2.0000           -0.3831698             -10.4266
       209        2.0000           -0.3752672             -10.2115 (HOMO)
       210                         -0.3381193              -9.2007 (LUMO)
       211                         -0.3289049              -8.9500
       212                         -0.3275982              -8.9144
       213                         -0.3272540              -8.9050
       214                         -0.3001833              -8.1684
       215                         -0.2966276              -8.0716
       216                         -0.2917310              -7.9384
       217                         -0.2723598              -7.4113
       218                         -0.2579743              -7.0198
       219                         -0.2578569              -7.0166
       220                         -0.2573303              -7.0023
       ...                                ...                  ...
       468                          1.6091577              43.7874
      -------------------------------------------------------------
                  HL-Gap            0.0371479 Eh            1.0108 eV

Wiberg/Mayer (AO) data.
largest (>0.10) Wiberg bond orders for each atom

     #   Z sym  total        # sym  WBO       # sym  WBO       # sym  WBO
 ---------------------------------------------------------------------------
     1   6 C    3.924 --    30 C    1.366     2 C    1.346    41 H    0.971
     2   6 C    3.903 --     1 C    1.346     3 C    1.230     6 N    1.170
     3   6 C    3.953 --     4 C    1.594     2 C    1.230    42 H    0.977
     4   6 C    3.959 --     3 C    1.594     5 C    1.235    43 H    0.974
     5   6 C    3.896 --     7 C    1.303     4 C    1.235     6 N    1.176
     6   7 N    3.469 --     5 C    1.176     2 C    1.170    44 H    0.873
     7   6 C    3.939 --     8 C    1.338     5 C    1.303    33 C    1.026
     8   6 C    3.915 --     7 C    1.338    11 N    1.283     9 C    1.125
     9   6 C    3.966 --    10 C    1.710     8 C    1.125    45 H    0.974
    10   6 C    3.964 --     9 C    1.710    12 C    1.128    46 H    0.974
    11   7 N    3.022 --    12 C    1.347     8 C    1.283
    12   6 C    3.908 --    11 N    1.347    13 C    1.251    10 C    1.128
    13   6 C    3.936 --    12 C    1.251    14 C    1.250   139 C    1.194
    14   6 C    3.885 --    13 C    1.250    15 C    1.249    32 N    1.190
    15   6 C    3.959 --    16 C    1.583    14 C    1.249    47 H    0.975
    16   6 C    3.955 --    15 C    1.583    17 C    1.241    48 H    0.974
    17   6 C    3.898 --    18 C    1.311    16 C    1.241    32 N    1.164
    18   6 C    3.925 --    27 C    1.321    17 C    1.311    19 C    1.028
    19   6 C    3.988 --    26 C    1.396    20 C    1.395    18 C    1.028
                            23 C    0.103
    20   6 C    3.986 --    21 C    1.418    19 C    1.395    49 H    0.972
                            24 C    0.103
    21   6 C    3.988 --    20 C    1.418    23 C    1.414    22 C    1.020
                            26 C    0.103
    22   6 C    3.996 --    21 C    1.020    52 H    0.984    51 H    0.982
                            50 H    0.971
    23   6 C    3.987 --    24 C    1.416    21 C    1.414    53 H    0.972
                            19 C    0.103
    24   6 C    3.988 --    26 C    1.417    23 C    1.416    25 C    1.020
                            20 C    0.103
    25   6 C    3.995 --    24 C    1.020    54 H    0.983    55 H    0.982
                            56 H    0.971
    26   6 C    3.985 --    24 C    1.417    19 C    1.396    57 H    0.972
                            21 C    0.103
    27   6 C    3.929 --    18 C    1.321    31 N    1.317    28 C    1.118
    28   6 C    3.967 --    29 C    1.722    27 C    1.118    58 H    0.974
    29   6 C    3.966 --    28 C    1.722    30 C    1.117    59 H    0.976
    30   6 C    3.930 --     1 C    1.366    31 N    1.300    29 C    1.117
    31   7 N    3.012 --    27 C    1.317    30 C    1.300
    32   7 N    3.474 --    14 C    1.190    17 C    1.164    60 H    0.873
    33   6 C    3.988 --    34 C    1.400    40 C    1.394     7 C    1.026
                            37 C    0.102
    34   6 C    3.987 --    35 C    1.414    33 C    1.400    61 H    0.972
                            38 C    0.104
    35   6 C    3.988 --    37 C    1.419    34 C    1.414    36 C    1.020
                            40 C    0.103
    36   6 C    3.996 --    35 C    1.020    63 H    0.984    62 H    0.981
                            64 H    0.971
    37   6 C    3.988 --    35 C    1.419    38 C    1.412    65 H    0.972
                            33 C    0.102
    38   6 C    3.988 --    40 C    1.420    37 C    1.412    39 C    1.020
                            34 C    0.104
    39   6 C    3.996 --    38 C    1.020    68 H    0.984    66 H    0.982
                            67 H    0.971
    40   6 C    3.986 --    38 C    1.420    33 C    1.394    69 H    0.972
                            35 C    0.103
    41   1 H    1.002 --     1 C    0.971
    42   1 H    0.998 --     3 C    0.977
    43   1 H    1.005 --     4 C    0.974
    44   1 H    0.986 --     6 N    0.873
    45   1 H    1.005 --     9 C    0.974
    46   1 H    1.003 --    10 C    0.974
    47   1 H    1.002 --    15 C    0.975
    48   1 H    1.005 --    16 C    0.974
    49   1 H    1.003 --    20 C    0.972
    50   1 H    1.006 --    22 C    0.971
    51   1 H    1.004 --    22 C    0.982
    52   1 H    1.004 --    22 C    0.984
    53   1 H    1.000 --    23 C    0.972
    54   1 H    1.004 --    25 C    0.983
    55   1 H    1.004 --    25 C    0.982
    56   1 H    1.006 --    25 C    0.971
    57   1 H    1.003 --    26 C    0.972
    58   1 H    1.005 --    28 C    0.974
    59   1 H    0.998 --    29 C    0.976
    60   1 H    0.987 --    32 N    0.873
    61   1 H    1.003 --    34 C    0.972
    62   1 H    1.004 --    36 C    0.981
    63   1 H    1.004 --    36 C    0.984
    64   1 H    1.006 --    36 C    0.971
    65   1 H    1.000 --    37 C    0.972
    66   1 H    1.004 --    39 C    0.982
    67   1 H    1.006 --    39 C    0.971
    68   1 H    1.004 --    39 C    0.984
    69   1 H    1.003 --    40 C    0.972
    70   6 C    3.924 --    99 C    1.366    71 C    1.346   110 H    0.971
    71   6 C    3.903 --    70 C    1.346    72 C    1.230    75 N    1.170
    72   6 C    3.953 --    73 C    1.594    71 C    1.230   111 H    0.977
    73   6 C    3.959 --    72 C    1.594    74 C    1.235   112 H    0.974
    74   6 C    3.896 --    76 C    1.302    73 C    1.235    75 N    1.177
    75   7 N    3.469 --    74 C    1.177    71 C    1.170   113 H    0.873
    76   6 C    3.939 --    77 C    1.338    74 C    1.302   102 C    1.026
    77   6 C    3.915 --    76 C    1.338    80 N    1.284    78 C    1.125
    78   6 C    3.966 --    79 C    1.710    77 C    1.125   114 H    0.974
    79   6 C    3.964 --    78 C    1.710    81 C    1.128   115 H    0.974
    80   7 N    3.022 --    81 C    1.346    77 C    1.284
    81   6 C    3.908 --    80 N    1.346    82 C    1.251    79 C    1.128
    82   6 C    3.936 --    81 C    1.251    83 C    1.250   146 C    1.194
    83   6 C    3.885 --    82 C    1.250    84 C    1.249   101 N    1.190
    84   6 C    3.959 --    85 C    1.583    83 C    1.249   116 H    0.975
    85   6 C    3.955 --    84 C    1.583    86 C    1.241   117 H    0.974
    86   6 C    3.898 --    87 C    1.310    85 C    1.241   101 N    1.164
    87   6 C    3.925 --    96 C    1.321    86 C    1.310    88 C    1.029
    88   6 C    3.988 --    95 C    1.396    89 C    1.395    87 C    1.029
                            92 C    0.103
    89   6 C    3.986 --    90 C    1.418    88 C    1.395   118 H    0.972
                            93 C    0.103
    90   6 C    3.988 --    89 C    1.418    92 C    1.415    91 C    1.020
                            95 C    0.103
    91   6 C    3.996 --    90 C    1.020   121 H    0.983   120 H    0.982
                           119 H    0.971
    92   6 C    3.987 --    93 C    1.415    90 C    1.415   122 H    0.972
                            88 C    0.103
    93   6 C    3.988 --    95 C    1.417    92 C    1.415    94 C    1.020
                            89 C    0.103
    94   6 C    3.995 --    93 C    1.020   123 H    0.983   124 H    0.982
                           125 H    0.971
    95   6 C    3.985 --    93 C    1.417    88 C    1.396   126 H    0.972
                            90 C    0.103
    96   6 C    3.929 --    87 C    1.321   100 N    1.317    97 C    1.118
    97   6 C    3.967 --    98 C    1.722    96 C    1.118   127 H    0.974
    98   6 C    3.966 --    97 C    1.722    99 C    1.117   128 H    0.976
    99   6 C    3.930 --    70 C    1.366   100 N    1.300    98 C    1.117
   100   7 N    3.012 --    96 C    1.317    99 C    1.300
   101   7 N    3.474 --    83 C    1.190    86 C    1.164   129 H    0.873
   102   6 C    3.988 --   103 C    1.400   109 C    1.394    76 C    1.026
                           106 C    0.102
   103   6 C    3.987 --   104 C    1.414   102 C    1.400   130 H    0.972
                           107 C    0.104
   104   6 C    3.988 --   106 C    1.419   103 C    1.414   105 C    1.020
                           109 C    0.103
   105   6 C    3.996 --   104 C    1.020   132 H    0.984   131 H    0.980
                           133 H    0.971
   106   6 C    3.988 --   104 C    1.419   107 C    1.412   134 H    0.972
                           102 C    0.102
   107   6 C    3.988 --   109 C    1.420   106 C    1.412   108 C    1.020
                           103 C    0.104
   108   6 C    3.996 --   107 C    1.020   137 H    0.984   135 H    0.982
                           136 H    0.971
   109   6 C    3.986 --   107 C    1.420   102 C    1.394   138 H    0.972
                           104 C    0.103
   110   1 H    1.002 --    70 C    0.971
   111   1 H    0.998 --    72 C    0.977
   112   1 H    1.005 --    73 C    0.974
   113   1 H    0.986 --    75 N    0.873
   114   1 H    1.005 --    78 C    0.974
   115   1 H    1.003 --    79 C    0.974
   116   1 H    1.002 --    84 C    0.975
   117   1 H    1.005 --    85 C    0.974
   118   1 H    1.003 --    89 C    0.972
   119   1 H    1.006 --    91 C    0.971
   120   1 H    1.004 --    91 C    0.982
   121   1 H    1.004 --    91 C    0.983
   122   1 H    1.000 --    92 C    0.972
   123   1 H    1.004 --    94 C    0.983
   124   1 H    1.004 --    94 C    0.982
   125   1 H    1.006 --    94 C    0.971
   126   1 H    1.003 --    95 C    0.972
   127   1 H    1.006 --    97 C    0.974
   128   1 H    0.998 --    98 C    0.976
   129   1 H    0.987 --   101 N    0.873
   130   1 H    1.003 --   103 C    0.972
   131   1 H    1.004 --   105 C    0.980
   132   1 H    1.004 --   105 C    0.984
   133   1 H    1.006 --   105 C    0.971
   134   1 H    1.000 --   106 C    0.972
   135   1 H    1.004 --   108 C    0.982
   136   1 H    1.006 --   108 C    0.971
   137   1 H    1.004 --   108 C    0.984
   138   1 H    1.003 --   109 C    0.972
   139   6 C    3.877 --   140 C    2.435    13 C    1.194   142 C    0.186
   140   6 C    3.932 --   139 C    2.435   141 C    1.347
   141   6 C    3.892 --   142 C    2.332   140 C    1.347   144 C    0.182
   142   6 C    3.924 --   141 C    2.332   143 C    1.372   139 C    0.186
   143   6 C    3.924 --   144 C    2.332   142 C    1.372   146 C    0.186
   144   6 C    3.892 --   143 C    2.332   145 C    1.347   141 C    0.182
   145   6 C    3.932 --   146 C    2.435   144 C    1.347
   146   6 C    3.877 --   145 C    2.435    82 C    1.194   143 C    0.186
 ---------------------------------------------------------------------------

           -------------------------------------------------
          | TOTAL ENERGY             -225.719702841092 Eh   |
          | GRADIENT NORM               0.000464207664 Eh/α |
          | HOMO-LUMO GAP               1.010846460366 eV   |
           -------------------------------------------------

 * finished run on 2022/07/28 at 05:13:56.781
