   * xtb version 6.5.1 (b24c23e) compiled by 'conda@728c89f4b128' on 2022-07-12
          program call               : xtb Zn_PhCHO_C4_2.xyz --gfn 1 --opt -T 48

   ID    Z sym.   atoms
    1   30 Zn     1, 61
    2    6 C      2-6, 8-13, 15-19, 21-26, 28-33, 35-40, 62-66, 68-73, 75-79,
                  81-86, 88-93, 95-100, 121-124
    3    7 N      7, 20, 27, 41, 67, 80, 87, 101
    4    8 O      14, 34, 74, 94
    5    1 H      42-60, 102-120
########################################################################
[WARNING] Please study the warnings concerning your input carefully
-1- prog_main_parseArguments: Unknown option '-T' provided
########################################################################

          :  Hamiltonian                  GFN1-xTB          :
 * total energy  :  -217.7824970 Eh     change       -0.3851710E-08 Eh
 * total energy  :  -218.2722704 Eh     change       -0.4897734E+00 Eh
 * total energy  :  -218.3547065 Eh     change       -0.8243610E-01 Eh
 * total energy  :  -218.3908239 Eh     change       -0.3611750E-01 Eh
 * total energy  :  -218.4005029 Eh     change       -0.9678922E-02 Eh
 * total energy  :  -218.4055465 Eh     change       -0.5043603E-02 Eh
 * total energy  :  -218.4081751 Eh     change       -0.2628614E-02 Eh
 * total energy  :  -218.4104656 Eh     change       -0.2290499E-02 Eh
 * total energy  :  -218.4120107 Eh     change       -0.1545166E-02 Eh
 * total energy  :  -218.4132821 Eh     change       -0.1271350E-02 Eh
 * total energy  :  -218.4174785 Eh     change       -0.3128849E-04 Eh
 * total energy  :  -218.4174974 Eh     change       -0.1886544E-04 Eh
 * total energy  :  -218.4175211 Eh     change       -0.2371212E-04 Eh
 * total energy  :  -218.4175488 Eh     change       -0.2768438E-04 Eh
 * total energy  :  -218.4175661 Eh     change       -0.1731553E-04 Eh
 * total energy  :  -218.4175667 Eh     change       -0.6160361E-06 Eh
 * total energy  :  -218.4175793 Eh     change       -0.1254736E-04 Eh
 * total energy  :  -218.4175848 Eh     change       -0.5565897E-05 Eh
 * total energy  :  -218.4175887 Eh     change       -0.3903704E-05 Eh
   *** GEOMETRY OPTIMIZATION CONVERGED AFTER 41 ITERATIONS ***

 final structure:
================
124
 xtb: 6.5.1 (b24c23e)
Zn          15.82863206650001        0.05125460270059       -0.02754476804675
C           12.42004807428060        0.08908500041166       -0.09579988661691
C           13.04900927385930        1.31965730352216        0.04825584323552
C           12.37318029439986        2.57672682705515        0.20868727948620
C           13.33065506962235        3.52741477897205        0.34577864618499
C           14.60478448261093        2.86332557608031        0.25862811596221
N           14.39833674044681        1.52647675981899        0.08444791365559
C           15.85580600126168        3.48286194185664        0.37319674613776
C           15.86715278657943        4.95287339261603        0.56444369768833
C           16.41545493409328        5.51036004868790        1.72391871925288
C           16.41810442895216        6.87948519899558        1.90727008828023
C           15.87757634523135        7.72516612375466        0.93272546573397
C           15.89114275575504        9.18248984474415        1.15126078009833
O           16.34530086063697        9.70825434440658        2.13535272092251
C           15.33373780204601        7.17029650275086       -0.22841265393470
C           15.32658828325379        5.79865884013270       -0.40845102961057
C           17.09583644197028        2.83492370895220        0.32818222918733
C           18.37534165137071        3.48652536168695        0.38726290509184
C           19.32187744055231        2.51908921178717        0.28467671580354
N           17.28960149860039        1.48801692549665        0.17928403541549
C           18.63190757011848        1.26924468992666        0.15538821163111
C           19.26346379648922        0.01718066186948        0.01500466625023
C           18.61075322062571       -1.22312758117665       -0.13244148918968
C           19.27924737170459       -2.48002009915169       -0.29966413638830
C           18.31626344649063       -3.42971010119805       -0.41549038220701
C           17.04814591580958       -2.76174768615448       -0.31192919584791
N           17.26492631906045       -1.41978557523426       -0.14976010529509
C           15.79667644813268       -3.38284264550525       -0.40017351132123
C           15.78054241059869       -4.85728723783636       -0.55161928904166
C           15.20669582136739       -5.44513509496370       -1.68289892807981
C           15.18578435690824       -6.82095299829117       -1.82511486603191
C           15.73462694066219       -7.63938361303682       -0.83467634253810
C           15.71824833515116       -9.10759266817869       -0.95942723316584
O           16.17404739502435       -9.85572036611585       -0.13247494347568
C           16.30877732625510       -7.05222674440817        0.29796259010711
C           16.33393479350911       -5.67798782023072        0.43635142354208
C           14.55642669403206       -2.73298615623450       -0.35680969272525
C           13.27105054411228       -3.37952306893146       -0.39855918788910
C           12.33011180475975       -2.40604393642698       -0.31820012131675
C           13.02760918984648       -1.15492928209132       -0.21482906916868
N           14.37314418182631       -1.38689746002959       -0.23604311473120
H           11.33449368231484        0.09900181134593       -0.10165890488460
H           11.30190098254490        2.70251551435876        0.22215676813724
H           13.19029033564542        4.58450281918053        0.50527266763497
H           16.82303838650845        4.85715354488191        2.48725477285524
H           16.83537628080678        7.31861929577640        2.80708768698880
H           15.44304844352253        9.77163307298249        0.32302436452298
H           14.91657969939147        7.81923758480222       -0.99166804242469
H           14.91520412972826        5.37231286105246       -1.31655186281636
H           18.52865993676116        4.54957705574180        0.48019545182763
H           20.39401279227306        2.63463854587258        0.28953044041212
H           20.34919747528145       -2.61103102286770       -0.33035720091273
H           18.45171682015226       -4.48772647352511       -0.57192931164507
H           14.79114351583903       -4.81252698353186       -2.45930086377789
H           14.74266494652203       -7.26776760398926       -2.70930196066576
H           15.24182344483523       -9.48031842773109       -1.89139084775626
H           16.72963734430993       -7.69528676154206        1.06350002955364
H           16.76708310013392       -5.22707847222763        1.32211042584721
H           13.11251468480230       -4.44392065805063       -0.46574234006775
H           11.25687250450606       -2.51459385368449       -0.31871161520177
Zn          29.30505449803023       -0.04618882377931       -0.03541263485751
C           32.71361852014302       -0.07310751299487       -0.10833968941003
C           32.08519186545865       -1.31203245249653       -0.13712869557379
C           32.76137806559860       -2.57904307682495       -0.15263270990872
C           31.80411672998076       -3.53978220923716       -0.15234085410794
C           30.52987012184374       -2.87026136220269       -0.14858377651728
N           30.73595229788094       -1.52215068058414       -0.13275010612179
C           29.27896402086305       -3.49996049120521       -0.12707250296416
C           29.26784180800690       -4.98230078174705       -0.14655937519207
C           28.71902292039516       -5.69862316196078        0.92182165807051
C           28.71662278254782       -7.07991701331827        0.90912818263697
C           29.25713441319695       -7.77867918395112       -0.17558085937409
C           29.24242151715210       -9.25222169998280       -0.16649447817420
O           28.79001398739219       -9.91237517980409        0.73367711066369
C           29.80140983856893       -7.06465977359891       -1.24603796558597
C           29.80897970853974       -5.68134982127130       -1.22938929136924
C           28.03871130945695       -2.85245284956658       -0.08326059555502
C           26.75951370211323       -3.50604977902335       -0.12233186215815
C           25.81265532243934       -2.53414323478032       -0.08618241167045
N           27.84458208778926       -1.49818044140480       -0.03667829106423
C           26.50225547511650       -1.27862189373004       -0.03126062008054
C           25.87016922550021       -0.01975437924998        0.01230280096587
C           26.52241397007862        1.22907062099027        0.04674703491944
C           25.85352886712200        2.49664745087133        0.06511253464705
C           26.81619565561039        3.45348292048639        0.08507303842891
C           28.08460923217265        2.77807833260362        0.08746753138238
N           27.86823559529786        1.42671425267206        0.05492505656632
C           29.33588551940815        3.40594675155403        0.08480172344340
C           29.35178321381130        4.88683799750744        0.14539790478085
C           29.92518118888016        5.63040869064564       -0.89051816803269
C           29.94662957329089        7.01240066634592       -0.83443068734567
C           29.39818956555163        7.68093728665852        0.26299902608910
C           29.41514602287181        9.15185867308603        0.34971950535813
O           28.95818995107522        9.77419240022348        1.27443706196155
C           28.82401692521141        6.93794224268935        1.30010444009377
C           28.79894145458110        5.55803745326383        1.24076789205906
C           30.57626714969567        2.75696157746390        0.03144093778218
C           31.86158188749643        3.40332367560736        0.07813072504639
C           32.80271981789728        2.42854902700550        0.01884598352253
C           32.10551918763424        1.17507658565209       -0.05284692900386
N           30.75990575782887        1.40733147851035       -0.03900895566237
H           33.79917700810562       -0.08161270583419       -0.11543967106501
H           33.83269742597608       -2.70518564385544       -0.15422957339177
H           31.94444735303890       -4.60880017662354       -0.14222308695999
H           28.31076447324664       -5.16025581342578        1.76976695753050
H           28.29909038923472       -7.64233169566792        1.73740236853658
H           29.69213594083392       -9.71803290817920       -1.06957089992227
H           30.21862120756851       -7.59873625204709       -2.09365177195479
H           30.22106814061709       -5.13036768380489       -2.06740278052270
H           26.60682587940418       -4.57142659323621       -0.18465719488148
H           24.74056508295232       -2.64928668845520       -0.10096123296056
H           24.78352991106469        2.63045514098930        0.05691420353013
H           26.68010449368893        4.52290584883286        0.08351604576628
H           30.34004279782518        5.11533481715618       -1.74974712010177
H           30.38984393000995        7.58094133984247       -1.64569620407979
H           29.89199914698778        9.65394321073153       -0.51932485048378
H           28.40332008671230        7.46497935748179        2.14978934440984
H           28.36634372745981        4.98525423147815        2.05335825920978
H           32.02017734620182        4.46660130156995        0.16091270033873
H           33.87594615737998        2.53650441345450        0.03111939289419
C           21.89186709740214        0.00466600562585        0.01621958711761
C           20.66974889755061        0.00662664252281        0.01480814507939
C           23.24181226606514       -0.00123456311455        0.01625850066464
C           24.46388286674863       -0.00970422639729        0.01413068786584

          :  Hamiltonian                  GFN1-xTB          :
         :: total energy            -218.417588733628 Eh    ::
         :: gradient norm              0.000704024900 Eh/a0 ::
         :: HOMO-LUMO gap              1.114984235721 eV    ::
         :: SCC energy              -221.804873195285 Eh    ::
         :: repulsion energy           3.497413985227 Eh    ::

    * Orbital Energies and Occupations

         #    Occupation            Energy/Eh            Energy/eV
      -------------------------------------------------------------
         1        2.0000           -0.7897757             -21.4909
       ...           ...                  ...                  ...
       185        2.0000           -0.4328642             -11.7788
       186        2.0000           -0.4328601             -11.7787
       187        2.0000           -0.4327450             -11.7756
       188        2.0000           -0.4322935             -11.7633
       189        2.0000           -0.4320663             -11.7571
       190        2.0000           -0.4319415             -11.7537
       191        2.0000           -0.4318860             -11.7522
       192        2.0000           -0.4302120             -11.7067
       193        2.0000           -0.4292696             -11.6810
       194        2.0000           -0.4046347             -11.0107
       195        2.0000           -0.4046341             -11.0107
       196        2.0000           -0.4006025             -10.9009
       197        2.0000           -0.3881798             -10.5629 (HOMO)
       198                         -0.3472049              -9.4479 (LUMO)
       199                         -0.3409554              -9.2779
       200                         -0.3409531              -9.2778
       201                         -0.3332570              -9.0684
       202                         -0.3253867              -8.8542
       203                         -0.3247232              -8.8362
       204                         -0.3197634              -8.7012
       205                         -0.3197511              -8.7009
       206                         -0.3035750              -8.2607
       207                         -0.2962330              -8.0609
       208                         -0.2802423              -7.6258
       ...                                ...                  ...
       420                          1.5093159              41.0706
      -------------------------------------------------------------
                  HL-Gap            0.0409749 Eh            1.1150 eV

Wiberg/Mayer (AO) data.
largest (>0.10) Wiberg bond orders for each atom

     #   Z sym  total        # sym  WBO       # sym  WBO       # sym  WBO
 ---------------------------------------------------------------------------
     1  30 Zn   1.993 --    41 N    0.459     7 N    0.459    20 N    0.455
                            27 N    0.455
     2   6 C    3.928 --     3 C    1.358    40 C    1.358    42 H    0.971
     3   6 C    3.920 --     2 C    1.358     7 N    1.232     4 C    1.170
     4   6 C    3.960 --     5 C    1.660     3 C    1.170    43 H    0.975
     5   6 C    3.963 --     4 C    1.660     6 C    1.171    44 H    0.973
     6   6 C    3.918 --     8 C    1.312     7 N    1.246     5 C    1.171
     7   7 N    3.293 --     6 C    1.246     3 C    1.232     1 Zn   0.459
     8   6 C    3.931 --    17 C    1.320     6 C    1.312     9 C    1.033
     9   6 C    3.985 --    16 C    1.382    10 C    1.380     8 C    1.033
    10   6 C    3.987 --    11 C    1.472     9 C    1.380    45 H    0.972
    11   6 C    3.988 --    10 C    1.472    12 C    1.369    46 H    0.968
    12   6 C    3.983 --    15 C    1.377    11 C    1.369    13 C    1.051
    13   6 C    3.864 --    14 O    1.806    12 C    1.051    47 H    0.942
    14   8 O    2.002 --    13 C    1.806
    15   6 C    3.993 --    16 C    1.466    12 C    1.377    48 H    0.971
    16   6 C    3.987 --    15 C    1.466     9 C    1.382    49 H    0.972
    17   6 C    3.912 --     8 C    1.320    20 N    1.228    18 C    1.178
    18   6 C    3.959 --    19 C    1.647    17 C    1.178    50 H    0.973
    19   6 C    3.962 --    18 C    1.647    21 C    1.186    51 H    0.974
    20   7 N    3.297 --    21 C    1.261    17 C    1.228     1 Zn   0.455
    21   6 C    3.901 --    20 N    1.261    22 C    1.255    19 C    1.186
    22   6 C    3.938 --    23 C    1.256    21 C    1.255   122 C    1.189
    23   6 C    3.901 --    27 N    1.261    22 C    1.256    24 C    1.186
    24   6 C    3.962 --    25 C    1.647    23 C    1.186    52 H    0.974
    25   6 C    3.959 --    24 C    1.647    26 C    1.178    53 H    0.973
    26   6 C    3.912 --    28 C    1.320    27 N    1.228    25 C    1.178
    27   7 N    3.296 --    23 C    1.261    26 C    1.228     1 Zn   0.455
    28   6 C    3.931 --    26 C    1.320    37 C    1.311    29 C    1.034
    29   6 C    3.985 --    30 C    1.382    36 C    1.380    28 C    1.034
    30   6 C    3.987 --    31 C    1.467    29 C    1.382    54 H    0.972
    31   6 C    3.993 --    30 C    1.467    32 C    1.377    55 H    0.971
    32   6 C    3.983 --    31 C    1.377    35 C    1.369    33 C    1.051
    33   6 C    3.864 --    34 O    1.806    32 C    1.051    56 H    0.942
    34   8 O    2.002 --    33 C    1.806
    35   6 C    3.988 --    36 C    1.472    32 C    1.369    57 H    0.968
    36   6 C    3.987 --    35 C    1.472    29 C    1.380    58 H    0.972
    37   6 C    3.918 --    28 C    1.311    41 N    1.246    38 C    1.171
    38   6 C    3.963 --    39 C    1.659    37 C    1.171    59 H    0.973
    39   6 C    3.960 --    38 C    1.659    40 C    1.170    60 H    0.975
    40   6 C    3.920 --     2 C    1.358    41 N    1.232    39 C    1.170
    41   7 N    3.293 --    37 C    1.246    40 C    1.232     1 Zn   0.459
    42   1 H    1.001 --     2 C    0.971
    43   1 H    0.998 --     4 C    0.975
    44   1 H    1.004 --     5 C    0.973
    45   1 H    1.004 --    10 C    0.972
    46   1 H    1.005 --    11 C    0.968
    47   1 H    1.010 --    13 C    0.942
    48   1 H    1.000 --    15 C    0.971
    49   1 H    1.004 --    16 C    0.972
    50   1 H    1.004 --    18 C    0.973
    51   1 H    1.002 --    19 C    0.974
    52   1 H    1.002 --    24 C    0.974
    53   1 H    1.004 --    25 C    0.973
    54   1 H    1.004 --    30 C    0.972
    55   1 H    1.000 --    31 C    0.971
    56   1 H    1.010 --    33 C    0.942
    57   1 H    1.005 --    35 C    0.968
    58   1 H    1.004 --    36 C    0.972
    59   1 H    1.004 --    38 C    0.973
    60   1 H    0.998 --    39 C    0.975
    61  30 Zn   1.993 --   101 N    0.459    67 N    0.458    80 N    0.455
                            87 N    0.455
    62   6 C    3.928 --    63 C    1.358   100 C    1.358   102 H    0.971
    63   6 C    3.920 --    62 C    1.358    67 N    1.232    64 C    1.170
    64   6 C    3.960 --    65 C    1.660    63 C    1.170   103 H    0.975
    65   6 C    3.963 --    64 C    1.660    66 C    1.171   104 H    0.973
    66   6 C    3.918 --    68 C    1.312    67 N    1.246    65 C    1.171
    67   7 N    3.293 --    66 C    1.246    63 C    1.232    61 Zn   0.458
    68   6 C    3.931 --    77 C    1.320    66 C    1.312    69 C    1.033
    69   6 C    3.985 --    76 C    1.382    70 C    1.380    68 C    1.033
    70   6 C    3.987 --    71 C    1.472    69 C    1.380   105 H    0.972
    71   6 C    3.988 --    70 C    1.472    72 C    1.369   106 H    0.968
    72   6 C    3.983 --    75 C    1.377    71 C    1.369    73 C    1.051
    73   6 C    3.864 --    74 O    1.806    72 C    1.051   107 H    0.942
    74   8 O    2.002 --    73 C    1.806
    75   6 C    3.993 --    76 C    1.466    72 C    1.377   108 H    0.971
    76   6 C    3.987 --    75 C    1.466    69 C    1.382   109 H    0.972
    77   6 C    3.912 --    68 C    1.320    80 N    1.228    78 C    1.178
    78   6 C    3.959 --    79 C    1.647    77 C    1.178   110 H    0.973
    79   6 C    3.962 --    78 C    1.647    81 C    1.186   111 H    0.974
    80   7 N    3.297 --    81 C    1.261    77 C    1.228    61 Zn   0.455
    81   6 C    3.901 --    80 N    1.261    82 C    1.255    79 C    1.186
    82   6 C    3.938 --    83 C    1.255    81 C    1.255   124 C    1.189
    83   6 C    3.901 --    87 N    1.261    82 C    1.255    84 C    1.186
    84   6 C    3.962 --    85 C    1.647    83 C    1.186   112 H    0.974
    85   6 C    3.959 --    84 C    1.647    86 C    1.178   113 H    0.973
    86   6 C    3.912 --    88 C    1.320    87 N    1.228    85 C    1.178
    87   7 N    3.296 --    83 C    1.261    86 C    1.228    61 Zn   0.455
    88   6 C    3.931 --    86 C    1.320    97 C    1.311    89 C    1.034
    89   6 C    3.985 --    90 C    1.381    96 C    1.379    88 C    1.034
    90   6 C    3.987 --    91 C    1.467    89 C    1.381   114 H    0.972
    91   6 C    3.993 --    90 C    1.467    92 C    1.377   115 H    0.971
    92   6 C    3.982 --    91 C    1.377    95 C    1.369    93 C    1.051
    93   6 C    3.864 --    94 O    1.806    92 C    1.051   116 H    0.942
    94   8 O    2.002 --    93 C    1.806
    95   6 C    3.988 --    96 C    1.472    92 C    1.369   117 H    0.968
    96   6 C    3.987 --    95 C    1.472    89 C    1.379   118 H    0.972
    97   6 C    3.918 --    88 C    1.311   101 N    1.246    98 C    1.171
    98   6 C    3.963 --    99 C    1.659    97 C    1.171   119 H    0.973
    99   6 C    3.960 --    98 C    1.659   100 C    1.170   120 H    0.975
   100   6 C    3.920 --    62 C    1.358   101 N    1.232    99 C    1.170
   101   7 N    3.293 --    97 C    1.246   100 C    1.232    61 Zn   0.459
   102   1 H    1.001 --    62 C    0.971
   103   1 H    0.998 --    64 C    0.975
   104   1 H    1.004 --    65 C    0.973
   105   1 H    1.004 --    70 C    0.972
   106   1 H    1.005 --    71 C    0.968
   107   1 H    1.010 --    73 C    0.942
   108   1 H    1.000 --    75 C    0.971
   109   1 H    1.004 --    76 C    0.972
   110   1 H    1.004 --    78 C    0.973
   111   1 H    1.002 --    79 C    0.974
   112   1 H    1.002 --    84 C    0.974
   113   1 H    1.004 --    85 C    0.973
   114   1 H    1.004 --    90 C    0.972
   115   1 H    1.000 --    91 C    0.971
   116   1 H    1.010 --    93 C    0.942
   117   1 H    1.005 --    95 C    0.968
   118   1 H    1.004 --    96 C    0.972
   119   1 H    1.004 --    98 C    0.973
   120   1 H    0.998 --    99 C    0.975
   121   6 C    3.935 --   122 C    2.477   123 C    1.307
   122   6 C    3.926 --   121 C    2.477    22 C    1.189   124 C    0.199
   123   6 C    3.935 --   124 C    2.477   121 C    1.307
   124   6 C    3.926 --   123 C    2.477    82 C    1.189   122 C    0.199
 ---------------------------------------------------------------------------

           -------------------------------------------------
          | TOTAL ENERGY             -218.417588733628 Eh   |
          | GRADIENT NORM               0.000704024900 Eh/α |
          | HOMO-LUMO GAP               1.114984235721 eV   |
           -------------------------------------------------

 * finished run on 2022/07/30 at 09:05:27.553
