   * xtb version 6.5.1 (b24c23e) compiled by 'conda@728c89f4b128' on 2022-07-12
          program call               : xtb Cu_H_C4_4.xyz --gfn 1 --opt -T 48

   ID    Z sym.   atoms
    1   29 Cu     1, 37, 85, 120
    2    6 C      2-6, 8-11, 13-18, 20-24, 38-42, 44-47, 49-54, 56-60, 73-84,
                  86-90, 92-95, 97-102, 104-108, 121-125, 127-130, 132-137,
                  139-143
    3    7 N      7, 12, 19, 25, 43, 48, 55, 61, 91, 96, 103, 109, 126, 131,
                  138, 144
    4    1 H      26-36, 62-72, 110-119, 145-154

          :  Hamiltonian                  GFN1-xTB          :
 * total energy  :  -281.9636040 Eh     change        0.7176595E-08 Eh
 * total energy  :  -284.7979185 Eh     change       -0.2834314E+01 Eh
 * total energy  :  -285.2230296 Eh     change       -0.4251112E+00 Eh
 * total energy  :  -285.4584666 Eh     change       -0.2354370E+00 Eh
 * total energy  :  -285.5849637 Eh     change       -0.1264971E+00 Eh
 * total energy  :  -285.6837613 Eh     change       -0.9879756E-01 Eh
 * total energy  :  -285.7700842 Eh     change       -0.8632294E-01 Eh
 * total energy  :  -285.8195670 Eh     change       -0.4948277E-01 Eh
 * total energy  :  -285.8506437 Eh     change       -0.3107673E-01 Eh
 * total energy  :  -285.8755632 Eh     change       -0.2491954E-01 Eh
 * total energy  :  -285.9441207 Eh     change       -0.3679250E-04 Eh
 * total energy  :  -285.9441597 Eh     change       -0.3903354E-04 Eh
 * total energy  :  -285.9441765 Eh     change       -0.1678525E-04 Eh
 * total energy  :  -285.9441889 Eh     change       -0.1243090E-04 Eh
 * total energy  :  -285.9442012 Eh     change       -0.1234532E-04 Eh
 * total energy  :  -285.9442128 Eh     change       -0.1157373E-04 Eh
 * total energy  :  -285.9442252 Eh     change       -0.1236862E-04 Eh
 * total energy  :  -285.9442333 Eh     change       -0.8133564E-05 Eh
 * total energy  :  -285.9442373 Eh     change       -0.3977938E-05 Eh
   *** GEOMETRY OPTIMIZATION CONVERGED AFTER 36 ITERATIONS ***

 final structure:
================
154
 xtb: 6.5.1 (b24c23e)
Cu          24.19277374711134       -0.02404592684405       -0.02587164927621
C           20.76865580569923       -0.05247233135753       -0.05301742881894
C           21.41222619768339       -0.92042822972271       -0.92357146970005
C           20.75293108979736       -1.82250428177922       -1.82790991988329
C           21.72368882976823       -2.49140564997782       -2.49830228150578
C           22.98387254264036       -2.00360966394655       -2.00910108888814
N           22.76405191864423       -1.05231403351314       -1.05572681026212
C           24.22897943958685       -2.43602340134328       -2.44230476778297
C           25.45989682053246       -1.98630365995307       -1.98850880441624
C           26.73052900342559       -2.45820173379262       -2.45942034331550
C           27.68380914519999       -1.77753091537651       -1.77350138281497
N           25.65735322028673       -1.03047912968842       -1.02852963846295
C           27.00126815963966       -0.88622091709625       -0.88069710692123
C           27.63882708845367        0.00004726420068        0.00632809555411
C           26.97280030628665        0.87700087983839        0.88113672455493
C           27.62626016687252        1.78047040997050        1.78334279906724
C           26.65095834306578        2.44892993312805        2.45023736231030
C           25.39598299089184        1.95662059241079        1.95878746766561
N           25.62454066780083        1.00157591495280        1.00481708451879
C           24.15058964075255        2.38749666070853        2.39104665281182
C           22.91980641435145        1.93362660131625        1.93922998243232
C           21.64406626109652        2.39958076695045        2.40894281637939
C           20.69532047485131        1.71501804850335        1.72295959168170
C           21.38383094476263        0.82512067775445        0.82845924959093
N           22.73094714770215        0.97947078933755        0.98197817663273
H           19.68366738577105       -0.06100636784255       -0.06206144029054
H           19.68282531369505       -1.91924868896280       -1.92476846341238
H           21.61332288851174       -3.24963530739014       -3.25776427353968
H           24.24176874998902       -3.20172813414542       -3.21123382704886
H           26.86213270642687       -3.21362121861668       -3.21807161184578
H           28.75583453348464       -1.86206335236237       -1.85573450845640
H           28.69529981891981        1.88107782627624        1.88435380026379
H           26.75817972889568        3.20872597509482        3.20836150425044
H           24.13841859197020        3.15475245480425        3.15846206077227
H           21.50891936753913        3.15452047883542        3.16768563467345
H           19.62235375480983        1.79341536413692        1.80339562656261
Cu          64.70908130294515        0.00339921572716       -0.01236667386728
C           68.13314137966351        0.05275893236644       -0.00807063060430
C           67.48589456784380        1.27867504070991       -0.06751434285245
C           68.14142953191248        2.55649136346463       -0.12843708771504
C           67.16791357314224        3.49978207041069       -0.16858367759340
C           65.90969300125820        2.80618092122895       -0.13206313146374
N           66.13349314609813        1.46127528841305       -0.07339201345514
C           64.66287852039899        3.41442827611883       -0.14823698763938
C           63.43382626185279        2.77271438665100       -0.11323307922716
C           62.16114963586514        3.43560304307318       -0.12978845805651
C           61.21063087817981        2.46757993536936       -0.09068685669420
N           63.24032076122793        1.41858002197475       -0.06273655244255
C           61.89664630364242        1.20826253125841       -0.05044768088732
C           61.26347311895216       -0.04633391000393       -0.01718294134737
C           61.93219700453318       -1.28207646119652        0.01834382910345
C           61.28278008854645       -2.56062554001558        0.05918323829566
C           62.26084914412534       -3.50068632770166        0.10262417913991
C           63.51390507918227       -2.80138697418821        0.08762956243850
N           63.28146178244067       -1.45346510502434        0.03419496158612
C           64.76089434816841       -3.40741293360729        0.12530430342389
C           65.98989215159756       -2.76386036031088        0.10994493083889
C           67.26750386783070       -3.42091391622359        0.14717757634918
C           68.21352582582776       -2.44990321055752        0.10951448233050
C           67.52151834412243       -1.19146088281887        0.04922122975565
N           66.17499465984775       -1.41298101247809        0.05275216200936
H           69.21809079096877        0.06847383534748       -0.00668038513271
H           69.21112259387380        2.69626249977593       -0.13836920782575
H           67.27505511922770        4.57213086901085       -0.21842549975073
H           64.64681081756945        4.49864389562031       -0.19218408919407
H           62.02667780639334        4.50520748856977       -0.16723178207326
H           60.13832246760693        2.58264139821621       -0.09011105379404
H           60.21423553059579       -2.70659404720950        0.05605232249321
H           62.15711405526037       -4.57364639430070        0.14233047080170
H           64.77576659275715       -4.49162075902921        0.17036960279173
H           67.40574713244648       -4.48978716007024        0.19512542557333
H           69.28678720008901       -2.55888561547669        0.12042100640987
C           30.26653542787486        0.01545803141656        0.02005126692928
C           29.04479980628865        0.00984603087324        0.01623102941555
C           31.61634608204111        0.01940524782283        0.02102966722877
C           32.83825239126482        0.01773881182096        0.01880420108463
C           43.77394135840685       -0.02233887495926       -0.02499840347761
C           42.55203387469753       -0.01618540640727       -0.01879121015545
C           45.12342053091040       -0.02887485918694       -0.03090504589072
C           46.34536033539654       -0.03285832754392       -0.03190179198474
C           57.28266403394733       -0.07783252084828       -0.01939662730114
C           56.06134513988088       -0.07379262888394       -0.02245410850196
C           58.63426578700921       -0.07261939136167       -0.01869055970360
C           59.85540306053047       -0.06453456520155       -0.01776335943402
Cu          37.69550690183710        0.00148265549470        0.00138114241412
C           34.24370373117175        0.01507085070609        0.01386052769495
C           34.90248440455599        0.94156315178910        0.84259519907710
C           34.24196207489285        1.89017953478356        1.69190130603003
C           35.21242166085717        2.59816704366222        2.32446040162784
C           36.47059408170750        2.08518243969070        1.86405127663376
N           36.24919662392343        1.07829680618476        0.96357988862797
C           37.71343503788861        2.54510520234409        2.27298892074470
C           38.94995764230826        2.07798770821299        1.85286313940397
C           40.21537001323338        2.58383071989765        2.30089768084622
C           41.17554397710572        1.86841378955999        1.66088012974789
N           39.15676967031923        1.06835653154753        0.95208432739490
C           40.50137592018778        0.92255541924819        0.81944723201872
C           41.14689095475516       -0.01069356796571       -0.01253248734590
C           40.48778726163859       -0.93967160325297       -0.83864377642719
C           41.14837326968004       -1.89028173191623       -1.68545696499918
C           40.17796012476657       -2.59993911262142       -2.31640246933207
C           38.91992619158674       -2.08553546355339       -1.85775230850285
N           39.14109614748107       -1.07664697063083       -0.95952091608075
C           37.67702090024896       -2.54514144117107       -2.26715568057935
C           36.44078436469134       -2.07497073822668       -1.85006572273602
C           35.17532201539033       -2.57891806359970       -2.30025093654724
C           34.21520760616096       -1.86160992630589       -1.66243466261260
C           34.88941900320657       -0.91676380768649       -0.81968700856156
N           36.23396940185332       -1.06439771846355       -0.95036882926670
H           33.17214268473288        1.99154680944282        1.78328474680216
H           35.09990442003632        3.39752149482488        3.03995558327246
H           37.71909129402450        3.35438788296582        2.99628553337313
H           40.33978179616707        3.38394416190491        3.01355463730940
H           42.24673351093922        1.96316219834172        1.74283756878114
H           42.21811492526398       -1.99216154444538       -1.77700003350073
H           40.29095382300832       -3.40099727668229       -3.02988983374586
H           37.67143238881013       -3.35604892704844       -2.98859090201438
H           35.05114984356240       -3.37911949927154       -3.01284362715893
H           33.14403572071661       -1.95452095697735       -1.74650114375018
Cu          51.20200179477432       -0.04974387526896       -0.03172720488905
C           47.75057628374594       -0.03735556712744       -0.03366482603534
C           48.40596587650452        0.89433823987921        0.79226366654478
C           47.74170941236388        1.84834393784705        1.63249515971226
C           48.70933368351809        2.56548692289843        2.25905257792352
C           49.96952129931162        2.05224081193453        1.80447770245007
N           49.75212430055770        1.03537943892988        0.91433631359372
C           51.21064024817014        2.52207625580617        2.20723710777957
C           52.44878558333523        2.05368213734998        1.79310419556144
C           53.71226640580409        2.56896967110342        2.23629445441526
C           54.67536710798515        1.84589859345784        1.60977781839638
N           52.65956556525494        1.03186162679815        0.90748896278755
C           54.00525820246402        0.88545797842150        0.78121867126864
C           54.65384887128313       -0.06720388946086       -0.02454849741112
C           53.99877364326156       -1.01247427890442       -0.83384162653476
C           54.66271536666549       -1.97918812766833       -1.65997267652376
C           53.69511376834492       -2.69027664533154       -2.29318443351683
C           52.43496384602729       -2.16183016723553       -1.85583111991558
N           52.65225260340067       -1.14410229701326       -0.96718059396377
C           51.19412001615829       -2.61606156460195       -2.27763532969073
C           49.95590763120310       -2.13660860443583       -1.87715549775111
C           48.69245507081811       -2.63764073068007       -2.33626009292823
C           47.72945400957795       -1.91687221336061       -1.70666035641376
C           48.39989673529283       -0.97185490409364       -0.86117954833958
N           49.74498889865000       -1.12226638140881       -0.98255252946861
H           46.67153619477313        1.94718138239626        1.72242111661730
H           48.59338174953981        3.37149546200749        2.96647946980048
H           51.21333411099727        3.34041374324168        2.92025498643665
H           53.83308005506026        3.37936722304981        2.93788655362716
H           55.74612402724676        1.94351167687150        1.69369386946220
H           55.73279152660947       -2.08847227474608       -1.73801575848312
H           53.81069010280186       -3.50111838210829       -2.99511899118880
H           51.19211344835193       -3.43149400063242       -2.99396376282493
H           48.57123849485324       -3.43854836489099       -3.04858996582920
H           46.65867825541513       -2.00738252894532       -1.79816977632826

          :  Hamiltonian                  GFN1-xTB          :
         :: total energy            -285.944237299924 Eh    ::
         :: gradient norm              0.000931793642 Eh/a0 ::
         :: HOMO-LUMO gap              0.001470251539 eV    ::
         :: SCC energy              -290.456703946126 Eh    ::
         :: repulsion energy           4.647770760756 Eh    ::

    * Orbital Energies and Occupations

         #    Occupation            Energy/Eh            Energy/eV
      -------------------------------------------------------------
         1        2.0000           -0.7647589             -20.8101
       ...           ...                  ...                  ...
       255        2.0000           -0.4081072             -11.1052
       256        2.0000           -0.4077814             -11.0963
       257        2.0000           -0.4075633             -11.0904
       258        2.0000           -0.3968707             -10.7994
       259        2.0000           -0.3960217             -10.7763
       260        2.0000           -0.3959650             -10.7748
       261        2.0000           -0.3956366             -10.7658
       262        2.0000           -0.3955877             -10.7645
       263        2.0000           -0.3913254             -10.6485
       264        2.0000           -0.3851950             -10.4817
       265        2.0000           -0.3782397             -10.2924
       266        1.0153           -0.3557407              -9.6802
       267        1.0140           -0.3557382              -9.6801 (HOMO)
       268        0.9856           -0.3556842              -9.6787 (LUMO)
       269        0.9851           -0.3556833              -9.6786
       270        0.0000           -0.3429452              -9.3320
       271                         -0.3359311              -9.1412
       272                         -0.3294659              -8.9652
       273                         -0.3280494              -8.9267
       274                         -0.3279945              -8.9252
       275                         -0.3274193              -8.9095
       276                         -0.3273700              -8.9082
       277                         -0.3233290              -8.7982
       278                         -0.3023093              -8.2263
       ...                                ...                  ...
       552                          1.5196620              41.3521
      -------------------------------------------------------------
                  HL-Gap            0.0000540 Eh            0.0015 eV

Wiberg/Mayer (AO) data.
largest (>0.10) Wiberg bond orders for each atom

     #   Z sym  total        # sym  WBO       # sym  WBO       # sym  WBO
 ---------------------------------------------------------------------------
     1  29 Cu   2.197 --     7 N    0.508    25 N    0.508    12 N    0.505
                            19 N    0.505
     2   6 C    3.934 --     3 C    1.362    24 C    1.362    26 H    0.972
     3   6 C    3.917 --     2 C    1.362     7 N    1.234     4 C    1.166
     4   6 C    3.955 --     5 C    1.662     3 C    1.166    27 H    0.976
     5   6 C    3.957 --     4 C    1.662     6 C    1.167    28 H    0.976
     6   6 C    3.914 --     8 C    1.360     7 N    1.233     5 C    1.167
     7   7 N    3.247 --     3 C    1.234     6 C    1.233     1 Cu   0.508
     8   6 C    3.940 --     9 C    1.367     6 C    1.360    29 H    0.971
     9   6 C    3.909 --     8 C    1.367    12 N    1.217    10 C    1.174
    10   6 C    3.953 --    11 C    1.649     9 C    1.174    30 H    0.976
    11   6 C    3.956 --    10 C    1.649    13 C    1.182    31 H    0.974
    12   7 N    3.252 --    13 C    1.261     9 C    1.217     1 Cu   0.505
    13   6 C    3.898 --    12 N    1.261    14 C    1.260    11 C    1.182
    14   6 C    3.944 --    15 C    1.261    13 C    1.260    74 C    1.186
    15   6 C    3.898 --    14 C    1.261    19 N    1.261    16 C    1.182
    16   6 C    3.956 --    17 C    1.648    15 C    1.182    32 H    0.974
    17   6 C    3.953 --    16 C    1.648    18 C    1.174    33 H    0.976
    18   6 C    3.909 --    20 C    1.367    19 N    1.217    17 C    1.174
    19   7 N    3.252 --    15 C    1.261    18 C    1.217     1 Cu   0.505
    20   6 C    3.940 --    18 C    1.367    21 C    1.360    34 H    0.971
    21   6 C    3.914 --    20 C    1.360    25 N    1.233    22 C    1.167
    22   6 C    3.957 --    23 C    1.662    21 C    1.167    35 H    0.976
    23   6 C    3.955 --    22 C    1.662    24 C    1.166    36 H    0.976
    24   6 C    3.917 --     2 C    1.362    25 N    1.234    23 C    1.166
    25   7 N    3.247 --    24 C    1.234    21 C    1.233     1 Cu   0.508
    26   1 H    1.001 --     2 C    0.972
    27   1 H    0.998 --     4 C    0.976
    28   1 H    0.998 --     5 C    0.976
    29   1 H    1.001 --     8 C    0.971
    30   1 H    0.998 --    10 C    0.976
    31   1 H    1.002 --    11 C    0.974
    32   1 H    1.002 --    16 C    0.974
    33   1 H    0.998 --    17 C    0.976
    34   1 H    1.001 --    20 C    0.971
    35   1 H    0.998 --    22 C    0.976
    36   1 H    0.998 --    23 C    0.976
    37  29 Cu   2.198 --    43 N    0.508    61 N    0.508    55 N    0.505
                            48 N    0.505
    38   6 C    3.936 --    39 C    1.362    60 C    1.362    62 H    0.972
    39   6 C    3.917 --    38 C    1.362    43 N    1.234    40 C    1.166
    40   6 C    3.955 --    41 C    1.662    39 C    1.166    63 H    0.976
    41   6 C    3.957 --    40 C    1.662    42 C    1.166    64 H    0.976
    42   6 C    3.915 --    44 C    1.361    43 N    1.233    41 C    1.166
    43   7 N    3.248 --    39 C    1.234    42 C    1.233    37 Cu   0.508
    44   6 C    3.941 --    45 C    1.367    42 C    1.361    65 H    0.971
    45   6 C    3.909 --    44 C    1.367    48 N    1.218    46 C    1.173
    46   6 C    3.954 --    47 C    1.650    45 C    1.173    66 H    0.976
    47   6 C    3.957 --    46 C    1.650    49 C    1.181    67 H    0.974
    48   7 N    3.252 --    49 C    1.259    45 C    1.218    37 Cu   0.505
    49   6 C    3.899 --    50 C    1.265    48 N    1.259    47 C    1.181
    50   6 C    3.945 --    51 C    1.265    49 C    1.265    84 C    1.178
    51   6 C    3.900 --    50 C    1.265    55 N    1.259    52 C    1.181
    52   6 C    3.957 --    53 C    1.650    51 C    1.181    68 H    0.974
    53   6 C    3.954 --    52 C    1.650    54 C    1.173    69 H    0.976
    54   6 C    3.909 --    56 C    1.367    55 N    1.218    53 C    1.173
    55   7 N    3.252 --    51 C    1.259    54 C    1.218    37 Cu   0.505
    56   6 C    3.941 --    54 C    1.367    57 C    1.361    70 H    0.971
    57   6 C    3.915 --    56 C    1.361    61 N    1.233    58 C    1.167
    58   6 C    3.957 --    59 C    1.662    57 C    1.167    71 H    0.976
    59   6 C    3.955 --    58 C    1.662    60 C    1.166    72 H    0.976
    60   6 C    3.917 --    38 C    1.362    61 N    1.234    59 C    1.166
    61   7 N    3.248 --    60 C    1.234    57 C    1.233    37 Cu   0.508
    62   1 H    1.001 --    38 C    0.972
    63   1 H    0.998 --    40 C    0.976
    64   1 H    0.998 --    41 C    0.976
    65   1 H    1.001 --    44 C    0.971
    66   1 H    0.998 --    46 C    0.976
    67   1 H    1.002 --    47 C    0.974
    68   1 H    1.002 --    52 C    0.974
    69   1 H    0.998 --    53 C    0.976
    70   1 H    1.001 --    56 C    0.971
    71   1 H    0.998 --    58 C    0.976
    72   1 H    0.998 --    59 C    0.976
    73   6 C    3.937 --    74 C    2.480    75 C    1.306
    74   6 C    3.926 --    73 C    2.480    14 C    1.186    76 C    0.200
    75   6 C    3.935 --    76 C    2.478    73 C    1.306
    76   6 C    3.927 --    75 C    2.478    86 C    1.188    74 C    0.200
    77   6 C    3.934 --    78 C    2.476    79 C    1.308
    78   6 C    3.926 --    77 C    2.476    98 C    1.189    80 C    0.199
    79   6 C    3.935 --    80 C    2.476    77 C    1.308
    80   6 C    3.925 --    79 C    2.476   121 C    1.189    78 C    0.199
    81   6 C    3.934 --    82 C    2.486    83 C    1.298
    82   6 C    3.924 --    81 C    2.486   133 C    1.180    84 C    0.198
    83   6 C    3.937 --    84 C    2.488    81 C    1.298
    84   6 C    3.923 --    83 C    2.488    50 C    1.178    82 C    0.198
    85  29 Cu   2.167 --   103 N    0.500    91 N    0.500    96 N    0.500
                           109 N    0.500
    86   6 C    3.932 --    87 C    1.258   108 C    1.258    76 C    1.188
    87   6 C    3.899 --    91 N    1.264    86 C    1.258    88 C    1.182
    88   6 C    3.955 --    89 C    1.647    87 C    1.182   110 H    0.974
    89   6 C    3.954 --    88 C    1.647    90 C    1.175   111 H    0.976
    90   6 C    3.907 --    92 C    1.364    91 N    1.217    89 C    1.175
    91   7 N    3.244 --    87 C    1.264    90 C    1.217    85 Cu   0.500
    92   6 C    3.935 --    90 C    1.364    93 C    1.364   112 H    0.971
    93   6 C    3.907 --    92 C    1.364    96 N    1.217    94 C    1.175
    94   6 C    3.954 --    95 C    1.647    93 C    1.175   113 H    0.976
    95   6 C    3.955 --    94 C    1.647    97 C    1.183   114 H    0.974
    96   7 N    3.244 --    97 C    1.264    93 C    1.217    85 Cu   0.500
    97   6 C    3.898 --    96 N    1.264    98 C    1.258    95 C    1.183
    98   6 C    3.932 --    97 C    1.258    99 C    1.258    78 C    1.189
    99   6 C    3.898 --   103 N    1.264    98 C    1.258   100 C    1.183
   100   6 C    3.955 --   101 C    1.647    99 C    1.183   115 H    0.974
   101   6 C    3.954 --   100 C    1.647   102 C    1.175   116 H    0.976
   102   6 C    3.907 --   104 C    1.364   103 N    1.217   101 C    1.175
   103   7 N    3.244 --    99 C    1.264   102 C    1.217    85 Cu   0.500
   104   6 C    3.935 --   105 C    1.364   102 C    1.364   117 H    0.971
   105   6 C    3.907 --   104 C    1.364   109 N    1.217   106 C    1.175
   106   6 C    3.954 --   107 C    1.647   105 C    1.175   118 H    0.976
   107   6 C    3.955 --   106 C    1.647   108 C    1.182   119 H    0.974
   108   6 C    3.899 --   109 N    1.264    86 C    1.258   107 C    1.182
   109   7 N    3.244 --   108 C    1.264   105 C    1.217    85 Cu   0.500
   110   1 H    1.002 --    88 C    0.974
   111   1 H    0.998 --    89 C    0.976
   112   1 H    1.002 --    92 C    0.971
   113   1 H    0.998 --    94 C    0.976
   114   1 H    1.002 --    95 C    0.974
   115   1 H    1.002 --   100 C    0.974
   116   1 H    0.998 --   101 C    0.976
   117   1 H    1.002 --   104 C    0.971
   118   1 H    0.998 --   106 C    0.976
   119   1 H    1.002 --   107 C    0.974
   120  29 Cu   2.169 --   126 N    0.500   138 N    0.500   131 N    0.500
                           144 N    0.500
   121   6 C    3.934 --   143 C    1.258   122 C    1.258    80 C    1.189
   122   6 C    3.898 --   126 N    1.264   121 C    1.258   123 C    1.182
   123   6 C    3.955 --   124 C    1.647   122 C    1.182   145 H    0.974
   124   6 C    3.954 --   123 C    1.647   125 C    1.175   146 H    0.976
   125   6 C    3.907 --   127 C    1.365   126 N    1.217   124 C    1.175
   126   7 N    3.245 --   122 C    1.264   125 C    1.217   120 Cu   0.500
   127   6 C    3.935 --   125 C    1.365   128 C    1.364   147 H    0.971
   128   6 C    3.908 --   127 C    1.364   131 N    1.218   129 C    1.175
   129   6 C    3.955 --   130 C    1.648   128 C    1.175   148 H    0.976
   130   6 C    3.955 --   129 C    1.648   132 C    1.182   149 H    0.974
   131   7 N    3.244 --   132 C    1.262   128 C    1.218   120 Cu   0.500
   132   6 C    3.900 --   133 C    1.262   131 N    1.262   130 C    1.182
   133   6 C    3.933 --   134 C    1.262   132 C    1.262    82 C    1.180
   134   6 C    3.900 --   133 C    1.262   138 N    1.262   135 C    1.182
   135   6 C    3.955 --   136 C    1.648   134 C    1.182   150 H    0.974
   136   6 C    3.955 --   135 C    1.648   137 C    1.174   151 H    0.976
   137   6 C    3.908 --   139 C    1.364   138 N    1.218   136 C    1.174
   138   7 N    3.244 --   134 C    1.262   137 C    1.218   120 Cu   0.500
   139   6 C    3.935 --   140 C    1.365   137 C    1.364   152 H    0.971
   140   6 C    3.907 --   139 C    1.365   144 N    1.217   141 C    1.175
   141   6 C    3.954 --   142 C    1.647   140 C    1.175   153 H    0.976
   142   6 C    3.955 --   141 C    1.647   143 C    1.182   154 H    0.974
   143   6 C    3.898 --   144 N    1.264   121 C    1.258   142 C    1.182
   144   7 N    3.245 --   143 C    1.264   140 C    1.217   120 Cu   0.500
   145   1 H    1.002 --   123 C    0.974
   146   1 H    0.998 --   124 C    0.976
   147   1 H    1.002 --   127 C    0.971
   148   1 H    0.998 --   129 C    0.976
   149   1 H    1.002 --   130 C    0.974
   150   1 H    1.002 --   135 C    0.974
   151   1 H    0.998 --   136 C    0.976
   152   1 H    1.002 --   139 C    0.971
   153   1 H    0.998 --   141 C    0.976
   154   1 H    1.002 --   142 C    0.974
 ---------------------------------------------------------------------------

           -------------------------------------------------
          | TOTAL ENERGY             -285.944237299924 Eh   |
          | GRADIENT NORM               0.000931793642 Eh/α |
          | HOMO-LUMO GAP               0.001470251539 eV   |
           -------------------------------------------------

 * finished run on 2022/07/30 at 04:17:57.151
