   * xtb version 6.5.1 (b24c23e) compiled by 'conda@728c89f4b128' on 2022-07-12
          program call               : xtb Cu_BSA_C8_2.xyz --gfn 1 --opt -T 48

   ID    Z sym.   atoms
    1   29 Cu     1, 65
    2    6 C      2-6, 8-12, 17-21, 23-28, 30-34, 39-44, 66-70, 72-76, 81-85,
                  87-92, 94-98, 103-108, 129-136
    3    7 N      7, 22, 29, 45, 71, 86, 93, 109
    4   16 S      13, 35, 77, 99
    5    8 O      14-16, 36-38, 78-80, 100-102
    6    1 H      46-64, 110-128
########################################################################
[WARNING] Please study the warnings concerning your input carefully
-1- prog_main_parseArguments: Unknown option '-T' provided
########################################################################

          :  Hamiltonian                  GFN1-xTB          :
 * total energy  :  -277.4350397 Eh     change        0.1966441E-08 Eh
 * total energy  :  -277.6791075 Eh     change       -0.2440678E+00 Eh
 * total energy  :  -277.7756682 Eh     change       -0.9656068E-01 Eh
 * total energy  :  -277.8059948 Eh     change       -0.3032664E-01 Eh
 * total energy  :  -277.8196072 Eh     change       -0.1361236E-01 Eh
 * total energy  :  -277.8275474 Eh     change       -0.7940225E-02 Eh
 * total energy  :  -277.8325651 Eh     change       -0.5017715E-02 Eh
 * total energy  :  -277.8362069 Eh     change       -0.3641794E-02 Eh
 * total energy  :  -277.8392772 Eh     change       -0.3070226E-02 Eh
 * total energy  :  -277.8417418 Eh     change       -0.2464651E-02 Eh
 * total energy  :  -277.8514633 Eh     change       -0.1759656E-04 Eh
 * total energy  :  -277.8514729 Eh     change       -0.9592384E-05 Eh
 * total energy  :  -277.8514807 Eh     change       -0.7850467E-05 Eh
 * total energy  :  -277.8514895 Eh     change       -0.8801195E-05 Eh
 * total energy  :  -277.8514939 Eh     change       -0.4321907E-05 Eh
 * total energy  :  -277.8514981 Eh     change       -0.4229268E-05 Eh
 * total energy  :  -277.8514996 Eh     change       -0.1517869E-05 Eh
 * total energy  :  -277.8515042 Eh     change       -0.4623638E-05 Eh
 * total energy  :  -277.8515075 Eh     change       -0.3238117E-05 Eh
   *** GEOMETRY OPTIMIZATION CONVERGED AFTER 62 ITERATIONS ***

 final structure:
================
136
 xtb: 6.5.1 (b24c23e)
Cu          14.44331556044359        0.02448349506997        0.03978006797083
C           11.03925181624088        0.13343001999234        0.08734246482132
C           11.66974033164945       -0.18538691077019        1.28057659728855
C           10.99007078939552       -0.50583528536419        2.50341630324112
C           11.94531992100266       -0.75623487467021        3.43235018731042
C           13.21850785797839       -0.57864054431752        2.78731415181624
N           13.01982221619181       -0.24079173871021        1.48013304767345
C           14.46247680016562       -0.74751457384882        3.40024216385983
C           14.47207906966689       -1.08647275654045        4.84457221563765
C           13.93600375709293       -0.19928619870048        5.78127073777691
C           13.94457623791726       -0.51108285179265        7.13085862827091
C           14.48897229830828       -1.72084941663836        7.53033572344964
S           14.50717483596298       -2.12006584212557        9.23705762618604
O           14.44009594270385       -0.93301744555586       10.03718662150409
O           13.06955180902452       -2.87249010536421        9.31747046024155
O           15.52831922317457       -3.08357278830541        9.52728492487456
C           15.03007217361109       -2.62020966616243        6.62596314717126
C           15.02064609281348       -2.29563149983808        5.27950221453720
C           15.69833653831670       -0.62322254168125        2.76194902731048
C           16.97434405904631       -0.73076627099641        3.41152772965650
C           17.92228480828907       -0.53788345506783        2.45991580810221
N           15.88922216254094       -0.35489626744124        1.43282250981531
C           17.23338038883443       -0.30471438793551        1.22614173196203
C           17.87149720540017       -0.07022174689575       -0.00471531178379
C           17.21550907372723        0.19389027195887       -1.22006997415785
C           17.88400512857579        0.38465438138930       -2.47215740595878
C           16.92365185083052        0.62605882462612       -3.40009531537239
C           15.66103934064795        0.59316537516870       -2.71710685904607
N           15.87128068528074        0.31722420704274       -1.39245168287636
C           14.41797865362490        0.79174866663616       -3.32206875292740
C           14.40838155637624        1.13029687772653       -4.76638204090715
C           13.78190346927165        0.28552015940158       -5.68596222753164
C           13.76771255641654        0.60036075249192       -7.03489935255821
C           14.38428463004162        1.76883978074173       -7.45161585346797
S           14.35579521185632        2.18282606314169       -9.15541926300580
O           14.50482680732179        3.59661070724726       -9.34548734511483
O           15.75255888483249        1.48572789245509       -9.60436410744039
O           13.27461986764304        1.51100530695707       -9.81137064394372
C           15.01036172233397        2.62864770473966       -6.56358029046490
C           15.02142153860281        2.30205736657853       -5.21771858937453
C           13.18337568446199        0.70270182801619       -2.67411047963407
C           11.90665225312953        0.96438331154923       -3.28272348659257
C           10.96388392665450        0.77683989360958       -2.32673539944382
C           11.65547567633791        0.41102956457493       -1.12346403573674
N           13.00012707053609        0.37763363181991       -1.36142503709807
H            9.95487508611850        0.16937314717933        0.10265699466257
H            9.91837316584550       -0.54062155097484        2.61946467149620
H           11.80725997713472       -1.04698818349989        4.46130024778759
H           13.52590178717971        0.74717876314573        5.44877913271644
H           13.54181130614354        0.17384739250030        7.86638896128447
H           12.93171339494981       -3.23631149494286       10.20040698879769
H           15.45299642574514       -3.55428973306697        6.97380621648132
H           15.42969949242505       -2.98943292773505        4.55433422980113
H           17.12246192195723       -0.91423628242691        4.46333067510331
H           18.99426150435878       -0.54441212395954        2.57503945972723
H           18.95137925992371        0.33076281227842       -2.61471724408369
H           17.05431349871469        0.79689337625744       -4.45637444657090
H           13.31488065389443       -0.62952887288251       -5.34085404183526
H           13.28372740490224       -0.04660892934006       -7.75565838963952
H           16.06982545320193        1.87868748999552      -10.42621030539400
H           15.47229811920036        3.53997200104549       -6.92211111219921
H           15.49404047278331        2.96763782781934       -4.50484924392022
H           11.75838638937782        1.26538252745675       -4.30725357021725
H            9.89400528716219        0.88287719817049       -2.41213807331920
Cu          33.04220035640222        0.03800465338033       -0.02922299686136
C           36.44628085923296        0.15650695238479       -0.03328808695611
C           35.81576812331021        0.30099637666167       -1.25988700673573
C           36.49540091693039        0.45480497927089       -2.51464736642830
C           35.54012349040762        0.56548108608567       -3.47032115919105
C           34.26695594715418        0.49241044237173       -2.80524869039080
N           34.46567812225919        0.32345802805244       -1.46573078949899
C           33.02297551009615        0.56187583361500       -3.43718640073149
C           33.01340585848435        0.78029797915379       -4.90458661577363
C           33.54939513043062        1.95073535754781       -5.44741883887777
C           33.54090520832832        2.15934268761371       -6.81675943860245
C           32.99671202797569        1.18251637495330       -7.63477347888931
S           32.97824139227841        1.44188778993293       -9.36827110681691
O           33.04475524863341        2.84055312854822       -9.67337048450198
O           34.41603448697305        0.77285965847780       -9.72120432099593
O           31.95724665448521        0.65336514706091       -9.99367897285825
C           32.45571428602103        0.01269461594253       -7.12647521553549
C           32.46504435726715       -0.18287171707261       -5.75532649647785
C           31.78713581333632        0.44143751884650       -2.79812011855041
C           30.51111225726698        0.58107496771667       -3.44153767254610
C           29.56318477692021        0.40865035479304       -2.48598981931452
N           31.59627159525693        0.19988807986743       -1.46386476474872
C           30.25211189214920        0.16989764489767       -1.25329734737372
C           29.61403137475989       -0.06677412258445       -0.02283291705101
C           30.27006962297751       -0.27030108339522        1.20410289974030
C           29.60160233661035       -0.55576473942688        2.43807284760711
C           30.56195719201540       -0.67400380166419        3.38957596141800
C           31.82453932893555       -0.45195498057928        2.74280621252989
N           31.61427432194287       -0.21909780671698        1.40988652566150
C           33.06760956884387       -0.49054837756838        3.37833820746359
C           33.07713754013689       -0.70932892630221        4.84559192036068
C           33.70360722096138       -1.83397845107428        5.38823532996404
C           33.71750448105404       -2.03967683102437        6.75806667534103
C           33.10065429819842       -1.10780955257046        7.57678110885771
S           33.12875737005301       -1.35249546205440        9.31300479849829
O           32.97894464288419       -0.10906802273704       10.01195606084996
O           31.73235865170433       -2.16690644979300        9.47222138407813
O           34.21028530896485       -2.21854754013688        9.67470524890405
C           32.47462171097725        0.01917399496708        7.06901972246496
C           32.46386027031087        0.21281164894760        5.69769304805196
C           34.30219482238645       -0.33384203914207        2.74330126397526
C           35.57892385030943       -0.31530143235346        3.40551809753905
C           36.52168284198685       -0.13670219878584        2.44780589656510
C           35.83007455153007       -0.03245452546821        1.19449357423849
N           34.48542386226995       -0.15130296132553        1.40334176289947
H           37.53066504657005        0.19535859350433       -0.03429451609351
H           37.56709255820584        0.46512405795427       -2.63540053024680
H           35.67813010909541        0.67542211908194       -4.53390132960099
H           33.95934015361082        2.70757741237100       -4.78888347608954
H           33.94359962981141        3.06752448947860       -7.24733352289507
H           34.55372107017339        0.76093877483859      -10.67611390988510
H           32.03294320523440       -0.72697010986762       -7.79470155014337
H           32.05605717210607       -1.09545808585260       -5.33763479324223
H           30.36295519668593        0.79895270380999       -4.48674914804972
H           28.49120444072616        0.44473336030077       -2.59546364627219
H           28.53425131791547       -0.65883999887669        2.55056628092571
H           30.43131612661647       -0.90551658908052        4.43423953084010
H           34.17082754818465       -2.55679302377942        4.72962250284139
H           34.20144158500588       -2.90708030236910        7.18902079823995
H           31.41528968022106       -2.10628569552164       10.38124901172145
H           32.01245710743657        0.73355933673344        7.73871736899275
H           31.99124715947076        1.09459750723417        5.28099162235157
H           35.72714831546471       -0.41377006821811        4.46880491358118
H           37.59156553510321       -0.06967768931394        2.56628259093315
C           19.27661330821253       -0.09819045616749       -0.01934102664821
C           20.50078211280693       -0.11614079219703       -0.02582795831437
C           21.84338467815315       -0.12907060546863       -0.02929504004062
C           23.07382679142808       -0.13502611020599       -0.02821013731488
C           24.41169255097876       -0.13555473890447       -0.02598272173095
C           25.64212691607915       -0.12935505248123       -0.02238240787363
C           26.98472522203289       -0.11633808301985       -0.02045068910265
C           28.20891789561851       -0.09809758364501       -0.01963644425902

          :  Hamiltonian                  GFN1-xTB          :
         :: total energy            -277.851507462102 Eh    ::
         :: gradient norm              0.000640395172 Eh/a0 ::
         :: HOMO-LUMO gap              0.001476914204 eV    ::
         :: SCC energy              -281.603304452008 Eh    ::
         :: repulsion energy           3.874175967837 Eh    ::

    * Orbital Energies and Occupations

         #    Occupation            Energy/Eh            Energy/eV
      -------------------------------------------------------------
         1        2.0000           -1.0355273             -28.1781
       ...           ...                  ...                  ...
       230        2.0000           -0.4277224             -11.6389
       231        2.0000           -0.4245981             -11.5539
       232        2.0000           -0.4245968             -11.5539
       233        2.0000           -0.4244956             -11.5511
       234        2.0000           -0.4244498             -11.5499
       235        2.0000           -0.4244458             -11.5498
       236        2.0000           -0.4243647             -11.5476
       237        2.0000           -0.4202228             -11.4348
       238        2.0000           -0.4125840             -11.2270
       239        2.0000           -0.4125833             -11.2270
       240        2.0000           -0.4078870             -11.0992
       241        2.0000           -0.3981370             -10.8339
       242        1.0143           -0.3722478             -10.1294 (HOMO)
       243        0.9857           -0.3721935             -10.1279 (LUMO)
       244                         -0.3545040              -9.6465
       245                         -0.3470106              -9.4426
       246                         -0.3470093              -9.4426
       247                         -0.3444499              -9.3730
       248                         -0.3207538              -8.7282
       249                         -0.3169362              -8.6243
       250                         -0.3127604              -8.5106
       251                         -0.3081300              -8.3846
       252                         -0.3081039              -8.3839
       253                         -0.3068102              -8.3487
       ...                                ...                  ...
       498                          1.5946325              43.3922
      -------------------------------------------------------------
                  HL-Gap            0.0000543 Eh            0.0015 eV

Wiberg/Mayer (AO) data.
largest (>0.10) Wiberg bond orders for each atom

     #   Z sym  total        # sym  WBO       # sym  WBO       # sym  WBO
 ---------------------------------------------------------------------------
     1  29 Cu   2.178 --    45 N    0.503     7 N    0.503    22 N    0.500
                            29 N    0.500
     2   6 C    3.931 --    44 C    1.362     3 C    1.362    46 H    0.971
     3   6 C    3.915 --     2 C    1.362     7 N    1.229     4 C    1.169
     4   6 C    3.955 --     5 C    1.658     3 C    1.169    47 H    0.975
     5   6 C    3.958 --     4 C    1.658     6 C    1.170    48 H    0.973
     6   6 C    3.914 --     8 C    1.319     7 N    1.241     5 C    1.170
     7   7 N    3.243 --     6 C    1.241     3 C    1.229     1 Cu   0.503
     8   6 C    3.933 --    19 C    1.325     6 C    1.319     9 C    1.029
     9   6 C    3.986 --    10 C    1.391    18 C    1.391     8 C    1.029
    10   6 C    3.987 --    11 C    1.450     9 C    1.391    49 H    0.971
                            17 C    0.106
    11   6 C    3.989 --    10 C    1.450    12 C    1.407    50 H    0.967
                            18 C    0.106
    12   6 C    3.930 --    11 C    1.407    17 C    1.407    13 S    0.754
    13  16 S    5.264 --    14 O    1.721    16 O    1.717    15 O    1.012
                            12 C    0.754
    14   8 O    2.080 --    13 S    1.721    16 O    0.139
    15   8 O    2.087 --    13 S    1.012    51 H    0.828
    16   8 O    2.076 --    13 S    1.717    14 O    0.139
    17   6 C    3.989 --    18 C    1.450    12 C    1.407    52 H    0.967
                            10 C    0.106
    18   6 C    3.987 --    17 C    1.450     9 C    1.391    53 H    0.971
                            11 C    0.106
    19   6 C    3.908 --     8 C    1.325    22 N    1.224    20 C    1.178
    20   6 C    3.954 --    21 C    1.644    19 C    1.178    54 H    0.973
    21   6 C    3.956 --    20 C    1.644    23 C    1.186    55 H    0.973
    22   7 N    3.247 --    23 C    1.256    19 C    1.224     1 Cu   0.500
    23   6 C    3.895 --    24 C    1.259    22 N    1.256    21 C    1.186
    24   6 C    3.941 --    23 C    1.259    25 C    1.259   129 C    1.189
    25   6 C    3.895 --    24 C    1.259    29 N    1.257    26 C    1.186
    26   6 C    3.956 --    27 C    1.643    25 C    1.186    56 H    0.974
    27   6 C    3.954 --    26 C    1.643    28 C    1.178    57 H    0.973
    28   6 C    3.908 --    30 C    1.324    29 N    1.224    27 C    1.178
    29   7 N    3.247 --    25 C    1.257    28 C    1.224     1 Cu   0.500
    30   6 C    3.933 --    28 C    1.324    41 C    1.319    31 C    1.029
    31   6 C    3.986 --    32 C    1.391    40 C    1.390    30 C    1.029
    32   6 C    3.986 --    33 C    1.449    31 C    1.391    58 H    0.971
                            39 C    0.106
    33   6 C    3.989 --    32 C    1.449    34 C    1.408    59 H    0.967
                            40 C    0.106
    34   6 C    3.930 --    33 C    1.408    39 C    1.406    35 S    0.754
    35  16 S    5.267 --    38 O    1.729    36 O    1.712    37 O    1.014
                            34 C    0.754
    36   8 O    2.071 --    35 S    1.712    38 O    0.138
    37   8 O    2.089 --    35 S    1.014    60 H    0.828
    38   8 O    2.086 --    35 S    1.729    36 O    0.138
    39   6 C    3.989 --    40 C    1.451    34 C    1.406    61 H    0.967
                            32 C    0.106
    40   6 C    3.987 --    39 C    1.451    31 C    1.390    62 H    0.971
                            33 C    0.106
    41   6 C    3.914 --    30 C    1.319    45 N    1.241    42 C    1.170
    42   6 C    3.958 --    43 C    1.658    41 C    1.170    63 H    0.973
    43   6 C    3.955 --    42 C    1.658    44 C    1.169    64 H    0.975
    44   6 C    3.915 --     2 C    1.362    45 N    1.229    43 C    1.169
    45   7 N    3.243 --    41 C    1.241    44 C    1.229     1 Cu   0.503
    46   1 H    1.001 --     2 C    0.971
    47   1 H    0.997 --     4 C    0.975
    48   1 H    1.003 --     5 C    0.973
    49   1 H    1.003 --    10 C    0.971
    50   1 H    0.999 --    11 C    0.967
    51   1 H    0.854 --    15 O    0.828
    52   1 H    1.000 --    17 C    0.967
    53   1 H    1.003 --    18 C    0.971
    54   1 H    1.003 --    20 C    0.973
    55   1 H    1.001 --    21 C    0.973
    56   1 H    1.001 --    26 C    0.974
    57   1 H    1.003 --    27 C    0.973
    58   1 H    1.003 --    32 C    0.971
    59   1 H    0.999 --    33 C    0.967
    60   1 H    0.855 --    37 O    0.828
    61   1 H    1.000 --    39 C    0.967
    62   1 H    1.003 --    40 C    0.971
    63   1 H    1.003 --    42 C    0.973
    64   1 H    0.997 --    43 C    0.975
    65  29 Cu   2.178 --   109 N    0.503    71 N    0.503    86 N    0.500
                            93 N    0.500
    66   6 C    3.931 --   108 C    1.362    67 C    1.362   110 H    0.971
    67   6 C    3.915 --    66 C    1.362    71 N    1.229    68 C    1.169
    68   6 C    3.955 --    69 C    1.658    67 C    1.169   111 H    0.975
    69   6 C    3.958 --    68 C    1.658    70 C    1.170   112 H    0.973
    70   6 C    3.914 --    72 C    1.319    71 N    1.241    69 C    1.170
    71   7 N    3.243 --    70 C    1.241    67 C    1.229    65 Cu   0.503
    72   6 C    3.933 --    83 C    1.325    70 C    1.319    73 C    1.029
    73   6 C    3.986 --    74 C    1.391    82 C    1.391    72 C    1.029
    74   6 C    3.987 --    75 C    1.450    73 C    1.391   113 H    0.971
                            81 C    0.106
    75   6 C    3.989 --    74 C    1.450    76 C    1.407   114 H    0.967
                            82 C    0.106
    76   6 C    3.930 --    75 C    1.407    81 C    1.407    77 S    0.754
    77  16 S    5.264 --    78 O    1.721    80 O    1.717    79 O    1.012
                            76 C    0.754
    78   8 O    2.080 --    77 S    1.721    80 O    0.139
    79   8 O    2.087 --    77 S    1.012   115 H    0.828
    80   8 O    2.076 --    77 S    1.717    78 O    0.139
    81   6 C    3.989 --    82 C    1.450    76 C    1.407   116 H    0.967
                            74 C    0.106
    82   6 C    3.987 --    81 C    1.450    73 C    1.391   117 H    0.971
                            75 C    0.106
    83   6 C    3.908 --    72 C    1.325    86 N    1.224    84 C    1.178
    84   6 C    3.954 --    85 C    1.644    83 C    1.178   118 H    0.973
    85   6 C    3.956 --    84 C    1.644    87 C    1.186   119 H    0.973
    86   7 N    3.247 --    87 C    1.256    83 C    1.224    65 Cu   0.500
    87   6 C    3.895 --    88 C    1.259    86 N    1.256    85 C    1.186
    88   6 C    3.941 --    87 C    1.259    89 C    1.259   136 C    1.189
    89   6 C    3.895 --    88 C    1.259    93 N    1.257    90 C    1.186
    90   6 C    3.956 --    91 C    1.643    89 C    1.186   120 H    0.974
    91   6 C    3.954 --    90 C    1.643    92 C    1.178   121 H    0.973
    92   6 C    3.908 --    94 C    1.324    93 N    1.224    91 C    1.178
    93   7 N    3.247 --    89 C    1.257    92 C    1.224    65 Cu   0.500
    94   6 C    3.933 --    92 C    1.324   105 C    1.319    95 C    1.029
    95   6 C    3.986 --    96 C    1.391   104 C    1.390    94 C    1.029
    96   6 C    3.986 --    97 C    1.449    95 C    1.391   122 H    0.971
                           103 C    0.106
    97   6 C    3.989 --    96 C    1.449    98 C    1.408   123 H    0.967
                           104 C    0.106
    98   6 C    3.930 --    97 C    1.408   103 C    1.406    99 S    0.754
    99  16 S    5.267 --   102 O    1.729   100 O    1.712   101 O    1.014
                            98 C    0.754
   100   8 O    2.071 --    99 S    1.712   102 O    0.138
   101   8 O    2.089 --    99 S    1.014   124 H    0.828
   102   8 O    2.086 --    99 S    1.729   100 O    0.138
   103   6 C    3.989 --   104 C    1.451    98 C    1.406   125 H    0.967
                            96 C    0.106
   104   6 C    3.987 --   103 C    1.451    95 C    1.390   126 H    0.971
                            97 C    0.106
   105   6 C    3.914 --    94 C    1.319   109 N    1.241   106 C    1.170
   106   6 C    3.958 --   107 C    1.658   105 C    1.170   127 H    0.973
   107   6 C    3.955 --   106 C    1.658   108 C    1.169   128 H    0.975
   108   6 C    3.915 --    66 C    1.362   109 N    1.229   107 C    1.169
   109   7 N    3.243 --   105 C    1.241   108 C    1.229    65 Cu   0.503
   110   1 H    1.001 --    66 C    0.971
   111   1 H    0.997 --    68 C    0.975
   112   1 H    1.003 --    69 C    0.973
   113   1 H    1.003 --    74 C    0.971
   114   1 H    0.999 --    75 C    0.967
   115   1 H    0.854 --    79 O    0.828
   116   1 H    1.000 --    81 C    0.967
   117   1 H    1.003 --    82 C    0.971
   118   1 H    1.003 --    84 C    0.973
   119   1 H    1.001 --    85 C    0.973
   120   1 H    1.001 --    90 C    0.974
   121   1 H    1.003 --    91 C    0.973
   122   1 H    1.003 --    96 C    0.971
   123   1 H    0.999 --    97 C    0.967
   124   1 H    0.855 --   101 O    0.828
   125   1 H    1.000 --   103 C    0.967
   126   1 H    1.003 --   104 C    0.971
   127   1 H    1.003 --   106 C    0.973
   128   1 H    0.997 --   107 C    0.975
   129   6 C    3.878 --   130 C    2.442    24 C    1.189   132 C    0.187
   130   6 C    3.936 --   129 C    2.442   131 C    1.343
   131   6 C    3.894 --   132 C    2.338   130 C    1.343   134 C    0.183
   132   6 C    3.926 --   131 C    2.338   133 C    1.368   129 C    0.187
   133   6 C    3.926 --   134 C    2.338   132 C    1.368   136 C    0.187
   134   6 C    3.894 --   133 C    2.338   135 C    1.343   131 C    0.183
   135   6 C    3.936 --   136 C    2.442   134 C    1.343
   136   6 C    3.878 --   135 C    2.442    88 C    1.189   133 C    0.187
 ---------------------------------------------------------------------------

           -------------------------------------------------
          | TOTAL ENERGY             -277.851507462102 Eh   |
          | GRADIENT NORM               0.000640395172 Eh/α |
          | HOMO-LUMO GAP               0.001476914204 eV   |
           -------------------------------------------------

 * finished run on 2022/07/30 at 13:56:09.468
