   * xtb version 6.5.1 (b24c23e) compiled by 'conda@728c89f4b128' on 2022-07-12
          program call               : xtb Zn_PhNH2_C2_3.xyz --gfn 1 --opt -T 48

   ID    Z sym.   atoms
    1   30 Zn     1, 61, 125
    2    6 C      2-6, 8-12, 14-18, 20-25, 27-31, 33-38, 62-66, 68-72, 74-78,
                  80-85, 87-91, 93-98, 121-124, 126-130, 132-136, 138-142,
                  144-149, 151-155, 157-162
    3    7 N      7, 13, 19, 26, 32, 39, 67, 73, 79, 86, 92, 99, 131, 137,
                  143, 150, 156, 163
    4    1 H      40-60, 100-120, 164-183
########################################################################
[WARNING] Please study the warnings concerning your input carefully
-1- prog_main_parseArguments: Unknown option '-T' provided
########################################################################

          :  Hamiltonian                  GFN1-xTB          :
 * total energy  :  -304.0342981 Eh     change       -0.9534347E-09 Eh
 * total energy  :  -304.4318721 Eh     change       -0.3975739E+00 Eh
 * total energy  :  -304.5766863 Eh     change       -0.1448142E+00 Eh
 * total energy  :  -304.6379950 Eh     change       -0.6130870E-01 Eh
 * total energy  :  -304.6564985 Eh     change       -0.1850353E-01 Eh
 * total energy  :  -304.6668596 Eh     change       -0.1036109E-01 Eh
 * total energy  :  -304.6728132 Eh     change       -0.5953556E-02 Eh
 * total energy  :  -304.6773841 Eh     change       -0.4570986E-02 Eh
 * total energy  :  -304.6806445 Eh     change       -0.3260334E-02 Eh
 * total energy  :  -304.6832374 Eh     change       -0.2592938E-02 Eh
 * total energy  :  -304.6971647 Eh     change       -0.1673051E-04 Eh
 * total energy  :  -304.6971925 Eh     change       -0.2774583E-04 Eh
 * total energy  :  -304.6972062 Eh     change       -0.1372520E-04 Eh
 * total energy  :  -304.6972369 Eh     change       -0.3074261E-04 Eh
 * total energy  :  -304.6972475 Eh     change       -0.1059582E-04 Eh
 * total energy  :  -304.6972570 Eh     change       -0.9508246E-05 Eh
 * total energy  :  -304.6972654 Eh     change       -0.8355749E-05 Eh
 * total energy  :  -304.6972759 Eh     change       -0.1047785E-04 Eh
 * total energy  :  -304.6972803 Eh     change       -0.4449337E-05 Eh
   *** GEOMETRY OPTIMIZATION CONVERGED AFTER 47 ITERATIONS ***

 final structure:
================
183
 xtb: 6.5.1 (b24c23e)
Zn          34.17684374377716        0.03035062146051        0.02470657617421
C           30.76303062705708        0.06841705182198        0.10945008262078
C           31.38259858856492        1.19469530785002       -0.41889676888377
C           30.69870320437561        2.33548524822366       -0.95962325120842
C           31.65046051788390        3.21288158500703       -1.36636809825728
C           32.92821054826265        2.62377515299331       -1.06614144846347
N           32.73039239352978        1.39638435643514       -0.50404463624191
C           34.17463488960787        3.20876781649020       -1.32087761675039
C           34.17956162844018        4.57218929766089       -1.90560988946383
C           34.77174227543284        4.81110544062893       -3.14814574818677
C           34.77775071136080        6.07993849159391       -3.70025441666575
C           34.20059328934007        7.14778001467634       -3.00878166161961
N           34.17017854775936        8.41166308720977       -3.57512726355431
C           33.60242489060652        6.91718022125367       -1.76760265285687
C           33.59293773212633        5.64313978138062       -1.22725080721351
C           35.41840636350847        2.61731124798489       -1.06845121175158
C           36.68755151742158        3.25834662096787       -1.26524168412929
C           37.64460373375309        2.36597501182710       -0.90492184733844
N           35.63059991736383        1.35563281719563       -0.57806357285285
C           36.97666655942189        1.17419567823376       -0.47744402867935
C           37.62665802382390       -0.00012939909431       -0.04096988013786
C           36.97199834071814       -1.17090622445494        0.39911900079870
C           37.63297894109668       -2.38633011670336        0.76647759300153
C           36.67448055160800       -3.26566021605346        1.15456603734602
C           35.41225956163835       -2.59263124727019        1.03570371308941
N           35.62849308155393       -1.32691530981303        0.55749584712788
C           34.16966897233362       -3.15839170040820        1.34682839796333
C           34.17370081153216       -4.52592958319576        1.92109948737605
C           34.83410428893383       -4.78953259271588        3.12385390198321
C           34.83913664332995       -6.06173785042236        3.66789145328744
C           34.19127886185576       -7.10876210994538        3.00776249727611
N           34.15989890337761       -8.37476985014912        3.56926621884495
C           33.52553593315392       -6.85369057240364        1.80643835703775
C           33.51821387537648       -5.57619682317031        1.27413814627125
C           32.92573029380846       -2.54206037832585        1.16276537714441
C           31.65172611688494       -3.10240728931801        1.52702025164484
C           30.70119417852791       -2.20034020730606        1.17487362169879
C           31.38283560100840       -1.07325584883341        0.60361918117158
N           32.72806885315320       -1.30680113001582        0.61795239802390
H           29.67774729116816        0.08112924312869        0.13789547067190
H           29.62651572353809        2.43730067122798       -1.02427847853518
H           31.50410889190708        4.17044547904007       -1.84014309913915
H           35.21525052083490        3.98590794090619       -3.69472003838399
H           35.23171392784937        6.25014942821712       -4.67047797123762
H           34.87775166851073        8.58068684506077       -4.27229241415205
H           34.05933660808358        9.16787852761598       -2.91861237583865
H           33.14988104664997        7.74176897196134       -1.22749586063916
H           33.14299712581429        5.47636771697527       -0.25455155607062
H           36.82902918380110        4.26719485316122       -1.61805652760150
H           38.71212794428985        2.50374171008405       -0.92146361475539
H           38.69573668893077       -2.55102989922264        0.71597321975948
H           36.80986646525849       -4.28581523645508        1.47589239189752
H           35.33226734403947       -3.98037660407330        3.64683476841130
H           35.34678682255675       -6.25090804173381        4.60753132286219
H           34.90773309839651       -8.57061477965534        4.21552641398846
H           33.98018848311606       -9.12294040422232        2.91867511536178
H           33.01858865574451       -7.66197651875710        1.29054098542918
H           33.01532024457381       -5.39107054659445        0.33113253797696
H           31.50718132733531       -4.05882260794706        2.00364227565013
H           29.63170210959639       -2.27732005284484        1.29488671874646
Zn          56.05074420422754       -0.04014803014774        0.06561043509072
C           59.46148190915049       -0.02688090335705        0.13665390421587
C           58.83298075507599       -1.08677482535075        0.77969315060753
C           59.50803452605854       -2.17807658938857        1.42383483071941
C           58.54971296157328       -2.99580117856827        1.92786385869424
C           57.27644414686859       -2.40638951216390        1.60939740437890
N           57.48387477062803       -1.25709306287128        0.90330363175239
C           56.02594286105639       -2.93240604588098        1.95705093319961
C           56.01029989122331       -4.17872119741536        2.76097238884398
C           55.39983467851397       -5.33405986630636        2.26667991361260
C           55.38536484093601       -6.50265161155445        3.00753987289678
C           55.97193976258176       -6.53594422611898        4.27495705812244
N           55.99453736408043       -7.71426402199442        5.00323433422130
C           56.58709924485846       -5.38609815105653        4.77594450348482
C           56.60516203174924       -4.22441690912154        4.02402896589505
C           54.78675664027708       -2.38051578176984        1.60949630261520
C           53.51092710024111       -2.87720243762436        2.04280230321705
C           52.56246696289326       -2.07001434499474        1.50176325098152
N           54.58892600989864       -1.27364744708637        0.82757395389103
C           53.24614587645743       -1.07114647423474        0.73572360457269
C           52.61192670181730       -0.04755493280664        0.00258921966635
C           53.26804740873133        0.97540373305021       -0.71190745763910
C           52.60878136543305        1.96606460918626       -1.50911740411302
C           53.57278648107388        2.77432431554557       -2.02016861789879
C           54.83382706344865        2.28757453816204       -1.53539738363365
N           54.61231095588865        1.18393871402188       -0.75523582833862
C           56.08243556913789        2.84576200144142       -1.83617946646087
C           56.09112608238618        4.08453840149976       -2.65157957877069
C           55.44709883865095        5.23857566840829       -2.19833170612648
C           55.45199823994312        6.39812250775367       -2.95338453312720
C           56.09315429658196        6.42350200736327       -4.19431572023530
N           56.13345338143992        7.59322912239677       -4.93562183313370
C           56.74333343007331        5.27552183446750       -4.65346461102396
C           56.74098874102142        4.12290050540005       -3.88751531678465
C           57.32114590804832        2.33115163614896       -1.43336661839904
C           58.60191038450718        2.93007604618549       -1.69952421297517
C           59.54457037924961        2.12222981769672       -1.15183557505503
C           58.85174840678869        1.02720493331687       -0.53352143972725
N           57.50770343733174        1.18612160583907       -0.71456398692561
H           60.54698561803492       -0.02231052785201        0.15943197909501
H           60.57923877856648       -2.29858961491560        1.47010646059838
H           58.68899450324620       -3.92424982595413        2.45833346198255
H           54.94916680725377       -5.31819808505482        1.28022616063865
H           54.91792502076599       -7.39600356761630        2.60768813531950
H           55.27714989891353       -8.37782214922225        4.75760528696527
H           56.11436733542944       -7.59617880606331        5.99666110241729
H           57.04645268384558       -5.40685073285767        5.75830110992713
H           57.06853270423337       -3.33090148187321        4.42816792941191
H           53.36072586565386       -3.72344094192189        2.69383169481917
H           51.49304194692833       -2.13329701162035        1.62160189333480
H           51.54449977844816        2.02244192362614       -1.67039980878071
H           53.44239716493444        3.61505854310213       -2.68246231328971
H           54.95403657784422        5.22925225510000       -1.23228754198684
H           54.95716042715725        7.29046888372386       -2.58553276009220
H           55.39401153974325        8.24759905876970       -4.73483135738268
H           56.30442979969676        7.46490065027990       -5.92032839559609
H           57.24545388842203        5.29011423385930       -5.61476933954836
H           57.23142502402095        3.23018382899929       -4.26027398702125
H           58.75600431110654        3.85804321654546       -2.22672927208496
H           60.61573851871898        2.25161938071414       -1.15280604497939
C           39.03784960717280       -0.00387834469357       -0.04060232540364
C           40.25716123672885       -0.00226194473385       -0.02399726742720
C           49.98501359482134       -0.04081573007164       -0.02354642978553
C           51.20273414726298       -0.04530622359338       -0.01434064457426
Zn          45.12558186657128       -0.01896625351905       -0.01697796840636
C           41.66798466815415       -0.00586354432363       -0.01977078841052
C           42.32597665182545        1.17954021999171       -0.41232763369574
C           41.66467435558524        2.39759464453631       -0.76920292892097
C           42.62736020430847        3.31635318908914       -1.03670258720795
C           43.89241191388175        2.66429788900757       -0.85565608839632
N           43.67334138220104        1.36721796956601       -0.47238284010782
C           45.14008954795386        3.28090962902887       -1.00233479580516
C           45.14377047790386        4.70640308143330       -1.41716202840272
C           44.62093408509746        5.09048285935915       -2.65385339607652
C           44.62703573700717        6.41784292778539       -3.04559366464976
C           45.15740855555906        7.39535410950526       -2.20048629336584
N           45.12130232329068        8.73119194664607       -2.56855891074822
C           45.67006447521508        7.02131258409917       -0.95628919917205
C           45.66814958045022        5.69045150395570       -0.57649011225475
C           46.38417155300997        2.67757729337174       -0.78816469392907
C           47.65638632827500        3.31699109098311       -0.96940176440113
C           48.61103769031585        2.39342632293033       -0.68727121488321
N           46.58942070000385        1.37726163510998       -0.41120311724221
C           47.93402498856540        1.17847136704924       -0.34595188365107
C           48.57620716452383       -0.03291951276167       -0.01894369256971
C           47.92372239873343       -1.23911424106291        0.30813338973742
C           48.58814935370776       -2.48034550661515        0.56964794839703
C           47.62591945381619       -3.39638860238029        0.85193648805947
C           46.36257173617193       -2.72014485039836        0.77012565523474
N           46.57895103397029       -1.41414459706018        0.42047348037207
C           45.11417940103401       -3.30974734147296        1.00108300199388
C           45.10909767923310       -4.72426244443798        1.44673575042726
C           44.46173488692517       -5.70889131528210        0.69632781312442
C           44.46046326047036       -7.02991936854852        1.10835457986271
C           45.10895801557075       -7.39623981356362        2.29027787524352
N           45.06872159128250       -8.70859476095160        2.73140975098297
C           45.74815099072931       -6.41609288367205        3.05345583212152
C           45.75210988337924       -5.09911265469018        2.62912580871642
C           43.87164825809952       -2.68203209578082        0.85258319568223
C           42.60501570793478       -3.28010496972997        1.16270609246460
C           41.64926831808233       -2.36048986789914        0.87276498476283
C           42.31730226398756       -1.18990849832820        0.39184989210877
N           43.66187458783767       -1.40517379713657        0.40217267797087
H           40.59745678922781        2.53544569290612       -0.79755244498483
H           42.49143902132302        4.34844776138628       -1.31667305269839
H           44.22201491200242        4.33507266772526       -3.32198378041082
H           44.22361570289848        6.70334408534438       -4.01104031007286
H           45.07035381027037        8.89355264920977       -3.56197439247062
H           45.79358119408310        9.31605935987927       -2.09785771181810
H           46.07037978744174        7.77764589915159       -0.29005110963907
H           46.06093123566368        5.40852264100508        0.39430970861319
H           47.80189259201237        4.33811554134715       -1.28326104303654
H           49.68114857240989        2.52047322470752       -0.70842951126203
H           49.65437724144644       -2.63285267338207        0.52578253542444
H           47.75990764267618       -4.44233872128406        1.07657544778958
H           43.97143489958432       -5.43596054729863       -0.23182639706947
H           43.95968821925273       -7.78602377567903        0.51340054447875
H           45.80286107858819       -8.96349905374562        3.37259323008895
H           44.90201232920525       -9.39366295355689        2.01174683582824
H           46.24167072651728       -6.69225185664327        3.97898898768094
H           46.24274439550953       -4.34253099794419        3.23183896326495
H           42.46378168653571       -4.26882173789976        1.56842127251996
H           40.58363901836044       -2.45948508159660        0.98977241570720

          :  Hamiltonian                  GFN1-xTB          :
         :: total energy            -304.697280318981 Eh    ::
         :: gradient norm              0.000544934436 Eh/a0 ::
         :: HOMO-LUMO gap              0.854206228690 eV    ::
         :: SCC energy              -309.517902088616 Eh    ::
         :: repulsion energy           4.988151870494 Eh    ::

    * Orbital Energies and Occupations

         #    Occupation            Energy/Eh            Energy/eV
      -------------------------------------------------------------
         1        2.0000           -0.7761689             -21.1206
       ...           ...                  ...                  ...
       267        2.0000           -0.4075171             -11.0891
       268        2.0000           -0.3973843             -10.8134
       269        2.0000           -0.3952157             -10.7544
       270        2.0000           -0.3944684             -10.7340
       271        2.0000           -0.3931091             -10.6970
       272        2.0000           -0.3930918             -10.6966
       273        2.0000           -0.3923503             -10.6764
       274        2.0000           -0.3828603             -10.4182
       275        2.0000           -0.3828314             -10.4174
       276        2.0000           -0.3823498             -10.4043
       277        2.0000           -0.3787180             -10.3054
       278        2.0000           -0.3705449             -10.0830
       279        2.0000           -0.3606777              -9.8145 (HOMO)
       280        0.0000           -0.3292862              -8.9603 (LUMO)
       281                         -0.3175361              -8.6406
       282                         -0.3148012              -8.5662
       283                         -0.3145729              -8.5600
       284                         -0.3142569              -8.5514
       285                         -0.3062492              -8.3335
       286                         -0.2862161              -7.7883
       287                         -0.2783344              -7.5739
       288                         -0.2732797              -7.4363
       289                         -0.2535914              -6.9006
       290                         -0.2535311              -6.8989
       ...                                ...                  ...
       608                          1.3491551              36.7124
      -------------------------------------------------------------
                  HL-Gap            0.0313915 Eh            0.8542 eV

Wiberg/Mayer (AO) data.
largest (>0.10) Wiberg bond orders for each atom

     #   Z sym  total        # sym  WBO       # sym  WBO       # sym  WBO
 ---------------------------------------------------------------------------
     1  30 Zn   2.001 --     7 N    0.460    39 N    0.459    19 N    0.458
                            26 N    0.458
     2   6 C    3.923 --     3 C    1.356    38 C    1.356    40 H    0.972
     3   6 C    3.923 --     2 C    1.356     7 N    1.233     4 C    1.173
     4   6 C    3.959 --     5 C    1.656     3 C    1.173    41 H    0.976
     5   6 C    3.963 --     4 C    1.656     6 C    1.174    42 H    0.973
     6   6 C    3.917 --     8 C    1.313     7 N    1.243     5 C    1.174
     7   7 N    3.291 --     6 C    1.243     3 C    1.233     1 Zn   0.460
     8   6 C    3.932 --    16 C    1.320     6 C    1.313     9 C    1.032
     9   6 C    3.988 --    15 C    1.382    10 C    1.382     8 C    1.032
    10   6 C    3.988 --    11 C    1.467     9 C    1.382    43 H    0.973
                            14 C    0.100
    11   6 C    3.990 --    10 C    1.467    12 C    1.355    44 H    0.972
                            15 C    0.100
    12   6 C    3.952 --    14 C    1.356    11 C    1.355    13 N    1.112
    13   7 N    3.130 --    12 C    1.112    45 H    0.934    46 H    0.934
    14   6 C    3.990 --    15 C    1.467    12 C    1.356    47 H    0.972
                            10 C    0.100
    15   6 C    3.987 --    14 C    1.467     9 C    1.382    48 H    0.973
                            11 C    0.100
    16   6 C    3.913 --     8 C    1.320    19 N    1.226    17 C    1.183
    17   6 C    3.959 --    18 C    1.640    16 C    1.183    49 H    0.973
    18   6 C    3.961 --    17 C    1.640    20 C    1.191    50 H    0.963
    19   7 N    3.296 --    20 C    1.260    16 C    1.226     1 Zn   0.458
    20   6 C    3.906 --    19 N    1.260    21 C    1.255    18 C    1.191
    21   6 C    3.937 --    20 C    1.255    22 C    1.253   121 C    1.186
    22   6 C    3.906 --    26 N    1.261    21 C    1.253    23 C    1.191
    23   6 C    3.961 --    24 C    1.639    22 C    1.191    51 H    0.964
    24   6 C    3.959 --    23 C    1.639    25 C    1.183    52 H    0.973
    25   6 C    3.913 --    27 C    1.319    26 N    1.226    24 C    1.183
    26   7 N    3.296 --    22 C    1.261    25 C    1.226     1 Zn   0.458
    27   6 C    3.932 --    25 C    1.319    35 C    1.313    28 C    1.033
    28   6 C    3.988 --    34 C    1.382    29 C    1.381    27 C    1.033
    29   6 C    3.987 --    30 C    1.468    28 C    1.381    53 H    0.973
                            33 C    0.100
    30   6 C    3.990 --    29 C    1.468    31 C    1.355    54 H    0.972
                            34 C    0.100
    31   6 C    3.952 --    33 C    1.356    30 C    1.355    32 N    1.112
    32   7 N    3.131 --    31 C    1.112    56 H    0.934    55 H    0.934
    33   6 C    3.989 --    34 C    1.467    31 C    1.356    57 H    0.972
                            29 C    0.100
    34   6 C    3.987 --    33 C    1.467    28 C    1.382    58 H    0.973
                            30 C    0.100
    35   6 C    3.917 --    27 C    1.313    39 N    1.243    36 C    1.175
    36   6 C    3.963 --    37 C    1.655    35 C    1.175    59 H    0.973
    37   6 C    3.959 --    36 C    1.655    38 C    1.173    60 H    0.976
    38   6 C    3.923 --     2 C    1.356    39 N    1.233    37 C    1.173
    39   7 N    3.291 --    35 C    1.243    38 C    1.233     1 Zn   0.459
    40   1 H    1.002 --     2 C    0.972
    41   1 H    0.999 --     4 C    0.976
    42   1 H    1.006 --     5 C    0.973
    43   1 H    1.005 --    10 C    0.973
    44   1 H    0.999 --    11 C    0.972
    45   1 H    0.961 --    13 N    0.934
    46   1 H    0.961 --    13 N    0.934
    47   1 H    0.999 --    14 C    0.972
    48   1 H    1.005 --    15 C    0.973
    49   1 H    1.006 --    17 C    0.973
    50   1 H    1.009 --    18 C    0.963
    51   1 H    1.008 --    23 C    0.964
    52   1 H    1.006 --    24 C    0.973
    53   1 H    1.006 --    29 C    0.973
    54   1 H    0.999 --    30 C    0.972
    55   1 H    0.961 --    32 N    0.934
    56   1 H    0.961 --    32 N    0.934
    57   1 H    0.999 --    33 C    0.972
    58   1 H    1.006 --    34 C    0.973
    59   1 H    1.006 --    36 C    0.973
    60   1 H    0.999 --    37 C    0.976
    61  30 Zn   2.001 --    99 N    0.460    67 N    0.460    79 N    0.457
                            86 N    0.457
    62   6 C    3.924 --    63 C    1.356    98 C    1.356   100 H    0.972
    63   6 C    3.923 --    62 C    1.356    67 N    1.233    64 C    1.173
    64   6 C    3.959 --    65 C    1.656    63 C    1.173   101 H    0.976
    65   6 C    3.963 --    64 C    1.656    66 C    1.174   102 H    0.973
    66   6 C    3.917 --    68 C    1.314    67 N    1.243    65 C    1.174
    67   7 N    3.292 --    66 C    1.243    63 C    1.233    61 Zn   0.460
    68   6 C    3.933 --    76 C    1.319    66 C    1.314    69 C    1.033
    69   6 C    3.988 --    75 C    1.382    70 C    1.381    68 C    1.033
    70   6 C    3.988 --    71 C    1.468    69 C    1.381   103 H    0.973
                            74 C    0.100
    71   6 C    3.990 --    70 C    1.468    72 C    1.355   104 H    0.972
                            75 C    0.100
    72   6 C    3.952 --    74 C    1.356    71 C    1.355    73 N    1.112
    73   7 N    3.130 --    72 C    1.112   105 H    0.934   106 H    0.934
    74   6 C    3.990 --    75 C    1.467    72 C    1.356   107 H    0.972
                            70 C    0.100
    75   6 C    3.987 --    74 C    1.467    69 C    1.382   108 H    0.973
                            71 C    0.100
    76   6 C    3.913 --    68 C    1.319    79 N    1.227    77 C    1.183
    77   6 C    3.960 --    78 C    1.641    76 C    1.183   109 H    0.974
    78   6 C    3.962 --    77 C    1.641    80 C    1.190   110 H    0.970
    79   7 N    3.296 --    80 C    1.260    76 C    1.227    61 Zn   0.457
    80   6 C    3.907 --    79 N    1.260    81 C    1.256    78 C    1.190
    81   6 C    3.937 --    80 C    1.256    82 C    1.256   124 C    1.182
    82   6 C    3.908 --    86 N    1.260    81 C    1.256    83 C    1.190
    83   6 C    3.962 --    84 C    1.640    82 C    1.190   111 H    0.969
    84   6 C    3.960 --    83 C    1.640    85 C    1.183   112 H    0.973
    85   6 C    3.913 --    87 C    1.319    86 N    1.227    84 C    1.183
    86   7 N    3.296 --    82 C    1.260    85 C    1.227    61 Zn   0.457
    87   6 C    3.933 --    85 C    1.319    95 C    1.313    88 C    1.033
    88   6 C    3.988 --    94 C    1.382    89 C    1.381    87 C    1.033
    89   6 C    3.988 --    90 C    1.468    88 C    1.381   113 H    0.973
                            93 C    0.100
    90   6 C    3.990 --    89 C    1.468    91 C    1.355   114 H    0.972
                            94 C    0.100
    91   6 C    3.952 --    93 C    1.356    90 C    1.355    92 N    1.112
    92   7 N    3.130 --    91 C    1.112   115 H    0.934   116 H    0.934
    93   6 C    3.990 --    94 C    1.467    91 C    1.356   117 H    0.972
                            89 C    0.100
    94   6 C    3.987 --    93 C    1.467    88 C    1.382   118 H    0.973
                            90 C    0.100
    95   6 C    3.917 --    87 C    1.313    99 N    1.243    96 C    1.174
    96   6 C    3.963 --    97 C    1.655    95 C    1.174   119 H    0.973
    97   6 C    3.959 --    96 C    1.655    98 C    1.173   120 H    0.976
    98   6 C    3.923 --    62 C    1.356    99 N    1.233    97 C    1.173
    99   7 N    3.292 --    95 C    1.243    98 C    1.233    61 Zn   0.460
   100   1 H    1.002 --    62 C    0.972
   101   1 H    0.999 --    64 C    0.976
   102   1 H    1.006 --    65 C    0.973
   103   1 H    1.006 --    70 C    0.973
   104   1 H    0.999 --    71 C    0.972
   105   1 H    0.961 --    73 N    0.934
   106   1 H    0.961 --    73 N    0.934
   107   1 H    0.999 --    74 C    0.972
   108   1 H    1.006 --    75 C    0.973
   109   1 H    1.006 --    77 C    0.974
   110   1 H    1.006 --    78 C    0.970
   111   1 H    1.007 --    83 C    0.969
   112   1 H    1.006 --    84 C    0.973
   113   1 H    1.006 --    89 C    0.973
   114   1 H    0.999 --    90 C    0.972
   115   1 H    0.961 --    92 N    0.934
   116   1 H    0.961 --    92 N    0.934
   117   1 H    0.999 --    93 C    0.972
   118   1 H    1.006 --    94 C    0.973
   119   1 H    1.006 --    96 C    0.973
   120   1 H    0.999 --    97 C    0.976
   121   6 C    3.931 --   122 C    2.569    21 C    1.186
   122   6 C    3.934 --   121 C    2.569   126 C    1.187
   123   6 C    3.933 --   124 C    2.570   145 C    1.184
   124   6 C    3.930 --   123 C    2.570    81 C    1.182
   125  30 Zn   1.998 --   131 N    0.458   163 N    0.458   143 N    0.457
                           150 N    0.456
   126   6 C    3.925 --   127 C    1.253   162 C    1.251   122 C    1.187
   127   6 C    3.907 --   131 N    1.261   126 C    1.253   128 C    1.192
   128   6 C    3.960 --   129 C    1.638   127 C    1.192   164 H    0.963
   129   6 C    3.960 --   128 C    1.638   130 C    1.185   165 H    0.973
   130   6 C    3.911 --   132 C    1.318   131 N    1.224   129 C    1.185
   131   7 N    3.290 --   127 C    1.261   130 C    1.224   125 Zn   0.458
   132   6 C    3.927 --   130 C    1.318   140 C    1.318   133 C    1.028
   133   6 C    3.988 --   139 C    1.384   134 C    1.384   132 C    1.028
   134   6 C    3.988 --   135 C    1.466   133 C    1.384   166 H    0.973
                           138 C    0.101
   135   6 C    3.990 --   134 C    1.466   136 C    1.357   167 H    0.972
                           139 C    0.101
   136   6 C    3.953 --   138 C    1.357   135 C    1.357   137 N    1.110
   137   7 N    3.129 --   136 C    1.110   169 H    0.934   168 H    0.934
   138   6 C    3.990 --   139 C    1.466   136 C    1.357   170 H    0.972
                           134 C    0.101
   139   6 C    3.988 --   138 C    1.466   133 C    1.384   171 H    0.973
                           135 C    0.101
   140   6 C    3.911 --   132 C    1.318   143 N    1.225   141 C    1.184
   141   6 C    3.960 --   142 C    1.639   140 C    1.184   172 H    0.973
   142   6 C    3.960 --   141 C    1.639   144 C    1.191   173 H    0.969
   143   7 N    3.290 --   144 C    1.261   140 C    1.225   125 Zn   0.457
   144   6 C    3.908 --   143 N    1.261   145 C    1.255   142 C    1.191
   145   6 C    3.924 --   144 C    1.255   146 C    1.253   123 C    1.184
   146   6 C    3.908 --   150 N    1.262   145 C    1.253   147 C    1.192
   147   6 C    3.960 --   148 C    1.637   146 C    1.192   174 H    0.970
   148   6 C    3.961 --   147 C    1.637   149 C    1.185   175 H    0.973
   149   6 C    3.911 --   151 C    1.316   150 N    1.226   148 C    1.185
   150   7 N    3.289 --   146 C    1.262   149 C    1.226   125 Zn   0.456
   151   6 C    3.927 --   159 C    1.316   149 C    1.316   152 C    1.034
   152   6 C    3.988 --   153 C    1.381   158 C    1.381   151 C    1.034
   153   6 C    3.987 --   154 C    1.468   152 C    1.381   176 H    0.973
   154   6 C    3.990 --   153 C    1.468   155 C    1.355   177 H    0.972
                           158 C    0.100
   155   6 C    3.951 --   154 C    1.355   157 C    1.355   156 N    1.112
   156   7 N    3.131 --   155 C    1.112   178 H    0.934   179 H    0.934
   157   6 C    3.990 --   158 C    1.468   155 C    1.355   180 H    0.972
   158   6 C    3.987 --   157 C    1.468   152 C    1.381   181 H    0.973
                           154 C    0.100
   159   6 C    3.911 --   151 C    1.316   163 N    1.224   160 C    1.185
   160   6 C    3.960 --   161 C    1.637   159 C    1.185   182 H    0.973
   161   6 C    3.960 --   160 C    1.637   162 C    1.193   183 H    0.964
   162   6 C    3.907 --   163 N    1.261   126 C    1.251   161 C    1.193
   163   7 N    3.290 --   162 C    1.261   159 C    1.224   125 Zn   0.458
   164   1 H    1.009 --   128 C    0.963
   165   1 H    1.006 --   129 C    0.973
   166   1 H    1.005 --   134 C    0.973
   167   1 H    0.999 --   135 C    0.972
   168   1 H    0.962 --   137 N    0.934
   169   1 H    0.962 --   137 N    0.934
   170   1 H    0.999 --   138 C    0.972
   171   1 H    1.005 --   139 C    0.973
   172   1 H    1.006 --   141 C    0.973
   173   1 H    1.007 --   142 C    0.969
   174   1 H    1.006 --   147 C    0.970
   175   1 H    1.006 --   148 C    0.973
   176   1 H    1.006 --   153 C    0.973
   177   1 H    0.999 --   154 C    0.972
   178   1 H    0.961 --   156 N    0.934
   179   1 H    0.961 --   156 N    0.934
   180   1 H    0.999 --   157 C    0.972
   181   1 H    1.006 --   158 C    0.973
   182   1 H    1.006 --   160 C    0.973
   183   1 H    1.008 --   161 C    0.964
 ---------------------------------------------------------------------------

           -------------------------------------------------
          | TOTAL ENERGY             -304.697280318981 Eh   |
          | GRADIENT NORM               0.000544934436 Eh/α |
          | HOMO-LUMO GAP               0.854206228690 eV   |
           -------------------------------------------------

 * finished run on 2022/07/30 at 09:32:44.574
