   * xtb version 6.5.1 (b24c23e) compiled by 'conda@728c89f4b128' on 2022-07-12
          program call               : xtb Ni_C2Py_C2_2.xyz --gfn 1 --opt -T 48

   ID    Z sym.   atoms
    1   28 Ni     1, 59
    2    6 C      2-6, 8-13, 15-19, 21-26, 28-33, 35-40, 60-64, 66-71, 73-77,
                  79-84, 86-91, 93-98, 117, 118
    3    7 N      7, 14, 20, 27, 34, 41, 65, 72, 78, 85, 92, 99
    4    1 H      42-58, 100-116
########################################################################
[WARNING] Please study the warnings concerning your input carefully
-1- prog_main_parseArguments: Unknown option '-T' provided
########################################################################

          :  Hamiltonian                  GFN1-xTB          :
 * total energy  :  -212.3800993 Eh     change       -0.4867360E-08 Eh
 * total energy  :  -212.4943975 Eh     change       -0.1142982E+00 Eh
 * total energy  :  -212.5478462 Eh     change       -0.5344867E-01 Eh
 * total energy  :  -212.5603040 Eh     change       -0.1245781E-01 Eh
 * total energy  :  -212.5660169 Eh     change       -0.5712953E-02 Eh
 * total energy  :  -212.5691056 Eh     change       -0.3088684E-02 Eh
 * total energy  :  -212.5704214 Eh     change       -0.1315790E-02 Eh
 * total energy  :  -212.5709775 Eh     change       -0.5560688E-03 Eh
 * total energy  :  -212.5714410 Eh     change       -0.4635010E-03 Eh
 * total energy  :  -212.5716981 Eh     change       -0.2571147E-03 Eh
 * total energy  :  -212.5732282 Eh     change       -0.2681421E-04 Eh
 * total energy  :  -212.5732491 Eh     change       -0.2085567E-04 Eh
 * total energy  :  -212.5732640 Eh     change       -0.1490473E-04 Eh
 * total energy  :  -212.5732751 Eh     change       -0.1105350E-04 Eh
 * total energy  :  -212.5732838 Eh     change       -0.8745582E-05 Eh
 * total energy  :  -212.5732917 Eh     change       -0.7903929E-05 Eh
 * total energy  :  -212.5733008 Eh     change       -0.9129441E-05 Eh
 * total energy  :  -212.5733096 Eh     change       -0.8715894E-05 Eh
 * total energy  :  -212.5733126 Eh     change       -0.3043209E-05 Eh
   *** GEOMETRY OPTIMIZATION CONVERGED AFTER 44 ITERATIONS ***

 final structure:
================
118
 xtb: 6.5.1 (b24c23e)
Ni          17.44913731292946        0.09658832451791        0.01114531763303
C           14.04452053504892        0.17697849936587        0.00718842274467
C           14.70848856627959        1.00241436537035        0.88961179919525
C           14.04256394105136        1.88244427961116        1.80054404902306
C           15.01093220896547        2.52551932229674        2.49503784837356
C           16.26263903579564        2.03763890679499        2.00233301456220
N           16.07297324366258        1.10249294212315        1.02309163275088
C           17.49769159396665        2.48957322237893        2.46795572004277
C           17.51806962548232        3.47527319258387        3.47920992502266
C           17.53154091743534        4.32643602583842        4.34368386004976
C           17.54354348403524        5.32367858190003        5.34606405636958
C           18.74301674254651        5.88465546221954        5.79936055197837
C           18.69804759151285        6.86202920485931        6.77768973536750
N           17.56326135447605        7.30027480074748        7.31667948052859
C           16.41872120662656        6.77054253543526        6.89243981627836
C           16.35438563371893        5.78960568077293        5.91898162105452
C           18.71213692414907        2.01683679956608        1.97012466903719
C           19.97928906668377        2.48206789137324        2.43725938170918
C           20.92242805462204        1.80412174738334        1.73919632685387
N           18.86915959552252        1.06508922493439        0.99526810051441
C           20.22574000412197        0.93019374689876        0.85006224792598
C           20.87317131539601        0.05042910507759       -0.01894862157262
C           20.18703613248450       -0.81899739143312       -0.86846240449887
C           20.84420680783583       -1.72172419241184       -1.75894095963383
C           19.87093547314370       -2.39325343251310       -2.42088818689061
C           18.62516913731975       -1.89136908551517       -1.93455907107462
N           18.82499145281222       -0.92559073415984       -0.98169126344310
C           17.38964494841625       -2.33899603981991       -2.40303435070321
C           17.36799919886777       -3.35079687101774       -3.38809227880826
C           17.35515631894150       -4.22545577103352       -4.22879095593459
C           17.33997075037172       -5.24860007831323       -5.20462543203083
C           18.52499287835191       -5.85172039684118       -5.64184642049057
C           18.45563158182917       -6.85242066919538       -6.59471187957250
N           17.31020553667220       -7.27512972666183       -7.12365137282423
C           16.17943117352835       -6.70567563694083       -6.71436996388191
C           16.13960706472332       -5.69867727931573       -5.76645357317514
C           16.17630286173575       -1.82740152737651       -1.94238589524650
C           14.90397341249334       -2.26416966124294       -2.43004757232656
C           13.96609717665390       -1.55340394937868       -1.76006378615131
C           14.67109576982760       -0.68922281268603       -0.86345426678127
N           16.02943231117726       -0.86149201526418       -0.98581249490202
H           12.96104954010555        0.20557506375010        0.00264346360245
H           12.97175636187680        1.97956541168883        1.88265519574094
H           14.90740534442298        3.26657482739041        3.27133554072719
H           19.69006942407847        5.55748516424498        5.38747087834165
H           19.61338989260784        7.31567058156514        7.14677595241746
H           15.51170975063299        7.15055568167692        7.35374724986038
H           15.40020304317285        5.38598126644145        5.60243889764305
H           20.11309093297291        3.22971126564741        3.20228359494536
H           21.99528047668975        1.87450251930499        1.81428112446232
H           21.91325063904413       -1.81607856855613       -1.85806640543803
H           19.97143343250688       -3.15671661691354       -3.17532459271355
H           19.47984378485134       -5.53829358820659       -5.23732251957623
H           19.35923691034975       -7.33861737461092       -6.95107089221858
H           15.26323518049479       -7.07404978321780       -7.16685544826747
H           15.19589749653545       -5.26285630141337       -5.46145203966000
H           14.76707965058222       -3.01798348124699       -3.18870058566817
H           12.89220465795647       -1.59709206868227       -1.84755855313494
Ni          28.33414233460937       -0.06067905730603       -0.07242825069737
C           31.73837589790248       -0.09691411355202       -0.15581615351013
C           31.07398627282697       -1.27844425338497       -0.40762425417628
C           31.73934689978874       -2.51240432071820       -0.69444691091451
C           30.77063685039941       -3.43925899423275       -0.88453327261078
C           29.51921276377736       -2.76582188175743       -0.71702230019970
N           29.70944576026482       -1.44480795298160       -0.42032897014708
C           28.28394508831277       -3.39768356966201       -0.86362069355213
C           28.26380537731399       -4.77163163002877       -1.18997569485910
C           28.25489911152470       -5.94998327486761       -1.47878698493648
C           28.24618553327608       -7.32183943653296       -1.82131896098910
C           27.04882976934204       -7.99953998142870       -2.07823510539942
C           27.09693598377594       -9.34054791897450       -2.41554648877423
N           28.23287000633614      -10.02709300210706       -2.50832427615186
C           29.37542906064093       -9.39024253495756       -2.26427478415776
C           29.43660369335409       -8.05147793686574       -1.92084712498970
C           27.06973031797499       -2.72722092113373       -0.71486675857651
C           25.80232954176391       -3.36610936477163       -0.87546650982502
C           24.85963397204437       -2.41782831992285       -0.65516274319966
N           26.91332188503786       -1.40155742451802       -0.40021326285064
C           25.55688454957919       -1.20647393149761       -0.36148227637705
C           24.91002935040513       -0.00902148418308       -0.05155422618133
C           25.59669188231734        1.16528411476278        0.26129208025225
C           24.94005373687692        2.39217627429944        0.58274512372459
C           25.91370163761098        3.30418816080374        0.82067484307713
C           27.15918064738261        2.62956339215254        0.63627672573959
N           26.95879401768574        1.31674428466027        0.29422231300514
C           28.39490549832607        3.26152246715019        0.77745070886568
C           28.41737327066350        4.62609013564049        1.14077967361657
C           28.43154743381508        5.79643835826525        1.46024064176079
C           28.44792925078650        7.15943202636509        1.83613749254861
C           27.26407445223262        7.84351762699611        2.13569677507258
C           27.33438647717430        9.17559988965585        2.50279934212316
N           28.47968770173908        9.84781531492878        2.58576951763097
C           29.60935710066020        9.20489241827293        2.30128086088522
C           29.64818099503062        7.87390408397107        1.92557417099567
C           29.60786939694093        2.60435701389516        0.57004480042080
C           30.88033090443794        3.24759241757187        0.69034737313693
C           31.81771669572984        2.30819264302993        0.42101564506059
C           31.11228989808470        1.09486065853916        0.14189633639663
N           29.75418526680603        1.28768855419330        0.23158877685385
H           32.82175909627921       -0.10733171999787       -0.18605234700805
H           32.81004793791686       -2.63258558095826       -0.73874287464380
H           30.87373028853822       -4.48643473970106       -1.11967095826817
H           26.10101170209986       -7.47880471689551       -2.01452684352868
H           26.18326278332554       -9.89073198214721       -2.62137217646662
H           30.28343110122782       -9.98043101307930       -2.34847154932861
H           30.38931557769228       -7.57196983626594       -1.73108860322861
H           25.66806445681049       -4.40674406510117       -1.12291766380744
H           23.78672977267066       -2.51738171611957       -0.67909263963907
H           23.87107297057423        2.52578377834365        0.61438510927453
H           25.81364810210233        4.34284424993587        1.09146073962661
H           26.30938844833858        7.33438978723275        2.08113243679002
H           26.43169788417773        9.73046741032281        2.74188041388759
H           30.52546886259923        9.78337787847305        2.37843035266660
H           30.59102747499598        7.38906437807444        1.70301433778237
H           31.01766939202095        4.28564730315613        0.94745318951437
H           32.89155405654073        2.40604181360810        0.41025788808002
C           22.28395635774198        0.03324554668949       -0.03411948679180
C           23.49925398999144        0.01355810464858       -0.04529521113865

          :  Hamiltonian                  GFN1-xTB          :
         :: total energy            -212.573312602593 Eh    ::
         :: gradient norm              0.000598940381 Eh/a0 ::
         :: HOMO-LUMO gap              1.205203069182 eV    ::
         :: SCC energy              -216.084919772799 Eh    ::
         :: repulsion energy           3.612587283452 Eh    ::

    * Orbital Energies and Occupations

         #    Occupation            Energy/Eh            Energy/eV
      -------------------------------------------------------------
         1        2.0000           -0.7891390             -21.4736
       ...           ...                  ...                  ...
       185        2.0000           -0.4214066             -11.4671
       186        2.0000           -0.4071868             -11.0801
       187        2.0000           -0.4071310             -11.0786
       188        2.0000           -0.4063684             -11.0578
       189        2.0000           -0.4063664             -11.0578
       190        2.0000           -0.4059550             -11.0466
       191        2.0000           -0.4059526             -11.0465
       192        2.0000           -0.4049229             -11.0185
       193        2.0000           -0.4049202             -11.0184
       194        2.0000           -0.4047655             -11.0142
       195        2.0000           -0.4047643             -11.0142
       196        2.0000           -0.4017697             -10.9327
       197        2.0000           -0.3915892             -10.6557 (HOMO)
       198                         -0.3472988              -9.4505 (LUMO)
       199                         -0.3460314              -9.4160
       200                         -0.3460300              -9.4160
       201                         -0.3387334              -9.2174
       202                         -0.3387102              -9.2168
       203                         -0.3322802              -9.0418
       204                         -0.3171692              -8.6306
       205                         -0.3119013              -8.4873
       206                         -0.2907887              -7.9128
       207                         -0.2907828              -7.9126
       208                         -0.2854329              -7.7670
       ...                                ...                  ...
       414                          1.3474456              36.6659
      -------------------------------------------------------------
                  HL-Gap            0.0442904 Eh            1.2052 eV

Wiberg/Mayer (AO) data.
largest (>0.10) Wiberg bond orders for each atom

     #   Z sym  total        # sym  WBO       # sym  WBO       # sym  WBO
 ---------------------------------------------------------------------------
     1  28 Ni   2.990 --    41 N    0.660     7 N    0.659    20 N    0.658
                            27 N    0.658
     2   6 C    3.934 --    40 C    1.366     3 C    1.366    42 H    0.970
     3   6 C    3.915 --     2 C    1.366     7 N    1.205     4 C    1.177
     4   6 C    3.959 --     5 C    1.644     3 C    1.177    43 H    0.975
     5   6 C    3.962 --     4 C    1.644     6 C    1.184    44 H    0.973
     6   6 C    3.911 --     8 C    1.274     7 N    1.240     5 C    1.184
     7   7 N    3.401 --     6 C    1.240     3 C    1.205     1 Ni   0.659
     8   6 C    3.937 --    17 C    1.278     6 C    1.274     9 C    1.156
     9   6 C    3.958 --    10 C    2.628     8 C    1.156
    10   6 C    3.935 --     9 C    2.628    11 C    1.140
    11   6 C    3.987 --    12 C    1.351    16 C    1.351    10 C    1.140
    12   6 C    3.974 --    13 C    1.456    11 C    1.351    45 H    0.974
                            15 C    0.104
    13   6 C    3.973 --    12 C    1.456    14 N    1.408    46 H    0.972
                            16 C    0.104
    14   7 N    2.995 --    13 C    1.408    15 C    1.407
    15   6 C    3.973 --    16 C    1.457    14 N    1.407    47 H    0.972
                            12 C    0.104
    16   6 C    3.974 --    15 C    1.457    11 C    1.351    48 H    0.974
                            13 C    0.104
    17   6 C    3.905 --     8 C    1.278    20 N    1.226    18 C    1.192
    18   6 C    3.959 --    19 C    1.630    17 C    1.192    49 H    0.973
    19   6 C    3.961 --    18 C    1.630    21 C    1.193    50 H    0.970
    20   7 N    3.404 --    21 C    1.227    17 C    1.226     1 Ni   0.658
    21   6 C    3.902 --    22 C    1.273    20 N    1.227    19 C    1.193
    22   6 C    3.941 --    21 C    1.273    23 C    1.273   117 C    1.163
    23   6 C    3.902 --    22 C    1.273    27 N    1.227    24 C    1.193
    24   6 C    3.961 --    25 C    1.630    23 C    1.193    51 H    0.970
    25   6 C    3.959 --    24 C    1.630    26 C    1.192    52 H    0.973
    26   6 C    3.905 --    28 C    1.278    27 N    1.226    25 C    1.192
    27   7 N    3.404 --    23 C    1.227    26 C    1.226     1 Ni   0.658
    28   6 C    3.937 --    26 C    1.278    37 C    1.275    29 C    1.156
    29   6 C    3.958 --    30 C    2.628    28 C    1.156
    30   6 C    3.935 --    29 C    2.628    31 C    1.140
    31   6 C    3.987 --    36 C    1.351    32 C    1.351    30 C    1.140
    32   6 C    3.974 --    33 C    1.457    31 C    1.351    53 H    0.974
                            35 C    0.104
    33   6 C    3.973 --    32 C    1.457    34 N    1.407    54 H    0.972
                            36 C    0.104
    34   7 N    2.995 --    35 C    1.407    33 C    1.407
    35   6 C    3.973 --    36 C    1.457    34 N    1.407    55 H    0.972
                            32 C    0.104
    36   6 C    3.974 --    35 C    1.457    31 C    1.351    56 H    0.974
                            33 C    0.104
    37   6 C    3.911 --    28 C    1.275    41 N    1.240    38 C    1.184
    38   6 C    3.962 --    39 C    1.644    37 C    1.184    57 H    0.973
    39   6 C    3.959 --    38 C    1.644    40 C    1.177    58 H    0.975
    40   6 C    3.915 --     2 C    1.366    41 N    1.205    39 C    1.177
    41   7 N    3.401 --    37 C    1.240    40 C    1.205     1 Ni   0.660
    42   1 H    1.000 --     2 C    0.970
    43   1 H    0.997 --     4 C    0.975
    44   1 H    1.003 --     5 C    0.973
    45   1 H    1.002 --    12 C    0.974
    46   1 H    1.013 --    13 C    0.972
    47   1 H    1.013 --    15 C    0.972
    48   1 H    1.002 --    16 C    0.974
    49   1 H    1.002 --    18 C    0.973
    50   1 H    1.004 --    19 C    0.970
    51   1 H    1.004 --    24 C    0.970
    52   1 H    1.003 --    25 C    0.973
    53   1 H    1.002 --    32 C    0.974
    54   1 H    1.013 --    33 C    0.972
    55   1 H    1.013 --    35 C    0.972
    56   1 H    1.002 --    36 C    0.974
    57   1 H    1.002 --    38 C    0.973
    58   1 H    0.997 --    39 C    0.975
    59  28 Ni   2.990 --    99 N    0.660    65 N    0.660    85 N    0.658
                            78 N    0.658
    60   6 C    3.934 --    61 C    1.366    98 C    1.366   100 H    0.970
    61   6 C    3.915 --    60 C    1.366    65 N    1.205    62 C    1.177
    62   6 C    3.959 --    63 C    1.644    61 C    1.177   101 H    0.975
    63   6 C    3.962 --    62 C    1.644    64 C    1.184   102 H    0.973
    64   6 C    3.911 --    66 C    1.274    65 N    1.241    63 C    1.184
    65   7 N    3.401 --    64 C    1.241    61 C    1.205    59 Ni   0.660
    66   6 C    3.937 --    75 C    1.278    64 C    1.274    67 C    1.156
    67   6 C    3.958 --    68 C    2.628    66 C    1.156
    68   6 C    3.935 --    67 C    2.628    69 C    1.140
    69   6 C    3.987 --    70 C    1.351    74 C    1.351    68 C    1.140
    70   6 C    3.974 --    71 C    1.456    69 C    1.351   103 H    0.974
                            73 C    0.104
    71   6 C    3.973 --    70 C    1.456    72 N    1.408   104 H    0.972
                            74 C    0.104
    72   7 N    2.995 --    71 C    1.408    73 C    1.407
    73   6 C    3.973 --    74 C    1.457    72 N    1.407   105 H    0.972
                            70 C    0.104
    74   6 C    3.974 --    73 C    1.457    69 C    1.351   106 H    0.974
                            71 C    0.104
    75   6 C    3.905 --    66 C    1.278    78 N    1.226    76 C    1.192
    76   6 C    3.959 --    77 C    1.630    75 C    1.192   107 H    0.973
    77   6 C    3.961 --    76 C    1.630    79 C    1.193   108 H    0.970
    78   7 N    3.404 --    79 C    1.227    75 C    1.226    59 Ni   0.658
    79   6 C    3.902 --    80 C    1.273    78 N    1.227    77 C    1.193
    80   6 C    3.941 --    79 C    1.273    81 C    1.273   118 C    1.163
    81   6 C    3.902 --    80 C    1.273    85 N    1.227    82 C    1.193
    82   6 C    3.961 --    83 C    1.630    81 C    1.193   109 H    0.970
    83   6 C    3.959 --    82 C    1.630    84 C    1.192   110 H    0.973
    84   6 C    3.905 --    86 C    1.278    85 N    1.226    83 C    1.192
    85   7 N    3.404 --    81 C    1.227    84 C    1.226    59 Ni   0.658
    86   6 C    3.937 --    84 C    1.278    95 C    1.275    87 C    1.156
    87   6 C    3.958 --    88 C    2.628    86 C    1.156
    88   6 C    3.935 --    87 C    2.628    89 C    1.140
    89   6 C    3.987 --    94 C    1.351    90 C    1.351    88 C    1.140
    90   6 C    3.974 --    91 C    1.457    89 C    1.351   111 H    0.974
                            93 C    0.104
    91   6 C    3.973 --    90 C    1.457    92 N    1.407   112 H    0.972
                            94 C    0.104
    92   7 N    2.995 --    93 C    1.407    91 C    1.407
    93   6 C    3.973 --    94 C    1.456    92 N    1.407   113 H    0.972
                            90 C    0.104
    94   6 C    3.974 --    93 C    1.456    89 C    1.351   114 H    0.974
                            91 C    0.104
    95   6 C    3.911 --    86 C    1.275    99 N    1.240    96 C    1.184
    96   6 C    3.962 --    97 C    1.644    95 C    1.184   115 H    0.973
    97   6 C    3.959 --    96 C    1.644    98 C    1.177   116 H    0.975
    98   6 C    3.915 --    60 C    1.366    99 N    1.205    97 C    1.177
    99   7 N    3.401 --    95 C    1.240    98 C    1.205    59 Ni   0.660
   100   1 H    1.000 --    60 C    0.970
   101   1 H    0.997 --    62 C    0.975
   102   1 H    1.003 --    63 C    0.973
   103   1 H    1.002 --    70 C    0.974
   104   1 H    1.013 --    71 C    0.972
   105   1 H    1.013 --    73 C    0.972
   106   1 H    1.002 --    74 C    0.974
   107   1 H    1.002 --    76 C    0.973
   108   1 H    1.004 --    77 C    0.970
   109   1 H    1.004 --    82 C    0.970
   110   1 H    1.003 --    83 C    0.973
   111   1 H    1.002 --    90 C    0.974
   112   1 H    1.013 --    91 C    0.972
   113   1 H    1.013 --    93 C    0.972
   114   1 H    1.002 --    94 C    0.974
   115   1 H    1.002 --    96 C    0.973
   116   1 H    0.997 --    97 C    0.975
   117   6 C    3.937 --   118 C    2.593    22 C    1.163
   118   6 C    3.937 --   117 C    2.593    80 C    1.163
 ---------------------------------------------------------------------------

           -------------------------------------------------
          | TOTAL ENERGY             -212.573312602593 Eh   |
          | GRADIENT NORM               0.000598940381 Eh/α |
          | HOMO-LUMO GAP               1.205203069182 eV   |
           -------------------------------------------------

 * finished run on 2022/07/30 at 04:18:02.049
