   * xtb version 6.5.1 (b24c23e) compiled by 'conda@728c89f4b128' on 2022-07-12
          program call               : xtb Zn_p-CP_C6_2.xyz --gfn 1 --opt -T 48

   ID    Z sym.   atoms
    1   30 Zn     1, 63
    2    6 C      2-6, 8-11, 13-24, 27-32, 35-39, 42, 43, 64-68, 70-73,
                  75-86, 89-94, 97-101, 104, 105, 125-130
    3    7 N      7, 12, 33, 34, 69, 74, 95, 96
    4    8 O      25, 26, 40, 41, 87, 88, 102, 103
    5    1 H      44-62, 106-124
########################################################################
[WARNING] Please study the warnings concerning your input carefully
-1- prog_main_parseArguments: Unknown option '-T' provided
########################################################################

          :  Hamiltonian                  GFN1-xTB          :
 * total energy  :  -241.1412833 Eh     change       -0.8601262E-09 Eh
 * total energy  :  -241.4113040 Eh     change       -0.2700207E+00 Eh
 * total energy  :  -241.4900483 Eh     change       -0.7874433E-01 Eh
 * total energy  :  -241.5196546 Eh     change       -0.2960627E-01 Eh
 * total energy  :  -241.5293951 Eh     change       -0.9740495E-02 Eh
 * total energy  :  -241.5341501 Eh     change       -0.4754990E-02 Eh
 * total energy  :  -241.5371177 Eh     change       -0.2967615E-02 Eh
 * total energy  :  -241.5392409 Eh     change       -0.2123200E-02 Eh
 * total energy  :  -241.5406969 Eh     change       -0.1455998E-02 Eh
 * total energy  :  -241.5417346 Eh     change       -0.1037731E-02 Eh
 * total energy  :  -241.5470522 Eh     change       -0.2135067E-04 Eh
 * total energy  :  -241.5470853 Eh     change       -0.3311123E-04 Eh
 * total energy  :  -241.5471079 Eh     change       -0.2266329E-04 Eh
 * total energy  :  -241.5471177 Eh     change       -0.9713786E-05 Eh
 * total energy  :  -241.5471273 Eh     change       -0.9595379E-05 Eh
 * total energy  :  -241.5471341 Eh     change       -0.6871853E-05 Eh
 * total energy  :  -241.5471341 Eh     change        0.4769927E-07 Eh
 * total energy  :  -241.5471369 Eh     change       -0.2807481E-05 Eh
 * total energy  :  -241.5471393 Eh     change       -0.2425121E-05 Eh
   *** GEOMETRY OPTIMIZATION CONVERGED AFTER 46 ITERATIONS ***

 final structure:
================
130
 xtb: 6.5.1 (b24c23e)
Zn          16.42229996019786       -0.05556324988630        0.02775910151976
C           13.01323421416637       -0.12483361102647        0.04882578514624
C           13.64036198620275       -0.17074431134231        1.28789882902112
C           12.96310567093338       -0.20757091825354        2.55388687273378
C           13.91942336275664       -0.22353366187929        3.51538535407949
C           15.19423596680002       -0.20745093851101        2.84724203637832
N           14.98940264717474       -0.16834385184862        1.49933678552744
C           16.44415209293050       -0.19774365942405        3.47866712851654
C           17.68494307553972       -0.14151957629988        2.83417888892012
C           18.96314938645814       -0.18851763489823        3.48898144256857
C           19.91143718228552       -0.13311791117695        2.51937792074836
N           17.88127389713530       -0.07046155108507        1.48101538074004
C           19.22375510929904       -0.05913587412660        1.26385954776060
C           19.85786781561626        0.00314532084162        0.00638644026986
C           19.20664135097752        0.05171294094574       -1.24275117622223
C           19.87700081372616        0.08719269941199       -2.50931245888334
C           18.91530098564177        0.11671923011635       -3.46688094796548
C           17.64620556586612        0.10767988005734       -2.79285023474029
C           16.39615795859250        0.11024441620675       -3.42205185381955
C           16.38155457347007        0.18250283596878       -4.90332886959792
C           15.82603157347975       -0.85591395479234       -5.65602735970363
C           15.80774613003140       -0.78615104596070       -7.03667169365569
C           16.34038659930511        0.32579805190437       -7.69211846252341
C           16.29242222290804        0.35724603424299       -9.17284031609867
O           16.82243171193975        1.46981263316755       -9.70449789604313
O           15.82556261329554       -0.51732198710770       -9.85792587887250
C           16.89610660015398        1.36557174491529       -6.94575643109536
C           16.91769556499204        1.29084471832617       -5.56403202761438
C           15.15516048497108        0.04937063044690       -2.77567578587184
C           13.87107257137670        0.09894615834176       -3.42428973802705
C           12.92822206475251        0.02905182068901       -2.45190001252118
C           13.62306732010089       -0.05349621136396       -1.19768656570578
N           14.96907487273484       -0.03410897975338       -1.42715911545023
N           17.86123062643937        0.06026427015307       -1.44145005540020
C           16.45245232010907       -0.24918413985667        4.96098728056407
C           15.91798402049496       -1.35037060322233        5.63525225965980
C           15.92406072473995       -1.39388617933390        7.01712819745963
C           16.45993484290798       -0.33466072508163        7.75230410726306
C           16.43865180315612       -0.42472046965465        9.23128011225274
O           16.96706170864952        0.64674436031603        9.84265254087895
O           15.99365313404804       -1.35765692519684        9.85062045516174
C           16.99424308722292        0.76768429011571        7.08432994288277
C           16.99184365944171        0.80621232990672        5.70106592192274
H           11.92768792200094       -0.13366147948320        0.05605919834811
H           11.89169886419420       -0.21217197689503        2.67905061216309
H           13.77855836103224       -0.23295863337515        4.58431332674076
H           19.11429042645344       -0.26868144480928        4.55341009591217
H           20.98331076634332       -0.14753652943389        2.63616608911330
H           20.94727926497712        0.08242655395339       -2.64135139127196
H           19.05169728584598        0.12932228136888       -4.53622982265198
H           15.42268964618978       -1.72565698269747       -5.14984786817607
H           15.38223888690875       -1.59079548888438       -7.62626022531401
H           16.74992759656469        1.41215137696225      -10.67104334170488
H           17.30796499252280        2.23178563478914       -7.45000120482341
H           17.33742868564639        2.10522932414474       -4.98427176459414
H           13.71524472787888        0.18944493888405       -4.48734345292737
H           11.85515420295850        0.03958956625795       -2.56167664610987
H           15.51219964825837       -2.17928578120308        5.06656030017748
H           15.51551968346656       -2.24773961067927        7.54609454684281
H           16.91381466162057        0.50941985840988       10.80239573859400
H           17.40879629624753        1.59329976444716        7.65067280686722
H           17.39551115245636        1.66848707362283        5.18256014025979
Zn          32.46980450633640       -0.05193230015419       -0.03371008083760
C           35.87883403621665       -0.11859287340311       -0.06298423716588
C           35.25166657259855       -0.02306576402848       -1.29919010323227
C           35.92876357324317        0.08357029578292       -2.56129861476345
C           34.97231756620941        0.17830914553816       -3.51812124058470
C           33.69763408608169        0.12016361319368       -2.85212507920905
N           33.90264123722642        0.00490488602339       -1.50862473476437
C           32.44777843501091        0.20467125917985       -3.47787493780323
C           31.20710303247207        0.18820508180583       -2.83116221014288
C           29.92893722234481        0.22005247931905       -3.48685776347925
C           28.98059281805921        0.16310186211894       -2.51738275419505
N           31.01070667723070        0.10153456419160       -1.47890086960430
C           29.66824501627763        0.08952875264965       -1.26180562322487
C           29.03431725947004        0.00542896630647       -0.00548499277992
C           29.68568943002079       -0.09246600348899        1.24063556171549
C           29.01527275890562       -0.20604065248961        2.50250802309184
C           29.97690088548663       -0.28746828942966        3.45713694749251
C           31.24605084496261       -0.21634937656316        2.78687676130140
C           32.49618218514581       -0.28474865805014        3.41238317847678
C           32.51094314737249       -0.38383778512366        4.89195051914561
C           33.07387041027346       -1.49841980577832        5.51996227008192
C           33.09274130572944       -1.58832064151553        6.89940713126529
C           32.55298894524388       -0.56319700309718        7.67880701026866
C           32.60282232024983       -0.70211816679179        9.15326231307553
O           32.06431895313926        0.33732980137634        9.80984055492385
O           33.07600486213630       -1.64671538329242        9.73278154612829
C           31.98942720622818        0.55176334198818        7.05736155840232
C           31.96769421245213        0.63706242761369        5.67624531322909
C           33.73719469180120       -0.26904917345790        2.76318224841281
C           35.02144323779702       -0.29199878565612        3.41303589791137
C           35.96412109221276       -0.24976608034964        2.43890796055082
C           35.26906965338960       -0.18968803377775        1.18355495559206
N           33.92306240061101       -0.19775107731950        1.41393874972999
N           31.03108659466569       -0.10641309796569        1.43913772821487
C           32.43938855503004        0.32452871275104       -4.95639890301156
C           32.96619780509955       -0.69536192356030       -5.75330809306196
C           32.95941386208488       -0.57956318746885       -7.13102509049504
C           32.43111677099694        0.56109466181372       -7.73884081539504
C           32.45229559758921        0.64209805958302       -9.21834606715908
O           31.93271470743179        1.78116799023080       -9.70175114035219
O           32.88859798909717       -0.21757846060832       -9.94147568507770
C           31.90473167785904        1.58296296805911       -6.94795143424930
C           31.90736542727063        1.46183693152804       -5.56943929331309
H           36.96437880593930       -0.12662448676397       -0.07120817153800
H           37.00015688566485        0.09178167290566       -2.68642452088805
H           35.11284895134329        0.28996639400598       -4.58127163228964
H           29.77801145124861        0.26534699370229       -4.55335152023493
H           27.90872169233709        0.16399006622593       -2.63497149508165
H           27.94500297918260       -0.22720166501642        2.63295971427679
H           29.84025186087112       -0.40019403590628        4.52055960790016
H           33.48253046166219       -2.30130419630369        4.91689390892215
H           33.52460582639239       -2.45246745022398        7.39218264523286
H           32.13778191869181        0.16884605941460       10.76324678452308
H           31.57180131791664        1.35099719116953        7.65817165345508
H           31.54230077535126        1.51023078485217        5.19447367822769
H           35.17768647027464       -0.32251423293017        4.47942809754830
H           37.03720183658094       -0.25061601875670        2.54909979754458
H           33.36654982919083       -1.58682039148884       -5.28407566797399
H           33.36191266495807       -1.36963245449120       -7.75517186900571
H           31.98462027956397        1.75471169267787      -10.67101482460319
H           31.49612016967316        2.47120638053916       -7.41511774085118
H           31.50954251771036        2.26130562186253       -4.95467752679169
C           25.06026790997603        0.00743597474532       -0.00255150878787
C           23.83189964357666        0.00895696167435       -0.00260601063601
C           22.48740147848700        0.00925048321225       -0.00070906876610
C           21.26337882608880        0.00765644576814       -0.00086961945803
C           26.40476534480818        0.00874374986317        0.00416694995090
C           27.62878958642412        0.00869134775120        0.00343728284496

          :  Hamiltonian                  GFN1-xTB          :
         :: total energy            -241.547139316633 Eh    ::
         :: gradient norm              0.000990233114 Eh/a0 ::
         :: HOMO-LUMO gap              1.116416006224 eV    ::
         :: SCC energy              -245.131588321666 Eh    ::
         :: repulsion energy           3.697811970342 Eh    ::

    * Orbital Energies and Occupations

         #    Occupation            Energy/Eh            Energy/eV
      -------------------------------------------------------------
         1        2.0000           -0.8312200             -22.6186
       ...           ...                  ...                  ...
       201        2.0000           -0.4299652             -11.6999
       202        2.0000           -0.4299643             -11.6999
       203        2.0000           -0.4294637             -11.6863
       204        2.0000           -0.4294096             -11.6848
       205        2.0000           -0.4291019             -11.6765
       206        2.0000           -0.4290862             -11.6760
       207        2.0000           -0.4290164             -11.6741
       208        2.0000           -0.4233154             -11.5190
       209        2.0000           -0.4174359             -11.3590
       210        2.0000           -0.4017550             -10.9323
       211        2.0000           -0.4017528             -10.9322
       212        2.0000           -0.3959177             -10.7735
       213        2.0000           -0.3853250             -10.4852 (HOMO)
       214                         -0.3442975              -9.3688 (LUMO)
       215                         -0.3365352              -9.1576
       216                         -0.3365329              -9.1575
       217                         -0.3325628              -9.0495
       218                         -0.3135210              -8.5313
       219                         -0.3119763              -8.4893
       220                         -0.3066083              -8.3432
       221                         -0.3065900              -8.3427
       222                         -0.2997579              -8.1568
       223                         -0.2933354              -7.9821
       224                         -0.2888779              -7.8608
       ...                                ...                  ...
       444                          1.5749161              42.8556
      -------------------------------------------------------------
                  HL-Gap            0.0410275 Eh            1.1164 eV

Wiberg/Mayer (AO) data.
largest (>0.10) Wiberg bond orders for each atom

     #   Z sym  total        # sym  WBO       # sym  WBO       # sym  WBO
 ---------------------------------------------------------------------------
     1  30 Zn   1.994 --    33 N    0.459     7 N    0.459    12 N    0.455
                            34 N    0.455
     2   6 C    3.928 --    32 C    1.358     3 C    1.358    44 H    0.971
     3   6 C    3.921 --     2 C    1.358     7 N    1.232     4 C    1.170
     4   6 C    3.960 --     5 C    1.660     3 C    1.170    45 H    0.975
     5   6 C    3.963 --     4 C    1.660     6 C    1.171    46 H    0.973
     6   6 C    3.918 --     8 C    1.313     7 N    1.245     5 C    1.171
     7   7 N    3.293 --     6 C    1.245     3 C    1.232     1 Zn   0.459
     8   6 C    3.932 --     9 C    1.322     6 C    1.313    35 C    1.031
     9   6 C    3.912 --     8 C    1.322    12 N    1.226    10 C    1.178
    10   6 C    3.959 --    11 C    1.647     9 C    1.178    47 H    0.973
    11   6 C    3.962 --    10 C    1.647    13 C    1.186    48 H    0.974
    12   7 N    3.296 --    13 C    1.262     9 C    1.226     1 Zn   0.455
    13   6 C    3.901 --    12 N    1.262    14 C    1.254    11 C    1.186
    14   6 C    3.939 --    15 C    1.254    13 C    1.254   128 C    1.192
    15   6 C    3.901 --    34 N    1.262    14 C    1.254    16 C    1.186
    16   6 C    3.962 --    17 C    1.647    15 C    1.186    49 H    0.974
    17   6 C    3.959 --    16 C    1.647    18 C    1.178    50 H    0.973
    18   6 C    3.912 --    19 C    1.321    34 N    1.227    17 C    1.178
    19   6 C    3.932 --    18 C    1.321    29 C    1.312    20 C    1.031
    20   6 C    3.986 --    28 C    1.386    21 C    1.384    19 C    1.031
    21   6 C    3.987 --    22 C    1.465    20 C    1.384    51 H    0.972
                            27 C    0.102
    22   6 C    3.990 --    21 C    1.465    23 C    1.384    52 H    0.968
                            28 C    0.102
    23   6 C    3.982 --    27 C    1.388    22 C    1.384    24 C    1.011
    24   6 C    3.835 --    26 O    1.689    25 O    1.087    23 C    1.011
    25   8 O    2.095 --    24 C    1.087    53 H    0.839    26 O    0.128
    26   8 O    1.957 --    24 C    1.689    25 O    0.128
    27   6 C    3.991 --    28 C    1.462    23 C    1.388    54 H    0.970
                            21 C    0.102
    28   6 C    3.987 --    27 C    1.462    20 C    1.386    55 H    0.972
                            22 C    0.102
    29   6 C    3.918 --    19 C    1.312    33 N    1.246    30 C    1.171
    30   6 C    3.963 --    31 C    1.660    29 C    1.171    56 H    0.973
    31   6 C    3.960 --    30 C    1.660    32 C    1.170    57 H    0.975
    32   6 C    3.921 --     2 C    1.358    33 N    1.232    31 C    1.170
    33   7 N    3.294 --    29 C    1.246    32 C    1.232     1 Zn   0.459
    34   7 N    3.296 --    15 C    1.262    18 C    1.227     1 Zn   0.455
    35   6 C    3.986 --    43 C    1.386    36 C    1.384     8 C    1.031
    36   6 C    3.987 --    37 C    1.465    35 C    1.384    58 H    0.972
                            42 C    0.102
    37   6 C    3.990 --    36 C    1.465    38 C    1.384    59 H    0.968
                            43 C    0.102
    38   6 C    3.982 --    42 C    1.388    37 C    1.384    39 C    1.011
    39   6 C    3.835 --    41 O    1.689    40 O    1.087    38 C    1.011
    40   8 O    2.096 --    39 C    1.087    60 H    0.839    41 O    0.128
    41   8 O    1.957 --    39 C    1.689    40 O    0.128
    42   6 C    3.991 --    43 C    1.462    38 C    1.388    61 H    0.970
                            36 C    0.102
    43   6 C    3.987 --    42 C    1.462    35 C    1.386    62 H    0.972
                            37 C    0.102
    44   1 H    1.001 --     2 C    0.971
    45   1 H    0.998 --     4 C    0.975
    46   1 H    1.004 --     5 C    0.973
    47   1 H    1.004 --    10 C    0.973
    48   1 H    1.002 --    11 C    0.974
    49   1 H    1.002 --    16 C    0.974
    50   1 H    1.004 --    17 C    0.973
    51   1 H    1.004 --    21 C    0.972
    52   1 H    1.005 --    22 C    0.968
    53   1 H    0.874 --    25 O    0.839
    54   1 H    1.005 --    27 C    0.970
    55   1 H    1.004 --    28 C    0.972
    56   1 H    1.004 --    30 C    0.973
    57   1 H    0.998 --    31 C    0.975
    58   1 H    1.004 --    36 C    0.972
    59   1 H    1.005 --    37 C    0.968
    60   1 H    0.874 --    40 O    0.839
    61   1 H    1.005 --    42 C    0.970
    62   1 H    1.004 --    43 C    0.972
    63  30 Zn   1.994 --    95 N    0.459    69 N    0.459    74 N    0.455
                            96 N    0.455
    64   6 C    3.928 --    94 C    1.358    65 C    1.358   106 H    0.971
    65   6 C    3.921 --    64 C    1.358    69 N    1.233    66 C    1.170
    66   6 C    3.960 --    67 C    1.660    65 C    1.170   107 H    0.975
    67   6 C    3.963 --    66 C    1.660    68 C    1.171   108 H    0.973
    68   6 C    3.918 --    70 C    1.313    69 N    1.245    67 C    1.171
    69   7 N    3.293 --    68 C    1.245    65 C    1.233    63 Zn   0.459
    70   6 C    3.932 --    71 C    1.322    68 C    1.313    97 C    1.030
    71   6 C    3.912 --    70 C    1.322    74 N    1.226    72 C    1.178
    72   6 C    3.959 --    73 C    1.647    71 C    1.178   109 H    0.973
    73   6 C    3.962 --    72 C    1.647    75 C    1.186   110 H    0.974
    74   7 N    3.296 --    75 C    1.262    71 C    1.226    63 Zn   0.455
    75   6 C    3.901 --    74 N    1.262    76 C    1.254    73 C    1.186
    76   6 C    3.939 --    77 C    1.254    75 C    1.254   130 C    1.192
    77   6 C    3.901 --    96 N    1.262    76 C    1.254    78 C    1.186
    78   6 C    3.962 --    79 C    1.647    77 C    1.186   111 H    0.974
    79   6 C    3.959 --    78 C    1.647    80 C    1.178   112 H    0.973
    80   6 C    3.912 --    81 C    1.321    96 N    1.227    79 C    1.178
    81   6 C    3.932 --    80 C    1.321    91 C    1.312    82 C    1.032
    82   6 C    3.986 --    90 C    1.386    83 C    1.384    81 C    1.032
    83   6 C    3.987 --    84 C    1.465    82 C    1.384   113 H    0.972
                            89 C    0.102
    84   6 C    3.990 --    83 C    1.465    85 C    1.384   114 H    0.968
                            90 C    0.102
    85   6 C    3.982 --    89 C    1.388    84 C    1.384    86 C    1.011
    86   6 C    3.835 --    88 O    1.689    87 O    1.087    85 C    1.011
    87   8 O    2.095 --    86 C    1.087   115 H    0.839    88 O    0.128
    88   8 O    1.957 --    86 C    1.689    87 O    0.128
    89   6 C    3.991 --    90 C    1.462    85 C    1.388   116 H    0.970
                            83 C    0.102
    90   6 C    3.987 --    89 C    1.462    82 C    1.386   117 H    0.972
                            84 C    0.102
    91   6 C    3.918 --    81 C    1.312    95 N    1.246    92 C    1.171
    92   6 C    3.963 --    93 C    1.660    91 C    1.171   118 H    0.973
    93   6 C    3.960 --    92 C    1.660    94 C    1.170   119 H    0.975
    94   6 C    3.921 --    64 C    1.358    95 N    1.232    93 C    1.170
    95   7 N    3.294 --    91 C    1.246    94 C    1.232    63 Zn   0.459
    96   7 N    3.296 --    77 C    1.262    80 C    1.227    63 Zn   0.455
    97   6 C    3.986 --   105 C    1.386    98 C    1.385    70 C    1.030
    98   6 C    3.987 --    99 C    1.465    97 C    1.385   120 H    0.972
                           104 C    0.102
    99   6 C    3.990 --    98 C    1.465   100 C    1.384   121 H    0.968
                           105 C    0.102
   100   6 C    3.982 --   104 C    1.388    99 C    1.384   101 C    1.011
   101   6 C    3.835 --   103 O    1.689   102 O    1.087   100 C    1.011
   102   8 O    2.096 --   101 C    1.087   122 H    0.839   103 O    0.128
   103   8 O    1.957 --   101 C    1.689   102 O    0.128
   104   6 C    3.991 --   105 C    1.462   100 C    1.388   123 H    0.970
                            98 C    0.102
   105   6 C    3.987 --   104 C    1.462    97 C    1.386   124 H    0.972
                            99 C    0.102
   106   1 H    1.001 --    64 C    0.971
   107   1 H    0.998 --    66 C    0.975
   108   1 H    1.004 --    67 C    0.973
   109   1 H    1.004 --    72 C    0.973
   110   1 H    1.002 --    73 C    0.974
   111   1 H    1.002 --    78 C    0.974
   112   1 H    1.004 --    79 C    0.973
   113   1 H    1.004 --    83 C    0.972
   114   1 H    1.005 --    84 C    0.968
   115   1 H    0.874 --    87 O    0.839
   116   1 H    1.005 --    89 C    0.970
   117   1 H    1.005 --    90 C    0.972
   118   1 H    1.004 --    92 C    0.973
   119   1 H    0.998 --    93 C    0.975
   120   1 H    1.004 --    98 C    0.972
   121   1 H    1.005 --    99 C    0.968
   122   1 H    0.874 --   102 O    0.839
   123   1 H    1.005 --   104 C    0.970
   124   1 H    1.004 --   105 C    0.972
   125   6 C    3.926 --   126 C    2.369   129 C    1.335   128 C    0.190
   126   6 C    3.926 --   125 C    2.369   127 C    1.335   130 C    0.190
   127   6 C    3.934 --   128 C    2.449   126 C    1.335
   128   6 C    3.891 --   127 C    2.449    14 C    1.192   125 C    0.190
   129   6 C    3.934 --   130 C    2.449   125 C    1.335
   130   6 C    3.891 --   129 C    2.449    76 C    1.192   126 C    0.190
 ---------------------------------------------------------------------------

           -------------------------------------------------
          | TOTAL ENERGY             -241.547139316633 Eh   |
          | GRADIENT NORM               0.000990233114 Eh/α |
          | HOMO-LUMO GAP               1.116416006224 eV   |
           -------------------------------------------------

 * finished run on 2022/07/30 at 12:12:32.671
