   * xtb version 6.5.1 (b24c23e) compiled by 'conda@728c89f4b128' on 2022-07-12
          program call               : xtb Ni_Ph2Me_C8_2.xyz --gfn 1 --opt -T 48

   ID    Z sym.   atoms
    1   28 Ni     1, 69
    2    6 C      2-6, 8-11, 13-31, 34-41, 70-74, 76-79, 81-99, 102-109,
                  137-144
    3    7 N      7, 12, 32, 33, 75, 80, 100, 101
    4    1 H      42-68, 110-136
########################################################################
[WARNING] Please study the warnings concerning your input carefully
-1- prog_main_parseArguments: Unknown option '-T' provided
########################################################################

          :  Hamiltonian                  GFN1-xTB          :
 * total energy  :  -230.9253806 Eh     change       -0.1051859E-08 Eh
 * total energy  :  -231.6866041 Eh     change       -0.7612235E+00 Eh
 * total energy  :  -231.8154208 Eh     change       -0.1288167E+00 Eh
 * total energy  :  -231.8678758 Eh     change       -0.5245502E-01 Eh
 * total energy  :  -231.8884023 Eh     change       -0.2052642E-01 Eh
 * total energy  :  -231.8990086 Eh     change       -0.1060630E-01 Eh
 * total energy  :  -231.9068551 Eh     change       -0.7846501E-02 Eh
 * total energy  :  -231.9128259 Eh     change       -0.5970843E-02 Eh
 * total energy  :  -231.9170904 Eh     change       -0.4264542E-02 Eh
 * total energy  :  -231.9202173 Eh     change       -0.3126854E-02 Eh
 * total energy  :  -231.9302684 Eh     change       -0.2609077E-04 Eh
 * total energy  :  -231.9302470 Eh     change        0.2140899E-04 Eh
 * total energy  :  -231.9302598 Eh     change       -0.1281751E-04 Eh
 * total energy  :  -231.9302634 Eh     change       -0.3529852E-05 Eh
 * total energy  :  -231.9302748 Eh     change       -0.1138778E-04 Eh
 * total energy  :  -231.9301853 Eh     change        0.8943625E-04 Eh
 * total energy  :  -231.9302778 Eh     change       -0.9249225E-04 Eh
 * total energy  :  -231.9302889 Eh     change       -0.1103901E-04 Eh
 * total energy  :  -231.9302935 Eh     change       -0.4677001E-05 Eh
   *** GEOMETRY OPTIMIZATION CONVERGED AFTER 53 ITERATIONS ***

 final structure:
================
144
 xtb: 6.5.1 (b24c23e)
Ni          12.93531147247413        0.05595326500736       -0.11536161045615
C            9.58093323722861        0.26425517113828       -0.59803512284945
C           10.23159154863684        1.37028142252027       -0.09209864037847
C            9.56103881213561        2.57856656306010        0.27918689651226
C           10.51530991487076        3.43348235367364        0.71570255168349
C           11.77147820528590        2.75468530534247        0.58668528717991
N           11.58320150307451        1.47749771401150        0.11966989877435
C           12.99982440362639        3.34434089544354        0.85417080307597
C           14.20404483907851        2.67100523583232        0.70148326764332
C           15.48345221254324        3.29109429158914        0.86755557566789
C           16.41477043380205        2.33323229205750        0.64449431575172
N           14.35208283216239        1.34511171448876        0.36120340629291
C           15.70304701604942        1.13077749639553        0.34858190797220
C           16.33665214089648       -0.09777077953458        0.14197532246508
C           15.63045094369122       -1.27946547588583       -0.09920975748099
C           16.26418293086239       -2.55237835593894       -0.23460412811038
C           15.28262044649943       -3.44986940514560       -0.49085308729001
C           14.05195497519965       -2.71927776382047       -0.52096890816789
C           12.83586757640126       -3.28453309859130       -0.87583652751066
C           12.79168907700853       -4.73664548240918       -1.18575080398387
C           12.56323204538333       -5.16776743161415       -2.49030470331730
C           12.52470120937532       -6.52677615306870       -2.78746556857226
C           12.26622615270433       -6.98524467567190       -4.19730196007186
C           12.70712599741955       -7.45248893243496       -1.76571224442407
C           12.93327676981204       -7.03571848013348       -0.45632504236949
C           13.14050398174355       -8.05319400579065        0.63288152384481
C           12.97988861473031       -5.67557029728971       -0.17281157610423
C           11.66572239619536       -2.54566147347853       -0.98336140690793
C           10.40686885376618       -3.10080726285689       -1.38600149742452
C            9.50021551006951       -2.09749033441043       -1.33107463166974
C           10.20128394592621       -0.93575801103956       -0.87586977408996
N           11.53087475741435       -1.21384732894839       -0.67968153874238
N           14.27687655733755       -1.38546996496203       -0.26192074498854
C           13.03169052725391        4.76346932479656        1.28613300873376
C           12.56768561562280        5.76646201024398        0.43619519214675
C           12.59873816872495        7.09870905668227        0.83348582008354
C           12.12088109509152        8.18103474841909       -0.09647130618060
C           13.09666863366867        7.42333331537275        2.09198887951624
C           13.56394345299908        6.43342312454652        2.95120696469455
C           14.07935860359014        6.79472097306706        4.31806958267316
C           13.53072415453301        5.10442830987426        2.54205947525825
H            8.51133527108551        0.33300417861021       -0.75903406409310
H            8.49509382451142        2.72979489097985        0.21627995290720
H           10.39304205133276        4.43562106658177        1.09331414735631
H           15.63793460170231        4.32944045419384        1.11138740002131
H           17.48904979815559        2.41628751142340        0.67874845275072
H           17.32524831554076       -2.72022211535863       -0.14379992516000
H           15.37295329763196       -4.50984764982668       -0.66382670725786
H           12.43031072978521       -4.43537134912190       -3.27902922550407
H           12.69016701129792       -7.97476223338729       -4.36880085542926
H           11.19031644048176       -7.03932661786572       -4.37871650510574
H           12.69563382701364       -6.28721135086263       -4.91639092100473
H           12.67407013892405       -8.51360853708627       -1.99072860911532
H           13.04193411944522       -7.59684320221415        1.61768061491867
H           12.41467880879866       -8.86266787989908        0.54538142480113
H           14.13983042115952       -8.48663477862479        0.55323583523496
H           13.14957484480531       -5.33623306995530        0.84311957914129
H           10.25046913590922       -4.12992090828077       -1.66597006016124
H            8.44607063420997       -2.12513912106517       -1.55709850077927
H           12.19567078786831        5.50186105818016       -0.54756570591814
H           11.65634896689688        8.99428548008620        0.46179859300033
H           11.40025462401004        7.78778563896191       -0.81363658557236
H           12.96619205074458        8.59195778771343       -0.65320623922076
H           13.12185292612758        8.46164964874014        2.40650848035542
H           13.25319314083227        6.81538916209318        5.03252626269488
H           14.54409191685973        7.78092209149728        4.30920635157830
H           14.80933608802509        6.06286700992006        4.66427982977386
H           13.88190173711240        4.32249794085293        3.20645294785976
Ni          31.47627985174960        0.09347250394152       -0.08955199774611
C           34.83043206724901        0.49847738082005       -0.42410069630521
C           34.18015795231543       -0.29798821276684       -1.34356078074691
C           34.85107256440076       -0.99506229512039       -2.39777882819665
C           33.89670928956912       -1.65276741177474       -3.09684184405802
C           32.64011791304972       -1.33565983040269       -2.48377670739171
N           32.82832327809817       -0.52966391908407       -1.38847692521400
C           31.41147366737841       -1.75301003355123       -2.97818123227450
C           30.20711285005451       -1.41474746353277       -2.37649854866608
C           28.92756194583875       -1.74219899547307       -2.92829674771262
C           27.99636318771561       -1.26080034547463       -2.07052245190065
N           30.05929150841741       -0.72027559819354       -1.19684596865971
C           28.70830549546237       -0.64599639900926       -0.99573883783924
C           28.07498890887242       -0.10811745826752        0.12814258473447
C           28.78147139383044        0.44935591918058        1.19743237708298
C           28.14789111982057        0.93167548298688        2.38322183149936
C           29.12939299243664        1.42738668019421        3.17412237715806
C           30.36003448023173        1.25444859047538        2.46354532965917
C           31.57592596957531        1.75387703519619        2.90719589724171
C           31.62000319981157        2.45566665558860        4.21550287359065
C           31.85791516704076        3.82710742503520        4.26696197325243
C           31.89655850645002        4.49102017998988        5.48940229534656
C           32.16639402357715        5.97070725317735        5.53773826502470
C           31.70370339434358        3.76928568291199        6.66247304596400
C           31.46750680120556        2.39733317803894        6.62625368702776
C           31.24831270038119        1.63681084497125        7.90614713148143
C           31.42186407772863        1.74609847361391        5.39892673320322
C           32.74571756243986        1.65291714087880        2.16661503568206
C           34.00458354473206        2.19496932500397        2.58677669651951
C           34.91082926184205        1.86340348356373        1.63785000014349
C           34.20975870073990        1.10168594451122        0.64966419204040
N           32.88037868279070        0.99011390403170        0.97215767098641
N           30.13502272974923        0.63548835582650        1.25398822496261
C           31.37971343128309       -2.56271604481792       -4.22103864001358
C           31.85160048137209       -2.02810860012497       -5.41907347683971
C           31.82112204506276       -2.78022191110275       -6.58827696766825
C           32.30797006843198       -2.19091225763076       -7.88454140142486
C           31.31551436521351       -4.07644214696695       -6.55199952004410
C           30.84017026550544       -4.62356083287251       -5.36404290745062
C           30.31632461484622       -6.03392586811280       -5.33296496638369
C           30.87314142346077       -3.86105123636773       -4.20118333586550
H           35.90005829715765        0.63376142786422       -0.53492220210148
H           35.91728698607947       -0.97906842073408       -2.55901671867034
H           34.01923060820639       -2.29730942474204       -3.95203959853721
H           28.77291170704030       -2.26299075197644       -3.85907318066125
H           26.92202935044086       -1.31393392327445       -2.14220759058336
H           27.08691552174781        0.89040226557333        2.57004069412589
H           29.03872371067621        1.88770207201884        4.14442475724848
H           31.99794494015228        4.37960199116792        3.34429916012603
H           31.74271751098885        6.41452461032875        6.43873777541672
H           33.24376025487513        6.15149490113024        5.54297990758614
H           31.74407263639257        6.47012076437748        4.66541020774716
H           31.73636441820746        4.28096976088205        7.61892828565393
H           31.33854930838703        0.56302126168670        7.74297378463828
H           31.97333764354763        1.94049991022876        8.66234678053385
H           30.24893722813876        1.84261148144050        8.29572212508785
H           31.24520559656934        0.67698919094906        5.35570747010286
H           34.16170035677685        2.75021448763210        3.49721617591314
H           35.96481799109664        2.08882039126937        1.60084821588518
H           32.22939907384172       -1.01167571302329       -5.43715552112740
H           32.77022443477326       -2.95620864815624       -8.50861889263013
H           33.03291259833476       -1.39726946211267       -7.70323125951053
H           31.46758709164030       -1.76502227559480       -8.43748094566897
H           31.29066153015355       -4.66729802721949       -7.46190847252032
H           31.13751837128553       -6.73073064230526       -5.14986442753269
H           29.85465879516458       -6.29729089609200       -6.28488494656979
H           29.58171658913036       -6.15835454767066       -4.53722006887901
H           30.51592233661848       -4.27975231292589       -3.26670646094032
C           17.73995552912085       -0.14728437229724        0.19627820338299
C           18.96315140958926       -0.17705942497605        0.23223798604526
C           20.30630196144290       -0.19929373753807        0.25916231471045
C           21.53644429178329       -0.20564522707071        0.27239189648768
C           22.87527964107408       -0.20350807949459        0.27320576804981
C           24.10534802403705       -0.19004362876015        0.25858264074835
C           25.44847177256748       -0.17052209793961        0.22917423870219
C           26.67167992312617       -0.14609845894284        0.19080939048812

          :  Hamiltonian                  GFN1-xTB          :
         :: total energy            -231.930293527971 Eh    ::
         :: gradient norm              0.000304268659 Eh/a0 ::
         :: HOMO-LUMO gap              1.276958928797 eV    ::
         :: SCC energy              -235.764153513840 Eh    ::
         :: repulsion energy           3.955149701361 Eh    ::

    * Orbital Energies and Occupations

         #    Occupation            Energy/Eh            Energy/eV
      -------------------------------------------------------------
         1        2.0000           -0.7782089             -21.1761
       ...           ...                  ...                  ...
       205        2.0000           -0.4083896             -11.1128
       206        2.0000           -0.3959102             -10.7733
       207        2.0000           -0.3958816             -10.7725
       208        2.0000           -0.3954868             -10.7617
       209        2.0000           -0.3954783             -10.7615
       210        2.0000           -0.3946862             -10.7400
       211        2.0000           -0.3946781             -10.7397
       212        2.0000           -0.3936327             -10.7113
       213        2.0000           -0.3936235             -10.7110
       214        2.0000           -0.3936032             -10.7105
       215        2.0000           -0.3935931             -10.7102
       216        2.0000           -0.3876959             -10.5497
       217        2.0000           -0.3827851             -10.4161 (HOMO)
       218                         -0.3358577              -9.1392 (LUMO)
       219                         -0.3299572              -8.9786
       220                         -0.3266813              -8.8895
       221                         -0.3266696              -8.8891
       222                         -0.3256171              -8.8605
       223                         -0.3255876              -8.8597
       224                         -0.2999234              -8.1613
       225                         -0.2988437              -8.1320
       226                         -0.2861502              -7.7865
       227                         -0.2757631              -7.5039
       228                         -0.2587202              -7.0401
       ...                                ...                  ...
       478                          1.6079942              43.7557
      -------------------------------------------------------------
                  HL-Gap            0.0469274 Eh            1.2770 eV

Wiberg/Mayer (AO) data.
largest (>0.10) Wiberg bond orders for each atom

     #   Z sym  total        # sym  WBO       # sym  WBO       # sym  WBO
 ---------------------------------------------------------------------------
     1  28 Ni   3.012 --    32 N    0.664     7 N    0.664    12 N    0.662
                            33 N    0.662
     2   6 C    3.934 --    31 C    1.364     3 C    1.363    42 H    0.970
     3   6 C    3.924 --     2 C    1.363     7 N    1.214     4 C    1.176
     4   6 C    3.960 --     5 C    1.648     3 C    1.176    43 H    0.975
     5   6 C    3.963 --     4 C    1.648     6 C    1.177    44 H    0.973
     6   6 C    3.919 --     8 C    1.324     7 N    1.220     5 C    1.177
     7   7 N    3.403 --     6 C    1.220     3 C    1.214     1 Ni   0.664
     8   6 C    3.939 --     9 C    1.329     6 C    1.324    34 C    1.023
     9   6 C    3.915 --     8 C    1.329    12 N    1.206    10 C    1.184
    10   6 C    3.959 --    11 C    1.636     9 C    1.184    45 H    0.973
    11   6 C    3.961 --    10 C    1.636    13 C    1.191    46 H    0.973
    12   7 N    3.407 --    13 C    1.239     9 C    1.206     1 Ni   0.662
    13   6 C    3.904 --    14 C    1.263    12 N    1.239    11 C    1.191
    14   6 C    3.944 --    13 C    1.263    15 C    1.262   137 C    1.184
    15   6 C    3.904 --    14 C    1.262    33 N    1.241    16 C    1.191
    16   6 C    3.961 --    17 C    1.637    15 C    1.191    47 H    0.973
    17   6 C    3.959 --    16 C    1.637    18 C    1.183    48 H    0.973
    18   6 C    3.915 --    19 C    1.333    33 N    1.204    17 C    1.183
    19   6 C    3.939 --    18 C    1.333    28 C    1.325    20 C    1.016
    20   6 C    3.988 --    21 C    1.403    27 C    1.396    19 C    1.016
                            24 C    0.104
    21   6 C    3.988 --    22 C    1.412    20 C    1.403    49 H    0.972
                            25 C    0.104
    22   6 C    3.988 --    24 C    1.421    21 C    1.412    23 C    1.020
                            27 C    0.104
    23   6 C    3.995 --    22 C    1.020    50 H    0.983    52 H    0.982
                            51 H    0.971
    24   6 C    3.990 --    22 C    1.421    25 C    1.412    53 H    0.972
                            20 C    0.104
    25   6 C    3.988 --    27 C    1.420    24 C    1.412    26 C    1.020
                            21 C    0.104
    26   6 C    3.995 --    25 C    1.020    54 H    0.985    55 H    0.979
                            56 H    0.972
    27   6 C    3.988 --    25 C    1.420    20 C    1.396    57 H    0.972
                            22 C    0.104
    28   6 C    3.919 --    19 C    1.325    32 N    1.221    29 C    1.177
    29   6 C    3.963 --    30 C    1.649    28 C    1.177    58 H    0.973
    30   6 C    3.960 --    29 C    1.649    31 C    1.175    59 H    0.975
    31   6 C    3.924 --     2 C    1.364    32 N    1.214    30 C    1.175
    32   7 N    3.403 --    28 C    1.221    31 C    1.214     1 Ni   0.664
    33   7 N    3.407 --    15 C    1.241    18 C    1.204     1 Ni   0.662
    34   6 C    3.988 --    41 C    1.398    35 C    1.396     8 C    1.023
                            38 C    0.103
    35   6 C    3.987 --    36 C    1.417    34 C    1.396    60 H    0.972
                            39 C    0.103
    36   6 C    3.988 --    35 C    1.417    38 C    1.415    37 C    1.020
                            41 C    0.104
    37   6 C    3.995 --    36 C    1.020    62 H    0.984    61 H    0.982
                            63 H    0.971
    38   6 C    3.989 --    39 C    1.416    36 C    1.415    64 H    0.972
                            34 C    0.103
    39   6 C    3.988 --    38 C    1.416    41 C    1.416    40 C    1.020
                            35 C    0.103
    40   6 C    3.995 --    39 C    1.020    67 H    0.983    66 H    0.982
                            65 H    0.971
    41   6 C    3.987 --    39 C    1.416    34 C    1.398    68 H    0.972
                            36 C    0.104
    42   1 H    1.000 --     2 C    0.970
    43   1 H    0.998 --     4 C    0.975
    44   1 H    1.005 --     5 C    0.973
    45   1 H    1.005 --    10 C    0.973
    46   1 H    1.002 --    11 C    0.973
    47   1 H    1.002 --    16 C    0.973
    48   1 H    1.005 --    17 C    0.973
    49   1 H    1.002 --    21 C    0.972
    50   1 H    1.004 --    23 C    0.983
    51   1 H    1.006 --    23 C    0.971
    52   1 H    1.004 --    23 C    0.982
    53   1 H    1.000 --    24 C    0.972
    54   1 H    1.004 --    26 C    0.985
    55   1 H    1.005 --    26 C    0.979
    56   1 H    1.006 --    26 C    0.972
    57   1 H    1.002 --    27 C    0.972
    58   1 H    1.005 --    29 C    0.973
    59   1 H    0.998 --    30 C    0.975
    60   1 H    1.003 --    35 C    0.972
    61   1 H    1.004 --    37 C    0.982
    62   1 H    1.004 --    37 C    0.984
    63   1 H    1.006 --    37 C    0.971
    64   1 H    1.000 --    38 C    0.972
    65   1 H    1.006 --    40 C    0.971
    66   1 H    1.004 --    40 C    0.982
    67   1 H    1.004 --    40 C    0.983
    68   1 H    1.002 --    41 C    0.972
    69  28 Ni   3.012 --   100 N    0.664    75 N    0.664    80 N    0.662
                           101 N    0.662
    70   6 C    3.934 --    99 C    1.364    71 C    1.363   110 H    0.970
    71   6 C    3.924 --    70 C    1.363    75 N    1.214    72 C    1.176
    72   6 C    3.960 --    73 C    1.648    71 C    1.176   111 H    0.975
    73   6 C    3.963 --    72 C    1.648    74 C    1.177   112 H    0.973
    74   6 C    3.919 --    76 C    1.323    75 N    1.220    73 C    1.177
    75   7 N    3.403 --    74 C    1.220    71 C    1.214    69 Ni   0.664
    76   6 C    3.939 --    77 C    1.329    74 C    1.323   102 C    1.023
    77   6 C    3.915 --    76 C    1.329    80 N    1.206    78 C    1.184
    78   6 C    3.959 --    79 C    1.636    77 C    1.184   113 H    0.973
    79   6 C    3.961 --    78 C    1.636    81 C    1.191   114 H    0.973
    80   7 N    3.407 --    81 C    1.239    77 C    1.206    69 Ni   0.662
    81   6 C    3.904 --    82 C    1.263    80 N    1.239    79 C    1.191
    82   6 C    3.944 --    81 C    1.263    83 C    1.262   144 C    1.184
    83   6 C    3.904 --    82 C    1.262   101 N    1.240    84 C    1.191
    84   6 C    3.961 --    85 C    1.637    83 C    1.191   115 H    0.973
    85   6 C    3.959 --    84 C    1.637    86 C    1.183   116 H    0.973
    86   6 C    3.915 --    87 C    1.333   101 N    1.204    85 C    1.183
    87   6 C    3.939 --    86 C    1.333    96 C    1.324    88 C    1.017
    88   6 C    3.988 --    89 C    1.403    95 C    1.396    87 C    1.017
                            92 C    0.104
    89   6 C    3.988 --    90 C    1.412    88 C    1.403   117 H    0.972
                            93 C    0.104
    90   6 C    3.988 --    92 C    1.421    89 C    1.412    91 C    1.020
                            95 C    0.104
    91   6 C    3.995 --    90 C    1.020   118 H    0.983   120 H    0.982
                           119 H    0.971
    92   6 C    3.990 --    90 C    1.421    93 C    1.412   121 H    0.972
                            88 C    0.104
    93   6 C    3.988 --    95 C    1.420    92 C    1.412    94 C    1.020
                            89 C    0.104
    94   6 C    3.996 --    93 C    1.020   122 H    0.985   123 H    0.979
                           124 H    0.972
    95   6 C    3.988 --    93 C    1.420    88 C    1.396   125 H    0.972
                            90 C    0.104
    96   6 C    3.919 --    87 C    1.324   100 N    1.221    97 C    1.177
    97   6 C    3.963 --    98 C    1.649    96 C    1.177   126 H    0.973
    98   6 C    3.960 --    97 C    1.649    99 C    1.175   127 H    0.975
    99   6 C    3.924 --    70 C    1.364   100 N    1.214    98 C    1.175
   100   7 N    3.403 --    96 C    1.221    99 C    1.214    69 Ni   0.664
   101   7 N    3.407 --    83 C    1.240    86 C    1.204    69 Ni   0.662
   102   6 C    3.988 --   109 C    1.398   103 C    1.396    76 C    1.023
                           106 C    0.103
   103   6 C    3.987 --   104 C    1.417   102 C    1.396   128 H    0.972
                           107 C    0.103
   104   6 C    3.988 --   103 C    1.417   106 C    1.415   105 C    1.020
                           109 C    0.104
   105   6 C    3.995 --   104 C    1.020   130 H    0.984   129 H    0.982
                           131 H    0.971
   106   6 C    3.989 --   107 C    1.416   104 C    1.415   132 H    0.972
                           102 C    0.103
   107   6 C    3.988 --   106 C    1.416   109 C    1.416   108 C    1.020
                           103 C    0.103
   108   6 C    3.995 --   107 C    1.020   135 H    0.983   134 H    0.982
                           133 H    0.971
   109   6 C    3.987 --   107 C    1.416   102 C    1.398   136 H    0.972
                           104 C    0.104
   110   1 H    1.000 --    70 C    0.970
   111   1 H    0.998 --    72 C    0.975
   112   1 H    1.005 --    73 C    0.973
   113   1 H    1.005 --    78 C    0.973
   114   1 H    1.002 --    79 C    0.973
   115   1 H    1.002 --    84 C    0.973
   116   1 H    1.005 --    85 C    0.973
   117   1 H    1.002 --    89 C    0.972
   118   1 H    1.004 --    91 C    0.983
   119   1 H    1.006 --    91 C    0.971
   120   1 H    1.004 --    91 C    0.982
   121   1 H    1.000 --    92 C    0.972
   122   1 H    1.004 --    94 C    0.985
   123   1 H    1.005 --    94 C    0.979
   124   1 H    1.006 --    94 C    0.972
   125   1 H    1.002 --    95 C    0.972
   126   1 H    1.005 --    97 C    0.973
   127   1 H    0.998 --    98 C    0.975
   128   1 H    1.003 --   103 C    0.972
   129   1 H    1.004 --   105 C    0.982
   130   1 H    1.004 --   105 C    0.984
   131   1 H    1.006 --   105 C    0.971
   132   1 H    1.000 --   106 C    0.972
   133   1 H    1.006 --   108 C    0.971
   134   1 H    1.004 --   108 C    0.982
   135   1 H    1.004 --   108 C    0.983
   136   1 H    1.002 --   109 C    0.972
   137   6 C    3.878 --   138 C    2.447    14 C    1.184   140 C    0.187
   138   6 C    3.938 --   137 C    2.447   139 C    1.339
   139   6 C    3.894 --   140 C    2.343   138 C    1.339   142 C    0.183
   140   6 C    3.927 --   139 C    2.343   141 C    1.364   137 C    0.187
   141   6 C    3.927 --   142 C    2.343   140 C    1.364   144 C    0.187
   142   6 C    3.894 --   141 C    2.343   143 C    1.339   139 C    0.183
   143   6 C    3.938 --   144 C    2.447   142 C    1.339
   144   6 C    3.878 --   143 C    2.447    82 C    1.184   141 C    0.187
 ---------------------------------------------------------------------------

           -------------------------------------------------
          | TOTAL ENERGY             -231.930293527971 Eh   |
          | GRADIENT NORM               0.000304268659 Eh/α |
          | HOMO-LUMO GAP               1.276958928797 eV   |
           -------------------------------------------------

 * finished run on 2022/07/30 at 05:12:58.326
