   * xtb version 6.5.1 (b24c23e) compiled by 'conda@728c89f4b128' on 2022-07-12
          program call               : xtb Ni_PhNO2_C6_2.xyz --gfn 1 --opt -T 48

   ID    Z sym.   atoms
    1   28 Ni     1, 61
    2    6 C      2-6, 8-12, 16-20, 22-27, 29-33, 37-42, 62-66, 68-72, 76-80,
                  82-87, 89-93, 97-102, 121-126
    3    7 N      7, 13, 21, 28, 34, 43, 67, 73, 81, 88, 94, 103
    4    8 O      14, 15, 35, 36, 74, 75, 95, 96
    5    1 H      44-60, 104-120
########################################################################
[WARNING] Please study the warnings concerning your input carefully
-1- prog_main_parseArguments: Unknown option '-T' provided
########################################################################

          :  Hamiltonian                  GFN1-xTB          :
 * total energy  :  -249.6117290 Eh     change       -0.1125215E-08 Eh
 * total energy  :  -249.7660958 Eh     change       -0.1543669E+00 Eh
 * total energy  :  -249.8368973 Eh     change       -0.7080151E-01 Eh
 * total energy  :  -249.8556867 Eh     change       -0.1878935E-01 Eh
 * total energy  :  -249.8670309 Eh     change       -0.1134421E-01 Eh
 * total energy  :  -249.8721108 Eh     change       -0.5079884E-02 Eh
 * total energy  :  -249.8772656 Eh     change       -0.5154824E-02 Eh
 * total energy  :  -249.8799179 Eh     change       -0.2652305E-02 Eh
 * total energy  :  -249.8817391 Eh     change       -0.1821181E-02 Eh
 * total energy  :  -249.8828096 Eh     change       -0.1070508E-02 Eh
 * total energy  :  -249.8854231 Eh     change       -0.2152948E-04 Eh
 * total energy  :  -249.8854411 Eh     change       -0.1792171E-04 Eh
 * total energy  :  -249.8854529 Eh     change       -0.1186416E-04 Eh
 * total energy  :  -249.8854580 Eh     change       -0.5041515E-05 Eh
 * total energy  :  -249.8854710 Eh     change       -0.1306354E-04 Eh
 * total energy  :  -249.8854785 Eh     change       -0.7477800E-05 Eh
 * total energy  :  -249.8854818 Eh     change       -0.3284727E-05 Eh
 * total energy  :  -249.8854898 Eh     change       -0.8007173E-05 Eh
 * total energy  :  -249.8854941 Eh     change       -0.4280296E-05 Eh
   *** GEOMETRY OPTIMIZATION CONVERGED AFTER 37 ITERATIONS ***

 final structure:
================
126
 xtb: 6.5.1 (b24c23e)
Ni          14.66670572295030       -0.02823083556908       -0.02008417484445
C           11.27727650489785       -0.04055942769152       -0.17122991464909
C           11.93198527624345       -1.25351030350102       -0.21618300284095
C           11.25802347928482       -2.51388393809252       -0.28990043004038
C           12.21770434814964       -3.46075045430719       -0.40651982049548
C           13.47730409241552       -2.77515563290782       -0.41886712957494
N           13.29325258116244       -1.42469673131674       -0.26242660234575
C           14.70134055443437       -3.40386408939999       -0.60973047836148
C           14.71892669277504       -4.86163577770525       -0.86889455613738
C           15.38020492804121       -5.72735818608438        0.00745220572125
C           15.40095603446152       -7.08921838395518       -0.23261673153371
C           14.75907928352162       -7.58920920567103       -1.36205863187482
N           14.78189952505589       -9.01809766893194       -1.62176265937355
O           14.20526732271041       -9.41582762937987       -2.60144785204903
O           15.37530080569337       -9.71719976732557       -0.84122162639386
C           14.09663513860028       -6.74415587045184       -2.24783600327823
C           14.07741183274048       -5.38450867287876       -1.99578733400519
C           15.91075308934675       -2.72119178960063       -0.57869075999357
C           17.17808044119972       -3.33343184021974       -0.84092004235130
C           18.11987770579807       -2.37903830908521       -0.64941116318040
N           16.07297023669631       -1.39050133967196       -0.26886302663016
C           17.42577656410365       -1.18708735726216       -0.27904554351634
C           18.07753177419058       -0.00825913417489        0.09292647905010
C           17.38922622742864        1.15956623108299        0.43161812135095
C           18.04300135589514        2.35500300383437        0.85955776035576
C           17.07829666912610        3.29475432747591        1.00457327755803
C           15.83852648374926        2.67131595081123        0.65209744400205
N           16.03729636277593        1.34643253834923        0.33797198346513
C           14.62308010901974        3.34168971882671        0.60059308404065
C           14.60333219776150        4.79756252553234        0.87139949015644
C           13.87316064079831        5.30379464613704        1.95083226985917
C           13.84950879877366        6.66249793563541        2.20783259101631
C           14.55765953553350        7.52328811625354        1.37411977797781
N           14.53126437499557        8.95178026173940        1.63583839299806
O           13.88003101343153        9.33473422977657        2.57365968011854
O           15.16191032948912        9.66534539423158        0.89877396742340
C           15.28948847069889        7.03964353506890        0.29335976078145
C           15.31148759370589        5.67858530636077        0.04871319014776
C           13.42452257076029        2.70558237519933        0.30221751881427
C           12.16551766213509        3.38257010175092        0.18582070599864
C           11.22842090880596        2.43127773238307       -0.03315839751054
C           11.91622001890017        1.17645704268522       -0.06017535918813
N           13.26612209003284        1.35626738066073        0.11297054236840
H           10.19484166700880       -0.04427812037704       -0.22215440790128
H           10.18756530147308       -2.63762558910198       -0.25366254152020
H           12.09682737236802       -4.52962665902402       -0.47434750264740
H           15.86722718087644       -5.32632971094197        0.88868579875237
H           15.90625032444649       -7.76896547965483        0.44295953571502
H           13.60831747231597       -7.15820015079513       -3.12181743828383
H           13.57610436797008       -4.71419142946566       -2.68420548919925
H           17.31960783173491       -4.35903450581488       -1.13994433484193
H           19.19041376156359       -2.46041803067935       -0.74510945656573
H           19.10427787982834        2.44687724644544        1.02449541661387
H           17.18628016434115        4.31776765045368        1.32578471043679
H           13.33450574090399        4.62172420410045        2.59823368846200
H           13.29161519409731        7.06398540346883        3.04522973255632
H           15.82890042226714        7.73129790731908       -0.34252419205747
H           15.86804026679029        5.29030077693898       -0.79626673160443
H           12.03009098195485        4.44938364489999        0.25846374955547
H           10.16482515539533        2.54818121918241       -0.16590395243401
Ni          30.66089993932257        0.03347321677048       -0.00956431196407
C           34.05025381315282        0.10212937940218       -0.14812195871910
C           33.39574352690872        1.24266868795204        0.26750862808472
C           34.06976101967385        2.43830648129558        0.67295398921317
C           33.11010002497721        3.35951029600890        0.92114210375198
C           31.85048357416047        2.72870371521940        0.65249102818792
N           32.03446217585986        1.41850542181305        0.28974862966521
C           30.62653079702400        3.38308931366509        0.71193170830113
C           30.60920029313779        4.83164406862491        1.01887011988153
C           29.95194756179578        5.30464508091881        2.15857458009392
C           29.93137630646959        6.65704479536082        2.44724732401573
C           30.56909670209339        7.54481022824101        1.58535999118211
N           30.54616688812886        8.96675249849294        1.88084333747969
O           31.11890413001582        9.70350405927084        1.11958434027730
O           29.95674786918831        9.32134246480084        2.86930023935219
C           31.22742120907035        7.09444395699092        0.44461187203825
C           31.24681048616882        5.73955217625407        0.16806590134071
C           29.41698985648811        2.73889517819904        0.48493948486070
C           28.14966936181269        3.40480400658224        0.47285177503353
C           27.20775257770878        2.44834910154272        0.29249065726586
N           29.25462240697754        1.38923401704734        0.27257979908050
C           27.90178866040638        1.20453261783449        0.18764054501932
C           27.25011827453705       -0.02781482628449        0.09028450665496
C           27.93861557491220       -1.23733043867580       -0.03351127609986
C           27.28510143210322       -2.50620900474022       -0.08378260035467
C           28.24984102459749       -3.43167065399343       -0.30194354395662
C           29.48935954719391       -2.72128307402179       -0.39649929274938
N           29.29043896017669       -1.37523944017599       -0.19144681346213
C           30.70455767351790       -3.32324383645800       -0.69687047356706
C           30.72452197885712       -4.77469631356309       -0.99044488017061
C           31.45537083120749       -5.64755036271738       -0.17892098758375
C           31.47926806834001       -7.00379296004626       -0.44852644015681
C           30.77087048480220       -7.49061586362277       -1.54337766332647
N           30.79779235476387       -8.91331608878497       -1.83488500527796
O           31.44812704125478       -9.61917548517032       -1.10748013262280
O           30.16765292755039       -9.29963537339910       -2.78559061241167
C           30.03842157778206       -6.63819593596765       -2.36460591268647
C           30.01602186785007       -5.28439179021584       -2.08254873649324
C           31.90286450813193       -2.62135259855406       -0.73711538735025
C           33.16142819406527       -3.20487914941925       -1.10103044652730
C           34.09845302876723       -2.24052675459845       -0.94905024600185
C           33.41107311177222       -1.06743950620694       -0.50207860326490
N           32.06137572515061       -1.29947873781702       -0.40692598033927
H           35.13262642278393        0.12493875438763       -0.19519535353004
H           35.14024341374397        2.53932496065068        0.75280591913277
H           33.23078539215728        4.37557543892465        1.25990804723228
H           29.46796362271291        4.60178995739263        2.82664532965361
H           29.42951431151852        7.03316725150603        3.33064917912418
H           31.71238808930443        7.80661193905324       -0.21216349897847
H           31.74513326970508        5.37687175664211       -0.72337995156623
H           28.00834415454921        4.46762472635597        0.58130155674958
H           26.13716375963364        2.55969857853020        0.23530570531935
H           26.22397378161553       -2.65341803264589        0.03577757629724
H           28.14210867451720       -4.50056350559824       -0.38709734652900
H           31.99434921925615       -5.25675779626676        0.67622987188502
H           32.03759607200745       -7.68909342528848        0.17781196880265
H           29.49882999703495       -7.04209558806901       -3.21278540101381
H           29.45890327938019       -4.60851553170553       -2.72076127389511
H           33.29662652472873       -4.22108321283183       -1.43385658323199
H           35.16176212801657       -2.29875704202603       -1.11788839853972
C           23.27758898730468       -0.03732303985755        0.14719165087958
C           22.05005798335056       -0.02122584235306        0.15092393858406
C           20.70522531991637       -0.01145242414011        0.14218566905636
C           19.48223922663515       -0.00076128116901        0.12556424655838
C           24.62240544980535       -0.04303910934264        0.13510814238194
C           25.84541911870447       -0.04722248547481        0.11753116187853

          :  Hamiltonian                  GFN1-xTB          :
         :: total energy            -249.885494074215 Eh    ::
         :: gradient norm              0.000547580143 Eh/a0 ::
         :: HOMO-LUMO gap              1.242794201526 eV    ::
         :: SCC energy              -253.369826928486 Eh    ::
         :: repulsion energy           3.597195583717 Eh    ::

    * Orbital Energies and Occupations

         #    Occupation            Energy/Eh            Energy/eV
      -------------------------------------------------------------
         1        2.0000           -0.9237094             -25.1354
       ...           ...                  ...                  ...
       209        2.0000           -0.4365907             -11.8802
       210        2.0000           -0.4223858             -11.4937
       211        2.0000           -0.4223766             -11.4935
       212        2.0000           -0.4220235             -11.4838
       213        2.0000           -0.4220176             -11.4837
       214        2.0000           -0.4211394             -11.4598
       215        2.0000           -0.4211340             -11.4596
       216        2.0000           -0.4200873             -11.4312
       217        2.0000           -0.4200802             -11.4310
       218        2.0000           -0.4199677             -11.4279
       219        2.0000           -0.4199618             -11.4277
       220        2.0000           -0.4195523             -11.4166
       221        2.0000           -0.4089359             -11.1277 (HOMO)
       222                         -0.3632640              -9.8849 (LUMO)
       223                         -0.3594335              -9.7807
       224                         -0.3593998              -9.7798
       225                         -0.3524681              -9.5911
       226                         -0.3524233              -9.5899
       227                         -0.3517286              -9.5710
       228                         -0.3505742              -9.5396
       229                         -0.3504746              -9.5369
       230                         -0.3445336              -9.3752
       231                         -0.3445011              -9.3744
       232                         -0.3225540              -8.7771
       ...                                ...                  ...
       446                          1.5597326              42.4425
      -------------------------------------------------------------
                  HL-Gap            0.0456718 Eh            1.2428 eV

Wiberg/Mayer (AO) data.
largest (>0.10) Wiberg bond orders for each atom

     #   Z sym  total        # sym  WBO       # sym  WBO       # sym  WBO
 ---------------------------------------------------------------------------
     1  28 Ni   3.008 --     7 N    0.663    43 N    0.663    21 N    0.660
                            28 N    0.659
     2   6 C    3.936 --    42 C    1.365     3 C    1.364    44 H    0.970
     3   6 C    3.921 --     2 C    1.364     7 N    1.212     4 C    1.173
     4   6 C    3.960 --     5 C    1.651     3 C    1.173    45 H    0.974
     5   6 C    3.962 --     4 C    1.651     6 C    1.175    46 H    0.972
     6   6 C    3.920 --     8 C    1.321     7 N    1.223     5 C    1.175
     7   7 N    3.402 --     6 C    1.223     3 C    1.212     1 Ni   0.663
     8   6 C    3.937 --    18 C    1.324     6 C    1.321     9 C    1.032
     9   6 C    3.985 --    10 C    1.384    17 C    1.384     8 C    1.032
    10   6 C    3.987 --    11 C    1.463     9 C    1.384    47 H    0.971
                            16 C    0.102
    11   6 C    3.987 --    10 C    1.463    12 C    1.387    48 H    0.965
                            17 C    0.102
    12   6 C    3.941 --    16 C    1.387    11 C    1.387    13 N    0.921
    13   7 N    3.866 --    15 O    1.455    14 O    1.454    12 C    0.921
    14   8 O    1.829 --    13 N    1.454    15 O    0.252
    15   8 O    1.829 --    13 N    1.455    14 O    0.252
    16   6 C    3.987 --    17 C    1.463    12 C    1.387    49 H    0.965
                            10 C    0.102
    17   6 C    3.987 --    16 C    1.463     9 C    1.384    50 H    0.971
                            11 C    0.102
    18   6 C    3.914 --     8 C    1.324    21 N    1.209    19 C    1.183
    19   6 C    3.958 --    20 C    1.637    18 C    1.183    51 H    0.972
    20   6 C    3.961 --    19 C    1.637    22 C    1.190    52 H    0.973
    21   7 N    3.405 --    22 C    1.237    18 C    1.209     1 Ni   0.660
    22   6 C    3.901 --    23 C    1.264    21 N    1.237    20 C    1.190
    23   6 C    3.945 --    24 C    1.264    22 C    1.264   124 C    1.183
    24   6 C    3.901 --    23 C    1.264    28 N    1.237    25 C    1.191
    25   6 C    3.961 --    26 C    1.637    24 C    1.191    53 H    0.973
    26   6 C    3.958 --    25 C    1.637    27 C    1.183    54 H    0.973
    27   6 C    3.914 --    29 C    1.325    28 N    1.209    26 C    1.183
    28   7 N    3.405 --    24 C    1.237    27 C    1.209     1 Ni   0.659
    29   6 C    3.937 --    27 C    1.325    39 C    1.321    30 C    1.031
    30   6 C    3.985 --    38 C    1.384    31 C    1.384    29 C    1.031
    31   6 C    3.987 --    32 C    1.463    30 C    1.384    55 H    0.971
                            37 C    0.102
    32   6 C    3.987 --    31 C    1.463    33 C    1.387    56 H    0.965
                            38 C    0.102
    33   6 C    3.942 --    37 C    1.387    32 C    1.387    34 N    0.920
    34   7 N    3.866 --    36 O    1.455    35 O    1.454    33 C    0.920
    35   8 O    1.829 --    34 N    1.454    36 O    0.252
    36   8 O    1.829 --    34 N    1.455    35 O    0.252
    37   6 C    3.987 --    38 C    1.463    33 C    1.387    57 H    0.965
                            31 C    0.102
    38   6 C    3.987 --    37 C    1.463    30 C    1.384    58 H    0.971
                            32 C    0.102
    39   6 C    3.920 --    29 C    1.321    43 N    1.224    40 C    1.175
    40   6 C    3.962 --    41 C    1.651    39 C    1.175    59 H    0.973
    41   6 C    3.960 --    40 C    1.651    42 C    1.173    60 H    0.974
    42   6 C    3.921 --     2 C    1.365    43 N    1.212    41 C    1.173
    43   7 N    3.401 --    39 C    1.224    42 C    1.212     1 Ni   0.663
    44   1 H    0.999 --     2 C    0.970
    45   1 H    0.997 --     4 C    0.974
    46   1 H    1.003 --     5 C    0.972
    47   1 H    1.003 --    10 C    0.971
    48   1 H    1.006 --    11 C    0.965
    49   1 H    1.006 --    16 C    0.965
    50   1 H    1.003 --    17 C    0.971
    51   1 H    1.003 --    19 C    0.972
    52   1 H    1.001 --    20 C    0.973
    53   1 H    1.001 --    25 C    0.973
    54   1 H    1.003 --    26 C    0.973
    55   1 H    1.003 --    31 C    0.971
    56   1 H    1.006 --    32 C    0.965
    57   1 H    1.006 --    37 C    0.965
    58   1 H    1.003 --    38 C    0.971
    59   1 H    1.003 --    40 C    0.973
    60   1 H    0.997 --    41 C    0.974
    61  28 Ni   3.008 --    67 N    0.663   103 N    0.663    81 N    0.660
                            88 N    0.659
    62   6 C    3.936 --   102 C    1.365    63 C    1.364   104 H    0.970
    63   6 C    3.921 --    62 C    1.364    67 N    1.212    64 C    1.174
    64   6 C    3.960 --    65 C    1.651    63 C    1.174   105 H    0.974
    65   6 C    3.962 --    64 C    1.651    66 C    1.175   106 H    0.972
    66   6 C    3.920 --    68 C    1.321    67 N    1.223    65 C    1.175
    67   7 N    3.402 --    66 C    1.223    63 C    1.212    61 Ni   0.663
    68   6 C    3.937 --    78 C    1.324    66 C    1.321    69 C    1.032
    69   6 C    3.985 --    70 C    1.384    77 C    1.384    68 C    1.032
    70   6 C    3.987 --    71 C    1.463    69 C    1.384   107 H    0.971
                            76 C    0.102
    71   6 C    3.987 --    70 C    1.463    72 C    1.387   108 H    0.965
                            77 C    0.102
    72   6 C    3.941 --    76 C    1.387    71 C    1.387    73 N    0.920
    73   7 N    3.866 --    75 O    1.455    74 O    1.454    72 C    0.920
    74   8 O    1.829 --    73 N    1.454    75 O    0.252
    75   8 O    1.829 --    73 N    1.455    74 O    0.252
    76   6 C    3.987 --    77 C    1.463    72 C    1.387   109 H    0.965
                            70 C    0.102
    77   6 C    3.987 --    76 C    1.463    69 C    1.384   110 H    0.971
                            71 C    0.102
    78   6 C    3.914 --    68 C    1.324    81 N    1.209    79 C    1.183
    79   6 C    3.958 --    80 C    1.637    78 C    1.183   111 H    0.973
    80   6 C    3.961 --    79 C    1.637    82 C    1.190   112 H    0.973
    81   7 N    3.405 --    82 C    1.237    78 C    1.209    61 Ni   0.660
    82   6 C    3.901 --    83 C    1.264    81 N    1.237    80 C    1.190
    83   6 C    3.945 --    84 C    1.264    82 C    1.264   126 C    1.183
    84   6 C    3.901 --    83 C    1.264    88 N    1.237    85 C    1.191
    85   6 C    3.961 --    86 C    1.637    84 C    1.191   113 H    0.973
    86   6 C    3.958 --    85 C    1.637    87 C    1.183   114 H    0.973
    87   6 C    3.914 --    89 C    1.325    88 N    1.209    86 C    1.183
    88   7 N    3.405 --    84 C    1.237    87 C    1.209    61 Ni   0.659
    89   6 C    3.937 --    87 C    1.325    99 C    1.320    90 C    1.031
    90   6 C    3.985 --    98 C    1.384    91 C    1.384    89 C    1.031
    91   6 C    3.987 --    92 C    1.463    90 C    1.384   115 H    0.971
                            97 C    0.102
    92   6 C    3.987 --    91 C    1.463    93 C    1.387   116 H    0.965
                            98 C    0.102
    93   6 C    3.942 --    97 C    1.387    92 C    1.387    94 N    0.920
    94   7 N    3.866 --    96 O    1.455    95 O    1.454    93 C    0.920
    95   8 O    1.829 --    94 N    1.454    96 O    0.252
    96   8 O    1.829 --    94 N    1.455    95 O    0.252
    97   6 C    3.987 --    98 C    1.463    93 C    1.387   117 H    0.965
                            91 C    0.102
    98   6 C    3.987 --    97 C    1.463    90 C    1.384   118 H    0.971
                            92 C    0.102
    99   6 C    3.920 --    89 C    1.320   103 N    1.224   100 C    1.175
   100   6 C    3.962 --   101 C    1.651    99 C    1.175   119 H    0.973
   101   6 C    3.960 --   100 C    1.651   102 C    1.173   120 H    0.974
   102   6 C    3.921 --    62 C    1.365   103 N    1.212   101 C    1.173
   103   7 N    3.401 --    99 C    1.224   102 C    1.212    61 Ni   0.663
   104   1 H    0.999 --    62 C    0.970
   105   1 H    0.997 --    64 C    0.974
   106   1 H    1.003 --    65 C    0.972
   107   1 H    1.003 --    70 C    0.971
   108   1 H    1.006 --    71 C    0.965
   109   1 H    1.006 --    76 C    0.965
   110   1 H    1.003 --    77 C    0.971
   111   1 H    1.003 --    79 C    0.973
   112   1 H    1.001 --    80 C    0.973
   113   1 H    1.001 --    85 C    0.973
   114   1 H    1.003 --    86 C    0.973
   115   1 H    1.003 --    91 C    0.971
   116   1 H    1.006 --    92 C    0.965
   117   1 H    1.006 --    97 C    0.965
   118   1 H    1.003 --    98 C    0.971
   119   1 H    1.003 --   100 C    0.973
   120   1 H    0.997 --   101 C    0.974
   121   6 C    3.928 --   122 C    2.376   125 C    1.330   124 C    0.192
   122   6 C    3.928 --   121 C    2.376   123 C    1.330   126 C    0.192
   123   6 C    3.938 --   124 C    2.458   122 C    1.330
   124   6 C    3.892 --   123 C    2.458    23 C    1.183   121 C    0.192
   125   6 C    3.938 --   126 C    2.458   121 C    1.330
   126   6 C    3.892 --   125 C    2.458    83 C    1.183   122 C    0.192
 ---------------------------------------------------------------------------

           -------------------------------------------------
          | TOTAL ENERGY             -249.885494074215 Eh   |
          | GRADIENT NORM               0.000547580143 Eh/α |
          | HOMO-LUMO GAP               1.242794201526 eV   |
           -------------------------------------------------

 * finished run on 2022/07/30 at 05:06:46.434
