   * xtb version 6.5.1 (b24c23e) compiled by 'conda@728c89f4b128' on 2022-07-12
          program call               : xtb Fe_m-CP_C6_2.xyz --gfn 1 --opt -T 48

   ID    Z sym.   atoms
    1   26 Fe     1, 63
    2    6 C      2-6, 8-12, 15-20, 22-27, 29-35, 38-42, 64-68, 70-74, 77-82,
                  84-89, 91-97, 100-104, 125-130
    3    7 N      7, 21, 28, 43, 69, 83, 90, 105
    4    8 O      13, 14, 36, 37, 75, 76, 98, 99
    5    1 H      44-62, 106-124
########################################################################
[WARNING] Please study the warnings concerning your input carefully
-1- prog_main_parseArguments: Unknown option '-T' provided
########################################################################

          :  Hamiltonian                  GFN1-xTB          :
 * total energy  :  -245.7318797 Eh     change       -0.2377959E-08 Eh
 * total energy  :  -245.8679766 Eh     change       -0.1360969E+00 Eh
 * total energy  :  -245.9289705 Eh     change       -0.6099383E-01 Eh
 * total energy  :  -245.9500048 Eh     change       -0.2103436E-01 Eh
 * total energy  :  -245.9590008 Eh     change       -0.8995976E-02 Eh
 * total energy  :  -245.9630857 Eh     change       -0.4084923E-02 Eh
 * total energy  :  -245.9649817 Eh     change       -0.1896029E-02 Eh
 * total energy  :  -245.9656842 Eh     change       -0.7024929E-03 Eh
 * total energy  :  -245.9663427 Eh     change       -0.6584130E-03 Eh
 * total energy  :  -245.9666408 Eh     change       -0.2981329E-03 Eh
 * total energy  :  -245.9682300 Eh     change       -0.1090085E-04 Eh
 * total energy  :  -245.9682447 Eh     change       -0.1475471E-04 Eh
 * total energy  :  -245.9682563 Eh     change       -0.1153394E-04 Eh
 * total energy  :  -245.9682666 Eh     change       -0.1028475E-04 Eh
 * total energy  :  -245.9682756 Eh     change       -0.9083836E-05 Eh
 * total energy  :  -245.9682825 Eh     change       -0.6871478E-05 Eh
 * total energy  :  -245.9682879 Eh     change       -0.5427815E-05 Eh
 * total energy  :  -245.9682943 Eh     change       -0.6376628E-05 Eh
 * total energy  :  -245.9682988 Eh     change       -0.4484786E-05 Eh
   *** GEOMETRY OPTIMIZATION CONVERGED AFTER 39 ITERATIONS ***

 final structure:
================
130
 xtb: 6.5.1 (b24c23e)
Fe          14.47976226942195        0.00554910508983       -0.01246560204238
C           11.09493349437052       -0.00315945824458        0.18396508031517
C           11.73811598333793        1.21726491518140        0.18049101764737
C           11.05577413438544        2.47584777223959        0.20920801688169
C           12.00987648490216        3.43237720725469        0.29307987472638
C           13.27399348464959        2.75474177068029        0.32861577559811
N           13.09515856812340        1.40215051900031        0.22335309536456
C           14.49590259363432        3.39472605060702        0.50385304309887
C           14.50284412456755        4.86223610815719        0.71463045155505
C           13.86801691254596        5.41893388596305        1.82112186297069
C           13.87974414295046        6.79855058265863        2.02228898203325
C           13.18972462568064        7.33175286335608        3.22416200262828
O           13.26282326957651        8.66575447096898        3.33592853740235
O           12.61222657571426        6.65224495989828        4.03349725468169
C           14.52539088794740        7.63266476256831        1.10971650047234
C           15.15501821875766        7.08051218481598        0.00520971832673
C           15.14754587230778        5.70691110698165       -0.19199895646319
C           15.70910403517043        2.72099023119073        0.49549607601490
C           16.97535056624021        3.35088030243930        0.72482221436847
C           17.92273503408122        2.39900070779347        0.54694566476970
N           15.88304544789837        1.38388998792568        0.22819327137407
C           17.23262339039341        1.19070818499904        0.22032506648779
C           17.88991671317486        0.00151572320488       -0.11855138159925
C           17.20929034613922       -1.18692632436454       -0.41094006491321
C           17.87006273143776       -2.39182146998909       -0.80296849683367
C           16.91153743478682       -3.34413085103008       -0.90552922519167
C           15.66899388758659       -2.71758861925174       -0.56501218181031
N           15.86525855760030       -1.38415467458436       -0.29599936304604
C           14.45889741250394       -3.39123445308327       -0.47604677704352
C           14.44496522482947       -4.85746887288254       -0.69700106478241
C           15.15671816523600       -5.70781511082431        0.15179208370866
C           15.13996073924365       -7.08122407788661       -0.04811611555489
C           14.41809026405437       -7.62116535715833       -1.09931991907964
C           13.70596339226482       -6.78097016212120       -1.95664193282102
C           12.94781483067257       -7.39880175476888       -3.07376891083027
O           12.29856121587245       -6.50956142492693       -3.83870337922706
O           12.90437381487657       -8.58253885196587       -3.29149331392952
C           13.71811257232918       -5.40263650619040       -1.75309775911739
C           13.25713509880238       -2.75336316437668       -0.18885583134012
C           12.00220258623963       -3.43388465986192       -0.04564620201406
C           11.05947866144656       -2.48062947061563        0.14119915860651
C           11.74005742594606       -1.22100908285234        0.12057616603520
N           13.08853021163519       -1.40299546213327       -0.04228839705686
H           10.01206386307203       -0.00568867353318        0.23619938949111
H            9.98445844541761        2.59191739008842        0.16846115671573
H           11.88246165666190        4.50219034685513        0.32600750194067
H           13.37168995876137        4.78428445669745        2.54711681006209
H           12.79124617170609        8.93439876407735        4.14114060002998
H           14.53169922867377        8.70444607341736        1.26669567112478
H           15.65578469526914        7.72348449497076       -0.70972392190902
H           15.63268439690136        5.28175019801559       -1.06349423384093
H           17.11177954912807        4.38612828065056        0.99169711023253
H           18.99388559562702        2.49170920321745        0.62548437531482
H           18.93050291025058       -2.48190025630967       -0.97511896280304
H           17.02517762704801       -4.37712367357712       -1.19136161847729
H           15.71292863580046       -5.28697061894551        0.98189780674209
H           15.69238722768997       -7.72985429861015        0.62207890029975
H           14.39474152406948       -8.69145967784493       -1.27050510187065
H           11.83230953058419       -6.99015840951303       -4.54194286547302
H           13.17338460907333       -4.75112672696831       -2.42608864544613
H           11.87289025205916       -4.50338086300175       -0.08170570225699
H            9.99661191631930       -2.59929543473247        0.27935559637221
Fe          30.46301601582762       -0.00162646209611       -0.01375800272810
C           33.84779201268989       -0.05800103784181        0.17592299902307
C           33.20456740030425       -1.21029022084678       -0.22609734069251
C           33.88680649234768       -2.40931099347703       -0.60993453546769
C           32.93260799736260       -3.34061483527688       -0.84333606423070
C           31.66855393741512       -2.71159006299670       -0.58854123306965
N           31.84749629306680       -1.39879275805301       -0.24637825128764
C           30.44665107365837       -3.37374038523878       -0.63144541909193
C           30.43973783690106       -4.82976400620384       -0.91076449189825
C           31.07424786437555       -5.71677347769248       -0.04599205202040
C           31.06259812062861       -7.08659066366386       -0.30560459297799
C           31.75228081736064       -7.98249522999944        0.65700874438607
O           31.67911903721930       -9.28006242208227        0.32783306617642
O           32.32947876324469       -7.60396975115903        1.64382982636973
C           30.41738482308983       -7.57758514767916       -1.44051510731694
C           29.78809996607107       -6.69549918397333       -2.30490455701788
C           29.79544456434698       -5.33265779279960       -2.04348397654925
C           29.23347779734474       -2.73416931255615       -0.41944366840150
C           27.96721774909829       -3.40437366676623       -0.40810128102472
C           27.01982460003826       -2.44642645006370       -0.26652237909630
N           29.05956855330669       -1.38294339795223       -0.23646781174406
C           27.70998925357114       -1.19770701877175       -0.18126410138455
C           27.05292713212737        0.03713175617663       -0.11435281921206
C           27.73373450652879        1.25578504940209       -0.00235285028410
C           27.07304884915068        2.52270181488449        0.02026022702030
C           28.03151291366182        3.45620891763847        0.23494357396261
C           29.27400054677114        2.75276416560589        0.35248167829643
N           29.07771509942524        1.40459782793959        0.17115314883956
C           30.48411909357446        3.36047081024921        0.65641367666042
C           30.49804233248710        4.81858297732249        0.92581311711668
C           29.78623844106282        5.34555355751284        2.00552394641937
C           29.80276231441993        6.70908379422550        2.26438774702558
C           30.52447151543775        7.56241995089260        1.44669729681009
C           31.23668732600681        7.04782509160425        0.36226428012341
C           31.99463458633483        7.99629752021542       -0.49237033422171
O           32.64321226604751        7.40530991373631       -1.50601643360898
O           32.03846630150129        9.18625028100587       -0.31177463255359
C           31.22476700046368        5.67845328950402        0.10522803774726
C           31.68588080923502        2.66379049048929        0.71970660240813
C           32.94084407866731        3.26026660035145        1.07714510443792
C           33.88342393963708        2.29798894879571        0.94335593780774
C           33.20275156651955        1.11401869109806        0.51304892672335
N           31.85435575133767        1.33942424842453        0.41794967514730
H           34.93063620358937       -0.07286960259036        0.22659251320061
H           34.95811994126353       -2.50586267440473       -0.68616108364489
H           33.05987901650969       -4.36249889749851       -1.16171513100452
H           31.57028839214199       -5.35346253867034        0.84739337433412
H           32.15043819576747       -9.79654339988616        1.00164178357406
H           30.41116340509319       -8.64198185941845       -1.64155372752259
H           29.28770530948574       -7.07025088001556       -3.19061211803480
H           29.31053413063436       -4.64657992881437       -2.72889481871122
H           27.83079333110824       -4.47009087895157       -0.49302605150940
H           25.94866611540941       -2.55964226858847       -0.22263145571543
H           26.01265172866495        2.66411058208435       -0.11332694133025
H           27.91786439751737        4.52589449329365        0.30234597529815
H           29.23014540411106        4.67693896399735        2.65303380987740
H           29.25024680591370        7.10362547470073        3.10944513806122
H           30.54758849073766        8.63004457718375        1.63384599461052
H           33.10937683618108        8.08901792078587       -2.01409279735873
H           31.76955314553868        5.28210546265892       -0.74343411910631
H           33.07029037654773        4.28310585605923        1.39161172450018
H           34.94625946275639        2.36495387959360        1.11292302471379
C           23.08655948578257        0.03865015026054       -0.19613757226095
C           21.85632729850518        0.02401731320940       -0.19643592170320
C           20.51529727601737        0.01303102179206       -0.18296021134893
C           19.28982619180133        0.00284175292229       -0.16093522795627
C           24.42761312151719        0.04610770353156       -0.18198386988335
C           25.65307740023997        0.04994718804318       -0.15677487435560

          :  Hamiltonian                  GFN1-xTB          :
         :: total energy            -245.968298805456 Eh    ::
         :: gradient norm              0.000455060949 Eh/a0 ::
         :: HOMO-LUMO gap              0.089606279241 eV    ::
         :: SCC energy              -249.597825621608 Eh    ::
         :: repulsion energy           3.745047221236 Eh    ::

    * Orbital Energies and Occupations

         #    Occupation            Energy/Eh            Energy/eV
      -------------------------------------------------------------
         1        2.0000           -0.8350188             -22.7220
       ...           ...                  ...                  ...
       207        2.0000           -0.4345520             -11.8248
       208        2.0000           -0.4306614             -11.7189
       209        2.0000           -0.4247768             -11.5588
       210        2.0000           -0.4045043             -11.0071
       211        2.0000           -0.4045011             -11.0070
       212        2.0000           -0.4039652             -10.9925
       213        1.9919           -0.3970245             -10.8036
       214        1.9918           -0.3970226             -10.8035
       215        1.9442           -0.3951723             -10.7532
       216        1.9429           -0.3951500             -10.7526
       217        1.9379           -0.3950677             -10.7503
       218        1.9379           -0.3950675             -10.7503
       219        1.7041           -0.3934625             -10.7067 (HOMO)
       220        0.3050           -0.3901696             -10.6171 (LUMO)
       221        0.2444           -0.3899258             -10.6104
       222                         -0.3472872              -9.4502
       223                         -0.3361416              -9.1469
       224                         -0.3361363              -9.1467
       225                         -0.3345911              -9.1047
       226                         -0.3142017              -8.5499
       227                         -0.3136927              -8.5360
       228                         -0.3128240              -8.5124
       229                         -0.3127833              -8.5113
       230                         -0.3091265              -8.4118
       ...                                ...                  ...
       454                          1.5653806              42.5962
      -------------------------------------------------------------
                  HL-Gap            0.0032930 Eh            0.0896 eV

Wiberg/Mayer (AO) data.
largest (>0.10) Wiberg bond orders for each atom

     #   Z sym  total        # sym  WBO       # sym  WBO       # sym  WBO
 ---------------------------------------------------------------------------
     1  26 Fe   3.147 --    43 N    0.673     7 N    0.667    21 N    0.664
                            28 N    0.659
     2   6 C    3.923 --    42 C    1.363     3 C    1.363    44 H    0.970
     3   6 C    3.923 --     2 C    1.363     7 N    1.209     4 C    1.172
     4   6 C    3.959 --     5 C    1.651     3 C    1.172    45 H    0.975
     5   6 C    3.962 --     4 C    1.651     6 C    1.174    46 H    0.973
     6   6 C    3.921 --     8 C    1.315     7 N    1.224     5 C    1.174
     7   7 N    3.380 --     6 C    1.224     3 C    1.209     1 Fe   0.667
     8   6 C    3.925 --    18 C    1.333     6 C    1.315     9 C    1.026
     9   6 C    3.988 --    10 C    1.408    17 C    1.387     8 C    1.026
                            15 C    0.102
    10   6 C    3.983 --     9 C    1.408    11 C    1.397    47 H    0.968
                            16 C    0.104
    11   6 C    3.988 --    10 C    1.397    15 C    1.391    12 C    1.004
                            17 C    0.100
    12   6 C    3.836 --    14 O    1.693    13 O    1.090    11 C    1.004
    13   8 O    2.099 --    12 C    1.090    48 H    0.838    14 O    0.129
    14   8 O    1.962 --    12 C    1.693    13 O    0.129
    15   6 C    3.987 --    16 C    1.448    11 C    1.391    49 H    0.970
                             9 C    0.102
    16   6 C    3.994 --    15 C    1.448    17 C    1.441    50 H    0.972
                            10 C    0.104
    17   6 C    3.987 --    16 C    1.441     9 C    1.387    51 H    0.973
                            11 C    0.100
    18   6 C    3.917 --     8 C    1.333    21 N    1.200    19 C    1.179
    19   6 C    3.956 --    20 C    1.637    18 C    1.179    52 H    0.973
    20   6 C    3.960 --    19 C    1.637    22 C    1.188    53 H    0.973
    21   7 N    3.382 --    22 C    1.245    18 C    1.200     1 Fe   0.664
    22   6 C    3.903 --    23 C    1.250    21 N    1.245    20 C    1.188
    23   6 C    3.924 --    22 C    1.250    24 C    1.249   128 C    1.205
    24   6 C    3.903 --    23 C    1.249    28 N    1.245    25 C    1.189
    25   6 C    3.960 --    26 C    1.637    24 C    1.189    54 H    0.973
    26   6 C    3.956 --    25 C    1.637    27 C    1.180    55 H    0.973
    27   6 C    3.918 --    29 C    1.333    28 N    1.201    26 C    1.180
    28   7 N    3.379 --    24 C    1.245    27 C    1.201     1 Fe   0.659
    29   6 C    3.925 --    27 C    1.333    39 C    1.315    30 C    1.026
    30   6 C    3.988 --    38 C    1.406    31 C    1.389    29 C    1.026
                            33 C    0.103
    31   6 C    3.987 --    32 C    1.439    30 C    1.389    56 H    0.973
                            34 C    0.100
    32   6 C    3.994 --    33 C    1.451    31 C    1.439    57 H    0.972
                            38 C    0.104
    33   6 C    3.986 --    32 C    1.451    34 C    1.388    58 H    0.969
                            30 C    0.103
    34   6 C    3.988 --    38 C    1.400    33 C    1.388    35 C    1.004
                            31 C    0.100
    35   6 C    3.836 --    37 O    1.693    36 O    1.090    34 C    1.004
    36   8 O    2.099 --    35 C    1.090    59 H    0.838    37 O    0.129
    37   8 O    1.961 --    35 C    1.693    36 O    0.129
    38   6 C    3.985 --    30 C    1.406    34 C    1.400    60 H    0.969
                            32 C    0.104
    39   6 C    3.921 --    29 C    1.315    43 N    1.224    40 C    1.174
    40   6 C    3.961 --    41 C    1.650    39 C    1.174    61 H    0.973
    41   6 C    3.959 --    40 C    1.650    42 C    1.172    62 H    0.975
    42   6 C    3.923 --     2 C    1.363    43 N    1.209    41 C    1.172
    43   7 N    3.383 --    39 C    1.224    42 C    1.209     1 Fe   0.673
    44   1 H    1.000 --     2 C    0.970
    45   1 H    0.997 --     4 C    0.975
    46   1 H    1.003 --     5 C    0.973
    47   1 H    1.007 --    10 C    0.968
    48   1 H    0.872 --    13 O    0.838
    49   1 H    1.005 --    15 C    0.970
    50   1 H    1.001 --    16 C    0.972
    51   1 H    1.004 --    17 C    0.973
    52   1 H    1.004 --    19 C    0.973
    53   1 H    1.001 --    20 C    0.973
    54   1 H    1.001 --    25 C    0.973
    55   1 H    1.004 --    26 C    0.973
    56   1 H    1.004 --    31 C    0.973
    57   1 H    1.001 --    32 C    0.972
    58   1 H    1.005 --    33 C    0.969
    59   1 H    0.873 --    36 O    0.838
    60   1 H    1.007 --    38 C    0.969
    61   1 H    1.004 --    40 C    0.973
    62   1 H    0.997 --    41 C    0.975
    63  26 Fe   3.147 --   105 N    0.673    69 N    0.667    83 N    0.664
                            90 N    0.659
    64   6 C    3.923 --   104 C    1.363    65 C    1.363   106 H    0.970
    65   6 C    3.923 --    64 C    1.363    69 N    1.209    66 C    1.172
    66   6 C    3.959 --    67 C    1.651    65 C    1.172   107 H    0.975
    67   6 C    3.962 --    66 C    1.651    68 C    1.174   108 H    0.973
    68   6 C    3.921 --    70 C    1.315    69 N    1.224    67 C    1.174
    69   7 N    3.380 --    68 C    1.224    65 C    1.209    63 Fe   0.667
    70   6 C    3.925 --    80 C    1.333    68 C    1.315    71 C    1.026
    71   6 C    3.988 --    72 C    1.408    79 C    1.387    70 C    1.026
                            77 C    0.102
    72   6 C    3.983 --    71 C    1.408    73 C    1.397   109 H    0.968
                            78 C    0.104
    73   6 C    3.988 --    72 C    1.397    77 C    1.391    74 C    1.004
                            79 C    0.100
    74   6 C    3.836 --    76 O    1.693    75 O    1.090    73 C    1.004
    75   8 O    2.099 --    74 C    1.090   110 H    0.838    76 O    0.129
    76   8 O    1.962 --    74 C    1.693    75 O    0.129
    77   6 C    3.987 --    78 C    1.448    73 C    1.391   111 H    0.970
                            71 C    0.102
    78   6 C    3.994 --    77 C    1.448    79 C    1.441   112 H    0.972
                            72 C    0.104
    79   6 C    3.987 --    78 C    1.441    71 C    1.387   113 H    0.973
                            73 C    0.100
    80   6 C    3.917 --    70 C    1.333    83 N    1.200    81 C    1.179
    81   6 C    3.956 --    82 C    1.637    80 C    1.179   114 H    0.973
    82   6 C    3.960 --    81 C    1.637    84 C    1.188   115 H    0.973
    83   7 N    3.381 --    84 C    1.245    80 C    1.200    63 Fe   0.664
    84   6 C    3.902 --    85 C    1.250    83 N    1.245    82 C    1.188
    85   6 C    3.924 --    84 C    1.250    86 C    1.249   130 C    1.205
    86   6 C    3.903 --    85 C    1.249    90 N    1.245    87 C    1.189
    87   6 C    3.960 --    88 C    1.637    86 C    1.189   116 H    0.973
    88   6 C    3.956 --    87 C    1.637    89 C    1.180   117 H    0.973
    89   6 C    3.918 --    91 C    1.333    90 N    1.201    88 C    1.180
    90   7 N    3.379 --    86 C    1.245    89 C    1.201    63 Fe   0.659
    91   6 C    3.925 --    89 C    1.333   101 C    1.315    92 C    1.026
    92   6 C    3.988 --   100 C    1.406    93 C    1.389    91 C    1.026
                            95 C    0.103
    93   6 C    3.987 --    94 C    1.439    92 C    1.389   118 H    0.973
                            96 C    0.100
    94   6 C    3.994 --    95 C    1.451    93 C    1.439   119 H    0.972
                           100 C    0.104
    95   6 C    3.986 --    94 C    1.451    96 C    1.388   120 H    0.969
                            92 C    0.103
    96   6 C    3.988 --   100 C    1.400    95 C    1.388    97 C    1.004
                            93 C    0.100
    97   6 C    3.836 --    99 O    1.693    98 O    1.090    96 C    1.004
    98   8 O    2.099 --    97 C    1.090   121 H    0.838    99 O    0.129
    99   8 O    1.961 --    97 C    1.693    98 O    0.129
   100   6 C    3.985 --    92 C    1.406    96 C    1.400   122 H    0.969
                            94 C    0.104
   101   6 C    3.921 --    91 C    1.315   105 N    1.224   102 C    1.174
   102   6 C    3.961 --   103 C    1.650   101 C    1.174   123 H    0.973
   103   6 C    3.959 --   102 C    1.650   104 C    1.172   124 H    0.975
   104   6 C    3.923 --    64 C    1.363   105 N    1.209   103 C    1.172
   105   7 N    3.383 --   101 C    1.224   104 C    1.209    63 Fe   0.673
   106   1 H    1.000 --    64 C    0.970
   107   1 H    0.997 --    66 C    0.975
   108   1 H    1.003 --    67 C    0.973
   109   1 H    1.007 --    72 C    0.968
   110   1 H    0.872 --    75 O    0.838
   111   1 H    1.005 --    77 C    0.970
   112   1 H    1.001 --    78 C    0.972
   113   1 H    1.004 --    79 C    0.973
   114   1 H    1.004 --    81 C    0.973
   115   1 H    1.001 --    82 C    0.973
   116   1 H    1.001 --    87 C    0.973
   117   1 H    1.004 --    88 C    0.973
   118   1 H    1.004 --    93 C    0.973
   119   1 H    1.001 --    94 C    0.972
   120   1 H    1.005 --    95 C    0.969
   121   1 H    0.873 --    98 O    0.838
   122   1 H    1.007 --   100 C    0.969
   123   1 H    1.004 --   102 C    0.973
   124   1 H    0.997 --   103 C    0.975
   125   6 C    3.914 --   126 C    2.340   129 C    1.353   128 C    0.186
   126   6 C    3.914 --   125 C    2.340   127 C    1.353   130 C    0.186
   127   6 C    3.922 --   128 C    2.422   126 C    1.353
   128   6 C    3.879 --   127 C    2.422    23 C    1.205   125 C    0.186
   129   6 C    3.922 --   130 C    2.422   125 C    1.353
   130   6 C    3.879 --   129 C    2.422    85 C    1.205   126 C    0.186
 ---------------------------------------------------------------------------

           -------------------------------------------------
          | TOTAL ENERGY             -245.968298805456 Eh   |
          | GRADIENT NORM               0.000455060949 Eh/α |
          | HOMO-LUMO GAP               0.089606279241 eV   |
           -------------------------------------------------

 * finished run on 2022/07/29 at 17:13:54.186
