   * xtb version 6.5.1 (b24c23e) compiled by 'conda@728c89f4b128' on 2022-07-12
          program call               : xtb Fe_PhOH_C4_3.xyz --gfn 1 --opt -T 48

   ID    Z sym.   atoms
    1   26 Fe     1, 59, 125
    2    6 C      2-6, 8-12, 14-18, 20-25, 27-31, 33-38, 60-64, 66-70, 72-76,
                  78-83, 85-89, 91-96, 117-124, 126-130, 132-136, 138-142,
                  144-149, 151-155, 157-162
    3    7 N      7, 19, 26, 39, 65, 77, 84, 97, 131, 143, 150, 163
    4    8 O      13, 32, 71, 90, 137, 156
    5    1 H      40-58, 98-116, 164-181

          :  Hamiltonian                  GFN1-xTB          :
 * total energy  :  -324.5976389 Eh     change       -0.1644935E-08 Eh
 * total energy  :  -324.8016809 Eh     change       -0.2040420E+00 Eh
 * total energy  :  -324.8686155 Eh     change       -0.6693457E-01 Eh
 * total energy  :  -324.9129100 Eh     change       -0.4429454E-01 Eh
 * total energy  :  -324.9342648 Eh     change       -0.2135479E-01 Eh
 * total energy  :  -324.9527261 Eh     change       -0.1846126E-01 Eh
 * total energy  :  -324.9693807 Eh     change       -0.1665463E-01 Eh
 * total energy  :  -324.9902253 Eh     change       -0.2084459E-01 Eh
 * total energy  :  -325.0162104 Eh     change       -0.2598514E-01 Eh
 * total energy  :  -325.0428933 Eh     change       -0.2668292E-01 Eh
 * total energy  :  -325.3762834 Eh     change       -0.1214750E-04 Eh
 * total energy  :  -325.3762937 Eh     change       -0.1037665E-04 Eh
 * total energy  :  -325.3763041 Eh     change       -0.1033721E-04 Eh
 * total energy  :  -325.3763169 Eh     change       -0.1280783E-04 Eh
 * total energy  :  -325.3763302 Eh     change       -0.1327601E-04 Eh
 * total energy  :  -325.3763392 Eh     change       -0.9088058E-05 Eh
 * total energy  :  -325.3763449 Eh     change       -0.5680075E-05 Eh
 * total energy  :  -325.3763499 Eh     change       -0.5007363E-05 Eh
 * total energy  :  -325.3763546 Eh     change       -0.4633482E-05 Eh
   *** GEOMETRY OPTIMIZATION CONVERGED AFTER 112 ITERATIONS ***

 final structure:
================
181
 xtb: 6.5.1 (b24c23e)
Fe          31.17268080455375       -0.04157540665362       -0.03270678121756
C           27.78864612047728       -0.06666447050803       -0.11699297614911
C           28.43829516035298       -1.27164910266761        0.05688231546792
C           27.76351692606158       -2.51901628478563        0.25189308522044
C           28.72141013023077       -3.47522409917907        0.29715736111620
C           29.97937316711360       -2.81196456470366        0.10852564353524
N           29.79481271124025       -1.45919406278147        0.01097236041292
C           31.19737581560521       -3.47140336532138       -0.02773452087941
C           31.21248189075445       -4.95210103004714       -0.01077899255360
C           30.49080634222900       -5.68402890536416       -0.95457231645420
C           30.50652747701062       -7.06998389405626       -0.93893608377087
C           31.24316647712277       -7.74229727555943        0.03368389869075
O           31.28224309875447       -9.09831221313304        0.08841230531893
C           31.96645886133789       -7.02337179594560        0.98382569639189
C           31.95195464031838       -5.64049374842296        0.95477411057514
C           32.40061839712732       -2.79616814228408       -0.18504929200079
C           33.65869869879997       -3.44132181437580       -0.41682134540000
C           34.60273837183757       -2.46898843160411       -0.41801701754696
N           32.57383670727670       -1.43602082540450       -0.09483784019959
C           33.91856350248965       -1.23456347653819       -0.19308451033190
C           34.57706662839420       -0.01452384186710        0.00490156692318
C           33.89740366528404        1.19366886056556        0.20531018077760
C           34.56452897755552        2.44115918229854        0.41031517817295
C           33.60510388469949        3.39758922107168        0.41580450212019
C           32.35226931281325        2.72939224929026        0.22169168353960
N           32.54895849382276        1.37210066287123        0.12041059025532
C           31.14365106293526        3.38622879644457        0.03777079999683
C           31.13056825236843        4.86916138371224        0.06629279213564
C           31.45098066840072        5.55994833063963        1.23700753995391
C           31.44008575026813        6.94327760436690        1.26795562976386
C           31.11326083913653        7.65784321635379        0.11691308072298
O           31.11669365368692        9.01437076615578        0.18079496760593
C           30.79466620815282        6.98172369047632       -1.05848995818446
C           30.80095018624013        5.59547439112485       -1.07795144557492
C           29.94413467714497        2.71405567739482       -0.17661860856012
C           28.67890813747383        3.36740416871013       -0.35104525747701
C           27.73824024579397        2.39482924571022       -0.40012645642104
C           28.42754919451489        1.14962321334996       -0.24512524217524
N           29.77789913126612        1.35624288705251       -0.13606637424996
H           26.70465601195365       -0.07434789415920       -0.14078488506152
H           26.69460415125977       -2.62883375649224        0.34452597139909
H           28.59876728287324       -4.53555660283363        0.44765169364829
H           29.92807978366637       -5.16261503272371       -1.72087116123700
H           29.94992642909666       -7.63350655559143       -1.68009474752585
H           30.74436913278430       -9.49494887361442       -0.60995405372670
H           32.53164787358774       -7.55908073431629        1.73646068749754
H           32.50454117647361       -5.08119080460150        1.70138262585836
H           33.79193525291304       -4.50025501421880       -0.56724926556276
H           35.66797817051820       -2.56437170109145       -0.55424496783691
H           35.63110718933038        2.55638326850715        0.51787288903029
H           33.72790563478900        4.46311310723586        0.52164092099825
H           31.69436838157247        5.00357749655472        2.13518119732976
H           31.68182394588014        7.48209393094742        2.17574868184829
H           30.87444206977442        9.40760205153140       -0.66833522323304
H           30.54497187968676        7.54218934642914       -1.95303513858204
H           30.56487651027179        5.07013716961252       -1.99664818530659
H           28.53797238868669        4.43451294217450       -0.40898486360728
H           26.67021669067961        2.49315469787204       -0.51343425276791
Fe          57.98939199569814       -0.00365162160082       -0.00850191900239
C           61.37651937543888        0.00854712667377       -0.08501826087929
C           60.72385623647399        1.20899632669207       -0.27573035895205
C           61.40154537236331        2.45184681516804       -0.48912841838018
C           60.44891481499900        3.41354731413670       -0.51140802141693
C           59.18870165073697        2.75470085231952       -0.32258929061229
N           59.36973860742037        1.40411795597574       -0.19678607281997
C           57.97616042858709        3.42388505524085       -0.18583762385491
C           57.97100323175252        4.90494221687147       -0.26388350357114
C           58.32589254265889        5.55126416252191       -1.44792148122812
C           58.31438076809654        6.93514709338106       -1.52941540511136
C           57.95241252355526        7.68993375463374       -0.41606627697565
O           57.92987934338051        9.04711945372897       -0.45114759136430
C           57.60048487696184        7.05587249669359        0.77411161974926
C           57.60725810631077        5.67396540919754        0.84372085078978
C           56.77067272723166        2.76612460549218        0.01250265779441
C           55.50610285460864        3.43203450777248        0.11726432873085
C           54.55805395805090        2.46596873383336        0.16972281019724
N           56.59200806810053        1.40247123719136        0.01953043274861
C           55.24459747525311        1.21470866977859        0.09175870480691
C           54.58140028883590       -0.01718154583110        0.01469628390855
C           55.25516840232017       -1.24382380299715       -0.04786931964957
C           54.58239209383257       -2.50127010506449       -0.14139055591137
C           55.53866472764067       -3.45855293119677       -0.06950397586407
C           56.79278435382603       -2.78062244963560        0.07390621386118
N           56.60308964229061       -1.41920802498974        0.04849888836884
C           58.00908091745595       -3.42784410513205        0.24344591506097
C           58.01788140093328       -4.90479620326770        0.35599903056308
C           57.32837566518647       -5.54207719021839        1.39082834142584
C           57.33884420468011       -6.92065748326169        1.50554694593569
C           58.03695247025092       -7.68677562911699        0.57364233407956
O           58.02354737810960       -9.03702391729309        0.71362691373219
C           58.72393546374293       -7.06570227460718       -0.46705616943398
C           58.71522524769107       -5.68341134032528       -0.56861624327021
C           59.22203991930002       -2.74741825179534        0.30238180444987
C           60.49065712814200       -3.38538306005136        0.50587544013978
C           61.43566443697960       -2.42162808861641        0.39740118663439
C           60.74235881479448       -1.19473545923878        0.14649743595827
N           59.38787313051149       -1.40080590143150        0.12476522345925
H           62.46061454482142        0.01336504482802       -0.10577441921216
H           62.47013061463630        2.55663122951959       -0.59053647267605
H           60.57801591040173        4.47730400182799       -0.62811031605478
H           58.59556112640145        4.96410792704795       -2.31867650520465
H           58.58368520460153        7.43269319971986       -2.45490540748394
H           58.19135097860181        9.38181668518627       -1.31945014593885
H           57.32530459079249        7.65570057813176        1.63276199243895
H           57.34394414968159        5.18068568367655        1.77260045697103
H           55.36895043640706        4.50091995241686        0.12921019875122
H           53.48800460329846        2.57593318899416        0.24184089411664
H           53.51608688042170       -2.62059886431901       -0.24696018702459
H           55.41602331496784       -4.52825393074966       -0.11787683311434
H           56.79576828823653       -4.94564081791904        2.12305036536807
H           56.81251149000386       -7.41674371549225        2.31158481053232
H           58.53914165851425       -9.46877171083429        0.01925125385367
H           59.26128168856616       -7.66608313253968       -1.19331371647276
H           59.23928881045325       -5.20216102923517       -1.38683913880996
H           60.62891495915739       -4.43472017507948        0.71004823249117
H           62.50696851053661       -2.51338393522205        0.48127876620646
C           37.20197197136173        0.00322767845613        0.00540926097476
C           35.97788861113419       -0.00334735967030        0.00422967847558
C           38.54807933262028        0.00975721868082        0.00276741312134
C           39.77232427176671        0.01477157373525       -0.00252796297391
C           50.61205369469496       -0.00410790104885       -0.01727482577795
C           49.38738370584964        0.00677038067649       -0.02678009980310
C           51.95716128017374       -0.01247192009635       -0.00695430427614
C           53.18166193133981       -0.01962546167391        0.00258637971036
Fe          44.58051783766561        0.02551784937191       -0.04312410873005
C           41.17195578176365        0.01866418979231       -0.01402925858194
C           41.84814353230241        1.02584502658014        0.68780120636728
C           41.18666405387495        2.02401262019118        1.46622352181395
C           42.14447762769106        2.89090126336085        1.87903763548022
C           43.38500610353887        2.42314764794820        1.33830403555221
N           43.19207251749760        1.24975527687414        0.65170249616531
C           44.58960740146284        3.11263009976128        1.43202724915184
C           44.59584392851788        4.44356891566725        2.07915134722135
C           45.39813030138544        4.68450422379141        3.19816875184652
C           45.40269877496863        5.92310162397252        3.81349328228304
C           44.60658371324671        6.94968563269677        3.30768130741778
O           44.63864046958265        8.15329364006711        3.93296861703465
C           43.80632202978910        6.72619527222296        2.18917618019806
C           43.79997995830119        5.47865789972288        1.58569994788489
C           45.78984337471622        2.60181656642358        0.94990646870344
C           47.03492464009427        3.30844423389718        0.97513841776398
C           47.98824362782963        2.43505388551418        0.56548878027873
N           45.97577685836875        1.32872613597340        0.46888851636603
C           47.31944459490503        1.20581290020647        0.27995914122774
C           47.98896426274876        0.01499963108259       -0.03672438126844
C           47.31269315968277       -1.16728293504231       -0.36954342520552
C           47.97507602513881       -2.39590652552562       -0.67283698225526
C           47.01971868047426       -3.25273586963114       -1.11153645452180
C           45.77920928376577       -2.53847762377720       -1.07969626037769
N           45.96985312032035       -1.27642423122575       -0.57380712664197
C           44.57631770517461       -3.03775218375928       -1.56770254615432
C           44.58064739847904       -4.35449187063048       -2.24335376828068
C           43.79757058434011       -5.40518957082122       -1.76305489953591
C           43.80357557602889       -6.63887071087296       -2.39447709055999
C           44.59034517902449       -6.83207245557009       -3.52793063524732
O           44.62151275605880       -8.02101454453711       -4.18088796743144
C           45.37391088034857       -5.78956650194438       -4.02046890516981
C           45.37056023869879       -4.56535520695358       -3.37700669244635
C           43.37144623674087       -2.35413200176669       -1.44514333149274
C           42.12288032395600       -2.82173183714306       -1.96729766693141
C           41.16767903826551       -1.97182066474061       -1.51513386789711
C           41.83904740774499       -0.98092832346033       -0.73576346013177
N           43.18482867172683       -1.19385778740774       -0.73417618758301
H           40.12701985785024        2.04679540701665        1.66365739579257
H           42.02902079202246        3.76546219951573        2.49819595993522
H           46.00681830497005        3.88246845489798        3.60040540903360
H           46.01609776144382        6.10925059354548        4.68640323738444
H           44.04974353406813        8.78992576104559        3.50585001805971
H           43.19291623973311        7.52945607057934        1.79537872956221
H           43.18680102439812        5.31062791219492        0.70735502985474
H           47.15592842387532        4.33938904060116        1.26513627199173
H           49.04948408341592        2.59528891715609        0.46333059422990
H           49.03421581199587       -2.56584580394188       -0.56498063299887
H           47.13599467164769       -4.27789200119503       -1.42330916563841
H           43.19512608186830       -5.26073416988164       -0.87328012009309
H           43.20019432281811       -7.45443217443559       -2.01091838232894
H           44.04271495690595       -8.67118010980482       -3.76060256334181
H           45.97691899673571       -5.95244770339298       -4.90503587277658
H           45.97075112152429       -3.75123761877772       -3.76725434865763
H           42.00033860169836       -3.68557180918746       -2.60006566044588
H           40.10394132551668       -2.00110028454998       -1.68797722077769

          :  Hamiltonian                  GFN1-xTB          :
         :: total energy            -325.376354580212 Eh    ::
         :: gradient norm              0.000568965357 Eh/a0 ::
         :: HOMO-LUMO gap              0.048352904751 eV    ::
         :: SCC energy              -330.396152808046 Eh    ::
         :: repulsion energy           5.184192682805 Eh    ::

    * Orbital Energies and Occupations

         #    Occupation            Energy/Eh            Energy/eV
      -------------------------------------------------------------
         1        2.0000           -0.8084524             -21.9991
       ...           ...                  ...                  ...
       284        2.0000           -0.3953830             -10.7589
       285        2.0000           -0.3950415             -10.7496
       286        1.9995           -0.3886720             -10.5763
       287        1.9931           -0.3861974             -10.5090
       288        1.9925           -0.3861199             -10.5069
       289        1.9921           -0.3860698             -10.5055
       290        1.9705           -0.3848058             -10.4711
       291        1.9633           -0.3845960             -10.4654
       292        1.9588           -0.3844838             -10.4623
       293        1.9565           -0.3844310             -10.4609
       294        1.9561           -0.3844225             -10.4607
       295        1.9535           -0.3843658             -10.4591
       296        1.2040           -0.3812079             -10.3732 (HOMO)
       297        0.3780           -0.3794310             -10.3248 (LUMO)
       298        0.3433           -0.3793195             -10.3218
       299        0.3387           -0.3793041             -10.3214
       300                         -0.3430901              -9.3360
       301                         -0.3316898              -9.0257
       302                         -0.3286147              -8.9421
       303                         -0.3257512              -8.8641
       304                         -0.3254742              -8.8566
       305                         -0.3236833              -8.8079
       306                         -0.3033784              -8.2553
       307                         -0.2986411              -8.1264
       ...                                ...                  ...
       627                          1.5097364              41.0820
      -------------------------------------------------------------
                  HL-Gap            0.0017769 Eh            0.0484 eV

Wiberg/Mayer (AO) data.
largest (>0.10) Wiberg bond orders for each atom

     #   Z sym  total        # sym  WBO       # sym  WBO       # sym  WBO
 ---------------------------------------------------------------------------
     1  26 Fe   3.104 --     7 N    0.664    39 N    0.663    26 N    0.657
                            19 N    0.656
     2   6 C    3.917 --    38 C    1.363     3 C    1.362    40 H    0.970
     3   6 C    3.926 --     2 C    1.362     7 N    1.209     4 C    1.175
     4   6 C    3.959 --     5 C    1.647     3 C    1.175    41 H    0.975
     5   6 C    3.962 --     4 C    1.647     6 C    1.176    42 H    0.973
     6   6 C    3.920 --     8 C    1.311     7 N    1.225     5 C    1.176
     7   7 N    3.377 --     6 C    1.225     3 C    1.209     1 Fe   0.664
     8   6 C    3.921 --    16 C    1.331     6 C    1.311     9 C    1.033
     9   6 C    3.987 --    10 C    1.391    15 C    1.381     8 C    1.033
    10   6 C    3.986 --    11 C    1.453     9 C    1.391    43 H    0.972
                            14 C    0.104
    11   6 C    3.988 --    10 C    1.453    12 C    1.371    44 H    0.970
                            15 C    0.102
    12   6 C    3.899 --    11 C    1.371    14 C    1.363    13 O    1.041
    13   8 O    2.044 --    12 C    1.041    45 H    0.865
    14   6 C    3.990 --    15 C    1.468    12 C    1.363    46 H    0.971
                            10 C    0.104
    15   6 C    3.987 --    14 C    1.468     9 C    1.381    47 H    0.973
                            11 C    0.102
    16   6 C    3.918 --     8 C    1.331    19 N    1.201    17 C    1.181
    17   6 C    3.957 --    18 C    1.636    16 C    1.181    48 H    0.973
    18   6 C    3.960 --    17 C    1.636    20 C    1.189    49 H    0.974
    19   7 N    3.376 --    20 C    1.245    16 C    1.201     1 Fe   0.656
    20   6 C    3.905 --    21 C    1.250    19 N    1.245    18 C    1.189
    21   6 C    3.916 --    20 C    1.250    22 C    1.250   118 C    1.203
    22   6 C    3.905 --    21 C    1.250    26 N    1.247    23 C    1.188
    23   6 C    3.961 --    24 C    1.639    22 C    1.188    50 H    0.973
    24   6 C    3.957 --    23 C    1.639    25 C    1.179    51 H    0.973
    25   6 C    3.918 --    27 C    1.336    26 N    1.199    24 C    1.179
    26   7 N    3.376 --    22 C    1.247    25 C    1.199     1 Fe   0.657
    27   6 C    3.920 --    25 C    1.336    35 C    1.312    28 C    1.024
    28   6 C    3.988 --    34 C    1.394    29 C    1.385    27 C    1.024
    29   6 C    3.988 --    30 C    1.466    28 C    1.385    52 H    0.973
                            33 C    0.103
    30   6 C    3.990 --    29 C    1.466    31 C    1.365    53 H    0.971
                            34 C    0.105
    31   6 C    3.901 --    33 C    1.372    30 C    1.365    32 O    1.040
    32   8 O    2.043 --    31 C    1.040    54 H    0.865
    33   6 C    3.988 --    34 C    1.452    31 C    1.372    55 H    0.970
                            29 C    0.103
    34   6 C    3.987 --    33 C    1.452    28 C    1.394    56 H    0.973
                            30 C    0.105
    35   6 C    3.920 --    27 C    1.312    39 N    1.226    36 C    1.176
    36   6 C    3.962 --    37 C    1.649    35 C    1.176    57 H    0.973
    37   6 C    3.959 --    36 C    1.649    38 C    1.173    58 H    0.975
    38   6 C    3.926 --     2 C    1.363    39 N    1.209    37 C    1.173
    39   7 N    3.377 --    35 C    1.226    38 C    1.209     1 Fe   0.663
    40   1 H    1.001 --     2 C    0.970
    41   1 H    0.998 --     4 C    0.975
    42   1 H    1.005 --     5 C    0.973
    43   1 H    1.005 --    10 C    0.972
    44   1 H    0.999 --    11 C    0.970
    45   1 H    0.887 --    13 O    0.865
    46   1 H    0.999 --    14 C    0.971
    47   1 H    1.005 --    15 C    0.973
    48   1 H    1.005 --    17 C    0.973
    49   1 H    1.002 --    18 C    0.974
    50   1 H    1.002 --    23 C    0.973
    51   1 H    1.005 --    24 C    0.973
    52   1 H    1.004 --    29 C    0.973
    53   1 H    0.999 --    30 C    0.971
    54   1 H    0.887 --    32 O    0.865
    55   1 H    0.999 --    33 C    0.970
    56   1 H    1.004 --    34 C    0.973
    57   1 H    1.005 --    36 C    0.973
    58   1 H    0.998 --    37 C    0.975
    59  26 Fe   3.090 --    97 N    0.661    65 N    0.661    77 N    0.654
                            84 N    0.654
    60   6 C    3.915 --    61 C    1.363    96 C    1.362    98 H    0.970
    61   6 C    3.926 --    60 C    1.363    65 N    1.209    62 C    1.174
    62   6 C    3.959 --    63 C    1.648    61 C    1.174    99 H    0.975
    63   6 C    3.962 --    62 C    1.648    64 C    1.176   100 H    0.973
    64   6 C    3.919 --    66 C    1.311    65 N    1.227    63 C    1.176
    65   7 N    3.375 --    64 C    1.227    61 C    1.209    59 Fe   0.661
    66   6 C    3.918 --    74 C    1.337    64 C    1.311    67 C    1.025
    67   6 C    3.987 --    68 C    1.394    73 C    1.384    66 C    1.025
    68   6 C    3.987 --    69 C    1.452    67 C    1.394   101 H    0.973
                            72 C    0.105
    69   6 C    3.988 --    68 C    1.452    70 C    1.372   102 H    0.970
                            73 C    0.102
    70   6 C    3.901 --    69 C    1.372    72 C    1.364    71 O    1.041
    71   8 O    2.044 --    70 C    1.041   103 H    0.865
    72   6 C    3.990 --    73 C    1.466    70 C    1.364   104 H    0.971
                            68 C    0.105
    73   6 C    3.988 --    72 C    1.466    67 C    1.384   105 H    0.973
                            69 C    0.102
    74   6 C    3.918 --    66 C    1.337    77 N    1.198    75 C    1.179
    75   6 C    3.957 --    76 C    1.639    74 C    1.179   106 H    0.973
    76   6 C    3.961 --    75 C    1.639    78 C    1.188   107 H    0.973
    77   7 N    3.374 --    78 C    1.250    74 C    1.198    59 Fe   0.654
    78   6 C    3.905 --    77 N    1.250    79 C    1.246    76 C    1.188
    79   6 C    3.913 --    80 C    1.247    78 C    1.246   124 C    1.209
    80   6 C    3.905 --    84 N    1.248    79 C    1.247    81 C    1.189
    81   6 C    3.960 --    82 C    1.637    80 C    1.189   108 H    0.973
    82   6 C    3.957 --    81 C    1.637    83 C    1.180   109 H    0.973
    83   6 C    3.918 --    85 C    1.333    84 N    1.200    82 C    1.180
    84   7 N    3.374 --    80 C    1.248    83 C    1.200    59 Fe   0.654
    85   6 C    3.919 --    83 C    1.333    93 C    1.309    86 C    1.032
    86   6 C    3.987 --    92 C    1.391    87 C    1.381    85 C    1.032
    87   6 C    3.987 --    88 C    1.468    86 C    1.381   110 H    0.973
                            91 C    0.102
    88   6 C    3.990 --    87 C    1.468    89 C    1.363   111 H    0.971
                            92 C    0.104
    89   6 C    3.900 --    91 C    1.371    88 C    1.363    90 O    1.041
    90   8 O    2.044 --    89 C    1.041   112 H    0.865
    91   6 C    3.988 --    92 C    1.454    89 C    1.371   113 H    0.970
                            87 C    0.102
    92   6 C    3.986 --    91 C    1.454    86 C    1.391   114 H    0.972
                            88 C    0.104
    93   6 C    3.920 --    85 C    1.309    97 N    1.227    94 C    1.177
    94   6 C    3.962 --    95 C    1.647    93 C    1.177   115 H    0.973
    95   6 C    3.959 --    94 C    1.647    96 C    1.175   116 H    0.975
    96   6 C    3.926 --    60 C    1.362    97 N    1.210    95 C    1.175
    97   7 N    3.375 --    93 C    1.227    96 C    1.210    59 Fe   0.661
    98   1 H    1.001 --    60 C    0.970
    99   1 H    0.998 --    62 C    0.975
   100   1 H    1.005 --    63 C    0.973
   101   1 H    1.004 --    68 C    0.973
   102   1 H    0.999 --    69 C    0.970
   103   1 H    0.887 --    71 O    0.865
   104   1 H    0.999 --    72 C    0.971
   105   1 H    1.004 --    73 C    0.973
   106   1 H    1.005 --    75 C    0.973
   107   1 H    1.002 --    76 C    0.973
   108   1 H    1.002 --    81 C    0.973
   109   1 H    1.005 --    82 C    0.973
   110   1 H    1.005 --    87 C    0.973
   111   1 H    0.999 --    88 C    0.971
   112   1 H    0.886 --    90 O    0.865
   113   1 H    0.999 --    91 C    0.970
   114   1 H    1.005 --    92 C    0.972
   115   1 H    1.005 --    94 C    0.973
   116   1 H    0.998 --    95 C    0.975
   117   6 C    3.923 --   118 C    2.446   119 C    1.328
   118   6 C    3.909 --   117 C    2.446    21 C    1.203   120 C    0.194
   119   6 C    3.917 --   120 C    2.443   117 C    1.328
   120   6 C    3.913 --   119 C    2.443   126 C    1.209   118 C    0.194
   121   6 C    3.917 --   122 C    2.437   123 C    1.333
   122   6 C    3.913 --   121 C    2.437   145 C    1.214   124 C    0.195
   123   6 C    3.922 --   124 C    2.439   121 C    1.333
   124   6 C    3.910 --   123 C    2.439    79 C    1.209   122 C    0.195
   125  26 Fe   3.058 --   143 N    0.647   163 N    0.646   150 N    0.646
                           131 N    0.646
   126   6 C    3.899 --   127 C    1.246   162 C    1.244   120 C    1.209
   127   6 C    3.907 --   131 N    1.247   126 C    1.246   128 C    1.194
   128   6 C    3.959 --   129 C    1.630   127 C    1.194   164 H    0.974
   129   6 C    3.959 --   128 C    1.630   130 C    1.186   165 H    0.973
   130   6 C    3.915 --   132 C    1.317   131 N    1.207   129 C    1.186
   131   7 N    3.363 --   127 C    1.247   130 C    1.207   125 Fe   0.646
   132   6 C    3.910 --   140 C    1.319   130 C    1.317   133 C    1.036
   133   6 C    3.987 --   139 C    1.389   134 C    1.379   132 C    1.036
   134   6 C    3.986 --   135 C    1.469   133 C    1.379   166 H    0.972
                           138 C    0.101
   135   6 C    3.989 --   134 C    1.469   136 C    1.362   167 H    0.970
                           139 C    0.104
   136   6 C    3.899 --   138 C    1.369   135 C    1.362   137 O    1.043
   137   8 O    2.046 --   136 C    1.043   168 H    0.864
   138   6 C    3.988 --   139 C    1.455   136 C    1.369   169 H    0.970
                           134 C    0.101
   139   6 C    3.986 --   138 C    1.455   133 C    1.389   170 H    0.972
                           135 C    0.104
   140   6 C    3.915 --   132 C    1.319   143 N    1.205   141 C    1.185
   141   6 C    3.958 --   142 C    1.630   140 C    1.185   171 H    0.973
   142   6 C    3.959 --   141 C    1.630   144 C    1.194   172 H    0.974
   143   7 N    3.364 --   144 C    1.249   140 C    1.205   125 Fe   0.647
   144   6 C    3.906 --   143 N    1.249   145 C    1.242   142 C    1.194
   145   6 C    3.899 --   146 C    1.243   144 C    1.242   122 C    1.214
   146   6 C    3.906 --   150 N    1.248   145 C    1.243   147 C    1.193
   147   6 C    3.959 --   148 C    1.630   146 C    1.193   173 H    0.974
   148   6 C    3.959 --   147 C    1.630   149 C    1.185   174 H    0.973
   149   6 C    3.915 --   151 C    1.318   150 N    1.206   148 C    1.185
   150   7 N    3.363 --   146 C    1.248   149 C    1.206   125 Fe   0.646
   151   6 C    3.910 --   159 C    1.319   149 C    1.318   152 C    1.035
   152   6 C    3.987 --   153 C    1.389   158 C    1.379   151 C    1.035
   153   6 C    3.986 --   154 C    1.455   152 C    1.389   175 H    0.972
                           157 C    0.104
   154   6 C    3.988 --   153 C    1.455   155 C    1.370   176 H    0.970
                           158 C    0.101
   155   6 C    3.899 --   154 C    1.370   157 C    1.362   156 O    1.043
   156   8 O    2.045 --   155 C    1.043   177 H    0.864
   157   6 C    3.989 --   158 C    1.469   155 C    1.362   178 H    0.971
                           153 C    0.104
   158   6 C    3.986 --   157 C    1.469   152 C    1.379   179 H    0.972
                           154 C    0.101
   159   6 C    3.915 --   151 C    1.319   163 N    1.206   160 C    1.185
   160   6 C    3.959 --   161 C    1.630   159 C    1.185   180 H    0.973
   161   6 C    3.959 --   160 C    1.630   162 C    1.194   181 H    0.974
   162   6 C    3.907 --   163 N    1.248   126 C    1.244   161 C    1.194
   163   7 N    3.363 --   162 C    1.248   159 C    1.206   125 Fe   0.646
   164   1 H    1.002 --   128 C    0.974
   165   1 H    1.005 --   129 C    0.973
   166   1 H    1.005 --   134 C    0.972
   167   1 H    0.998 --   135 C    0.970
   168   1 H    0.886 --   137 O    0.864
   169   1 H    0.999 --   138 C    0.970
   170   1 H    1.005 --   139 C    0.972
   171   1 H    1.004 --   141 C    0.973
   172   1 H    1.002 --   142 C    0.974
   173   1 H    1.002 --   147 C    0.974
   174   1 H    1.004 --   148 C    0.973
   175   1 H    1.005 --   153 C    0.972
   176   1 H    0.999 --   154 C    0.970
   177   1 H    0.886 --   156 O    0.864
   178   1 H    0.999 --   157 C    0.971
   179   1 H    1.005 --   158 C    0.972
   180   1 H    1.005 --   160 C    0.973
   181   1 H    1.002 --   161 C    0.974
 ---------------------------------------------------------------------------

           -------------------------------------------------
          | TOTAL ENERGY             -325.376354580212 Eh   |
          | GRADIENT NORM               0.000568965357 Eh/α |
          | HOMO-LUMO GAP               0.048352904751 eV   |
           -------------------------------------------------

 * finished run on 2022/07/29 at 20:16:18.316
