   * xtb version 6.5.1 (b24c23e) compiled by 'conda@728c89f4b128' on 2022-07-12
          program call               : xtb Ni_PhNH2_C8_2.xyz --gfn 1 --opt -T 48

   ID    Z sym.   atoms
    1   28 Ni     1, 61
    2    6 C      2-6, 8-12, 14-18, 20-25, 27-31, 33-38, 62-66, 68-72, 74-78,
                  80-85, 87-91, 93-98, 121-128
    3    7 N      7, 13, 19, 26, 32, 39, 67, 73, 79, 86, 92, 99
    4    1 H      40-60, 100-120
########################################################################
[WARNING] Please study the warnings concerning your input carefully
-1- prog_main_parseArguments: Unknown option '-T' provided
########################################################################

          :  Hamiltonian                  GFN1-xTB          :
 * total energy  :  -220.2338559 Eh     change       -0.2142059E-08 Eh
 * total energy  :  -221.0486016 Eh     change       -0.8147456E+00 Eh
 * total energy  :  -221.1885937 Eh     change       -0.1399921E+00 Eh
 * total energy  :  -221.2469257 Eh     change       -0.5833206E-01 Eh
 * total energy  :  -221.2711056 Eh     change       -0.2417986E-01 Eh
 * total energy  :  -221.2835646 Eh     change       -0.1245906E-01 Eh
 * total energy  :  -221.2925674 Eh     change       -0.9002717E-02 Eh
 * total energy  :  -221.2992994 Eh     change       -0.6732078E-02 Eh
 * total energy  :  -221.3045782 Eh     change       -0.5278709E-02 Eh
 * total energy  :  -221.3084490 Eh     change       -0.3870823E-02 Eh
 * total energy  :  -221.3255389 Eh     change       -0.1456799E-04 Eh
 * total energy  :  -221.3255445 Eh     change       -0.5589122E-05 Eh
 * total energy  :  -221.3255420 Eh     change        0.2434057E-05 Eh
 * total energy  :  -221.3255513 Eh     change       -0.9270948E-05 Eh
 * total energy  :  -221.3255133 Eh     change        0.3804317E-04 Eh
 * total energy  :  -221.3255531 Eh     change       -0.3985540E-04 Eh
 * total energy  :  -221.3255528 Eh     change        0.2800199E-06 Eh
 * total energy  :  -221.3255602 Eh     change       -0.7325505E-05 Eh
 * total energy  :  -221.3255615 Eh     change       -0.1324175E-05 Eh
   *** GEOMETRY OPTIMIZATION CONVERGED AFTER 51 ITERATIONS ***

 final structure:
================
128
 xtb: 6.5.1 (b24c23e)
Ni          12.83648952191672        0.02389909433323       -0.00365533270984
C            9.44967811282615        0.11900872786665        0.06928772294554
C           10.11361162446748        1.13749530572856       -0.58324309491781
C            9.45416074103325        2.20774052276063       -1.26581604516978
C           10.42160673123034        3.06503181244598       -1.67001773366112
C           11.67075342296231        2.52417748734962       -1.22151681019216
N           11.47448108630943        1.31851045138355       -0.59584776496780
C           12.89227263072801        3.17584919786903       -1.34998153980735
C           12.92055421124985        4.53743394312045       -1.93043914506009
C           13.66921058909955        4.80537040862117       -3.07938294984603
C           13.69988743376233        6.07566556884538       -3.62621521553856
C           12.98054841575631        7.11389139723362       -3.02851261414838
N           13.05002718565350        8.39672826130953       -3.54232611534568
C           12.23874672226051        6.85681954588062       -1.87256709709547
C           12.20541514622529        5.58116192487674       -1.33801755933196
C           14.08991894480541        2.59404600792704       -0.95302462295956
C           15.35704049932561        3.25716853324840       -1.00989603536413
C           16.29460186492081        2.34208280032700       -0.66319704814675
N           14.24737086056864        1.29616933504527       -0.52032525388310
C           15.59764267718291        1.12810579722907       -0.38269408780086
C           16.24211385305547       -0.07886313360451       -0.09436150748585
C           15.54341301137233       -1.24389328642909        0.23564631854864
C           16.18085944848796       -2.49496415161994        0.49334687044430
C           15.21051639609558       -3.34834313905299        0.90234750777274
C           13.98360254217736       -2.61130872702561        0.90312970043942
N           14.19476287646389       -1.32918097739020        0.44744792692998
C           12.77462126322266       -3.11880847554460        1.36314098220206
C           12.75021764099645       -4.47569672230469        1.95499582729829
C           13.52877857150358       -4.77767350468358        3.07515743152863
C           13.50728461119471       -6.04308819720778        3.63380564978287
C           12.71369229643821       -7.04540504647028        3.06967161286129
N           12.66029333579663       -8.30135295958795        3.64806799247975
C           11.92941427919573       -6.75050138398978        1.95136844529006
C           11.94875884870422       -5.47945439105419        1.40534848110759
C           11.58753553786599       -2.39931252585113        1.28356034830666
C           10.33057069082918       -2.86675415522237        1.78959159229394
C            9.39536352956709       -1.96101153313198        1.41679078709094
C           10.08329353771714       -0.93320725127372        0.69793771074252
N           11.43152108456138       -1.18893232796767        0.65545743524057
H            8.36646859954795        0.14868281715239        0.09164284678716
H            8.38730582139575        2.27697243851488       -1.40798492929727
H           10.31176047374490        3.98189695352161       -2.22619594584295
H           14.21680581390944        4.00113238794432       -3.55855661344854
H           14.27995906537193        6.26965124951292       -4.52182506638793
H           13.31092787816525        8.45410334574281       -4.51365416623249
H           12.28443078647264        9.00050147517001       -3.28902655567176
H           11.68977194363229        7.66177152557579       -1.39623797507679
H           11.63578794911048        5.39236986926279       -0.43461444953036
H           15.50123004350707        4.29175105077754       -1.27510622553237
H           17.36376609944520        2.46405268137617       -0.59797749511758
H           17.23605481005287       -2.68076016271343        0.37317535232873
H           15.30682451030821       -4.38674036100028        1.17465281139733
H           14.14109848515514       -4.00296116243066        3.52363222500130
H           14.10706067066549       -6.26208304545077        4.51046704946439
H           13.45774825739118       -8.54460867345986        4.21355400458764
H           12.35436565520434       -9.04045755021176        3.03577278728491
H           11.30904402085315       -7.52345556850680        1.51091199527743
H           11.35130361195622       -5.26369095863587        0.52626628203759
H           10.19409416374764       -3.77143876152738        2.35954782268299
H            8.33327261891241       -1.97009472011778        1.60402205537154
Ni          31.38542576881262       -0.01707163738671        0.01942943198745
C           34.77221186842189       -0.00668904668606        0.13847976619553
C           34.10911449579590       -1.11411723590401        0.62619162003156
C           34.76930910093363       -2.27444882662196        1.14001281448176
C           33.80241765424297       -3.08588751635742        1.63091974089332
C           32.55288547876610       -2.41360775144750        1.42897584374359
N           32.74835456146025       -1.22544535954335        0.77043312676132
C           31.33182945269365       -2.88115614333863        1.90196747605919
C           31.30424452887067       -4.11750686817888        2.71577064074433
C           30.55486298873441       -5.22285029767827        2.30469212409876
C           30.52426917846250       -6.38056190078691        3.06123257330978
C           31.24449981512863       -6.45644716191321        4.25626648648695
N           31.17502035956610       -7.59355293765702        5.04160979883108
C           31.98717392577556       -5.35133633810474        4.68018756766258
C           32.02036003005553       -4.20086162435542        3.91241349142146
C           30.13385916678940       -2.22882714575532        1.63774571601946
C           28.86729678778808       -2.64269470085721        2.16034097054742
C           27.92908557720327       -1.84825281036404        1.59004566682947
N           29.97545136981462       -1.15105601829877        0.79525527099971
C           28.62509115562858       -0.94361603829243        0.73247642936869
C           27.97969019006164       -0.03671396814570       -0.11392608811710
C           28.67760005607069        0.88176812445729       -0.90363030431584
C           28.03935733738539        1.78701347772341       -1.80422320202287
C           29.00918339003484        2.59937069059294       -2.29065942268922
C           30.23657148871506        2.19355492402490       -1.67636081731759
N           30.02622332970801        1.10574940779127       -0.85872395996937
C           31.44518208450161        2.85788323464807       -1.84581128626379
C           31.46905219429402        4.10067837544545       -2.65009734365037
C           30.68979327179433        5.20085594366337       -2.28341350428646
C           30.71142834503111        6.36571341332616       -3.02936010117920
C           31.50590812262464        6.44970297188133       -4.17581056659470
N           31.55964225534817        7.62590852818040       -4.90283750423291
C           32.29076932843317        5.35495627945029       -4.54745480388581
C           32.27125104370736        4.19749715188936       -3.78986623870908
C           32.63256604382694        2.39503921548391       -1.28983678523410
C           33.88898362754421        3.07612773790775       -1.39967356947997
C           34.82473830331310        2.26590395164867       -0.85027740680789
C           34.13771263096989        1.09831313793779       -0.39084649170837
N           32.78941907539959        1.20305891995795       -0.62769585065366
H           35.85541650245455       -0.00359461150432        0.17557103893786
H           35.83623615337587       -2.43067973903691        1.11865254234440
H           33.91286380144096       -4.05637876530976        2.08700706746327
H           30.00652339847908       -5.17749122031117        1.37006567279387
H           29.94361891641562       -7.23396257335135        2.72841074373539
H           30.91337085183467       -8.43462133813078        4.55279185413287
H           31.94120000018981       -7.71653491524963        5.68405261890036
H           32.53684677033779       -5.39941238467243        5.61385676262985
H           32.59055511509592       -3.34382218513135        4.25389068821163
H           28.72390339241780       -3.43530453360728        2.87636553471926
H           26.86006436615229       -1.86141663162398        1.72878018003657
H           26.98401747099551        1.78909251334714       -2.02480854219173
H           28.91220047634021        3.39959275316052       -3.00615424551577
H           30.07691764799687        5.14637303650270       -1.39031321711823
H           30.11115579392695        7.21716950721282       -2.72787422250371
H           30.76110693440391        8.23063629646021       -4.79489972660957
H           31.86744559724267        7.52398118772748       -5.85674907464533
H           32.91182862083539        5.41523536269327       -5.43455407510080
H           32.86917347998177        3.34579166790668       -4.09540946915578
H           34.02477162692572        4.05106900532100       -1.83894358347235
H           35.88666176621580        2.42794204466790       -0.75414704809477
C           17.64522301217676       -0.11526580447207       -0.13149825940558
C           18.86906203481266       -0.12839569848363       -0.16343382998242
C           20.21178051058522       -0.13437946436657       -0.18965023791530
C           21.44191927809175       -0.12392459417160       -0.20935058735512
C           22.78000130049315       -0.11030704310987       -0.21652832952431
C           24.01017317159527       -0.08919592828015       -0.21320353339118
C           25.35280895649001       -0.06776714362448       -0.19359874423544
C           26.57654661244156       -0.04786302346799       -0.16399086683783

          :  Hamiltonian                  GFN1-xTB          :
         :: total energy            -221.325561489781 Eh    ::
         :: gradient norm              0.000422058779 Eh/a0 ::
         :: HOMO-LUMO gap              1.174028995546 eV    ::
         :: SCC energy              -224.942211891850 Eh    ::
         :: repulsion energy           3.728148851959 Eh    ::

    * Orbital Energies and Occupations

         #    Occupation            Energy/Eh            Energy/eV
      -------------------------------------------------------------
         1        2.0000           -0.7791850             -21.2027
       ...           ...                  ...                  ...
       193        2.0000           -0.3969290             -10.8010
       194        2.0000           -0.3908226             -10.6348
       195        2.0000           -0.3908218             -10.6348
       196        2.0000           -0.3905684             -10.6279
       197        2.0000           -0.3905666             -10.6279
       198        2.0000           -0.3895756             -10.6009
       199        2.0000           -0.3895745             -10.6009
       200        2.0000           -0.3884778             -10.5710
       201        2.0000           -0.3884771             -10.5710
       202        2.0000           -0.3884232             -10.5695
       203        2.0000           -0.3884204             -10.5695
       204        2.0000           -0.3819166             -10.3925
       205        2.0000           -0.3756362             -10.2216 (HOMO)
       206                         -0.3324915              -9.0476 (LUMO)
       207                         -0.3234949              -8.8027
       208                         -0.3211394              -8.7386
       209                         -0.3211384              -8.7386
       210                         -0.3198731              -8.7042
       211                         -0.3198454              -8.7034
       212                         -0.2956555              -8.0452
       213                         -0.2939499              -7.9988
       214                         -0.2851752              -7.7600
       215                         -0.2691258              -7.3233
       216                         -0.2573975              -7.0041
       ...                                ...                  ...
       438                          1.6130958              43.8946
      -------------------------------------------------------------
                  HL-Gap            0.0431448 Eh            1.1740 eV

Wiberg/Mayer (AO) data.
largest (>0.10) Wiberg bond orders for each atom

     #   Z sym  total        # sym  WBO       # sym  WBO       # sym  WBO
 ---------------------------------------------------------------------------
     1  28 Ni   3.020 --    39 N    0.665     7 N    0.664    19 N    0.662
                            26 N    0.662
     2   6 C    3.932 --    38 C    1.363     3 C    1.363    40 H    0.970
     3   6 C    3.925 --     2 C    1.363     7 N    1.212     4 C    1.178
     4   6 C    3.959 --     5 C    1.644     3 C    1.178    41 H    0.975
     5   6 C    3.963 --     4 C    1.644     6 C    1.180    42 H    0.973
     6   6 C    3.918 --     8 C    1.317     7 N    1.222     5 C    1.180
     7   7 N    3.400 --     6 C    1.222     3 C    1.212     1 Ni   0.664
     8   6 C    3.939 --    16 C    1.326     6 C    1.317     9 C    1.034
     9   6 C    3.988 --    15 C    1.380    10 C    1.380     8 C    1.034
    10   6 C    3.988 --    11 C    1.470     9 C    1.380    43 H    0.973
    11   6 C    3.990 --    10 C    1.470    12 C    1.353    44 H    0.972
    12   6 C    3.952 --    14 C    1.353    11 C    1.353    13 N    1.117
    13   7 N    3.136 --    12 C    1.117    45 H    0.933    46 H    0.933
    14   6 C    3.989 --    15 C    1.469    12 C    1.353    47 H    0.972
    15   6 C    3.988 --    14 C    1.469     9 C    1.380    48 H    0.973
    16   6 C    3.914 --     8 C    1.326    19 N    1.204    17 C    1.186
    17   6 C    3.959 --    18 C    1.633    16 C    1.186    49 H    0.973
    18   6 C    3.961 --    17 C    1.633    20 C    1.194    50 H    0.973
    19   7 N    3.404 --    20 C    1.238    16 C    1.204     1 Ni   0.662
    20   6 C    3.904 --    21 C    1.260    19 N    1.238    18 C    1.194
    21   6 C    3.942 --    22 C    1.261    20 C    1.260   121 C    1.187
    22   6 C    3.904 --    21 C    1.261    26 N    1.238    23 C    1.194
    23   6 C    3.961 --    24 C    1.632    22 C    1.194    51 H    0.973
    24   6 C    3.959 --    23 C    1.632    25 C    1.186    52 H    0.973
    25   6 C    3.914 --    27 C    1.326    26 N    1.205    24 C    1.186
    26   7 N    3.404 --    22 C    1.238    25 C    1.205     1 Ni   0.662
    27   6 C    3.939 --    25 C    1.326    35 C    1.318    28 C    1.033
    28   6 C    3.988 --    34 C    1.380    29 C    1.380    27 C    1.033
    29   6 C    3.988 --    30 C    1.469    28 C    1.380    53 H    0.973
    30   6 C    3.990 --    29 C    1.469    31 C    1.353    54 H    0.972
    31   6 C    3.952 --    33 C    1.353    30 C    1.353    32 N    1.117
    32   7 N    3.135 --    31 C    1.117    56 H    0.933    55 H    0.933
    33   6 C    3.989 --    34 C    1.469    31 C    1.353    57 H    0.972
    34   6 C    3.988 --    33 C    1.469    28 C    1.380    58 H    0.973
    35   6 C    3.918 --    27 C    1.318    39 N    1.222    36 C    1.180
    36   6 C    3.963 --    37 C    1.645    35 C    1.180    59 H    0.973
    37   6 C    3.959 --    36 C    1.645    38 C    1.178    60 H    0.975
    38   6 C    3.925 --     2 C    1.363    39 N    1.212    37 C    1.178
    39   7 N    3.400 --    35 C    1.222    38 C    1.212     1 Ni   0.665
    40   1 H    1.001 --     2 C    0.970
    41   1 H    0.998 --     4 C    0.975
    42   1 H    1.005 --     5 C    0.973
    43   1 H    1.005 --    10 C    0.973
    44   1 H    0.998 --    11 C    0.972
    45   1 H    0.960 --    13 N    0.933
    46   1 H    0.960 --    13 N    0.933
    47   1 H    0.999 --    14 C    0.972
    48   1 H    1.005 --    15 C    0.973
    49   1 H    1.005 --    17 C    0.973
    50   1 H    1.002 --    18 C    0.973
    51   1 H    1.002 --    23 C    0.973
    52   1 H    1.005 --    24 C    0.973
    53   1 H    1.005 --    29 C    0.973
    54   1 H    0.998 --    30 C    0.972
    55   1 H    0.960 --    32 N    0.933
    56   1 H    0.960 --    32 N    0.933
    57   1 H    0.999 --    33 C    0.972
    58   1 H    1.005 --    34 C    0.973
    59   1 H    1.005 --    36 C    0.973
    60   1 H    0.998 --    37 C    0.975
    61  28 Ni   3.020 --    99 N    0.665    67 N    0.664    79 N    0.662
                            86 N    0.662
    62   6 C    3.932 --    98 C    1.363    63 C    1.363   100 H    0.970
    63   6 C    3.925 --    62 C    1.363    67 N    1.212    64 C    1.178
    64   6 C    3.959 --    65 C    1.644    63 C    1.178   101 H    0.975
    65   6 C    3.963 --    64 C    1.644    66 C    1.180   102 H    0.973
    66   6 C    3.918 --    68 C    1.318    67 N    1.222    65 C    1.180
    67   7 N    3.400 --    66 C    1.222    63 C    1.212    61 Ni   0.664
    68   6 C    3.939 --    76 C    1.326    66 C    1.318    69 C    1.034
    69   6 C    3.988 --    75 C    1.380    70 C    1.379    68 C    1.034
    70   6 C    3.988 --    71 C    1.470    69 C    1.379   103 H    0.973
    71   6 C    3.990 --    70 C    1.470    72 C    1.353   104 H    0.972
    72   6 C    3.952 --    74 C    1.353    71 C    1.353    73 N    1.117
    73   7 N    3.135 --    72 C    1.117   105 H    0.933   106 H    0.933
    74   6 C    3.989 --    75 C    1.469    72 C    1.353   107 H    0.972
    75   6 C    3.988 --    74 C    1.469    69 C    1.380   108 H    0.973
    76   6 C    3.914 --    68 C    1.326    79 N    1.204    77 C    1.186
    77   6 C    3.959 --    78 C    1.633    76 C    1.186   109 H    0.973
    78   6 C    3.961 --    77 C    1.633    80 C    1.194   110 H    0.973
    79   7 N    3.404 --    80 C    1.238    76 C    1.204    61 Ni   0.662
    80   6 C    3.904 --    81 C    1.260    79 N    1.238    78 C    1.194
    81   6 C    3.942 --    82 C    1.261    80 C    1.260   128 C    1.187
    82   6 C    3.904 --    81 C    1.261    86 N    1.238    83 C    1.194
    83   6 C    3.961 --    84 C    1.632    82 C    1.194   111 H    0.973
    84   6 C    3.959 --    83 C    1.632    85 C    1.186   112 H    0.973
    85   6 C    3.914 --    87 C    1.326    86 N    1.205    84 C    1.186
    86   7 N    3.404 --    82 C    1.238    85 C    1.205    61 Ni   0.662
    87   6 C    3.939 --    85 C    1.326    95 C    1.318    88 C    1.034
    88   6 C    3.988 --    94 C    1.380    89 C    1.380    87 C    1.034
    89   6 C    3.988 --    90 C    1.469    88 C    1.380   113 H    0.973
    90   6 C    3.990 --    89 C    1.469    91 C    1.353   114 H    0.972
    91   6 C    3.952 --    93 C    1.353    90 C    1.353    92 N    1.117
    92   7 N    3.135 --    91 C    1.117   116 H    0.933   115 H    0.933
    93   6 C    3.989 --    94 C    1.469    91 C    1.353   117 H    0.972
    94   6 C    3.988 --    93 C    1.469    88 C    1.380   118 H    0.973
    95   6 C    3.918 --    87 C    1.318    99 N    1.222    96 C    1.180
    96   6 C    3.963 --    97 C    1.645    95 C    1.180   119 H    0.973
    97   6 C    3.959 --    96 C    1.645    98 C    1.178   120 H    0.975
    98   6 C    3.925 --    62 C    1.363    99 N    1.211    97 C    1.178
    99   7 N    3.400 --    95 C    1.222    98 C    1.211    61 Ni   0.665
   100   1 H    1.001 --    62 C    0.970
   101   1 H    0.998 --    64 C    0.975
   102   1 H    1.005 --    65 C    0.973
   103   1 H    1.005 --    70 C    0.973
   104   1 H    0.998 --    71 C    0.972
   105   1 H    0.960 --    73 N    0.933
   106   1 H    0.960 --    73 N    0.933
   107   1 H    0.999 --    74 C    0.972
   108   1 H    1.005 --    75 C    0.973
   109   1 H    1.005 --    77 C    0.973
   110   1 H    1.002 --    78 C    0.973
   111   1 H    1.002 --    83 C    0.973
   112   1 H    1.005 --    84 C    0.973
   113   1 H    1.005 --    89 C    0.973
   114   1 H    0.998 --    90 C    0.972
   115   1 H    0.960 --    92 N    0.933
   116   1 H    0.960 --    92 N    0.933
   117   1 H    0.999 --    93 C    0.972
   118   1 H    1.005 --    94 C    0.973
   119   1 H    1.005 --    96 C    0.973
   120   1 H    0.998 --    97 C    0.975
   121   6 C    3.877 --   122 C    2.443    21 C    1.187   124 C    0.187
   122   6 C    3.937 --   121 C    2.443   123 C    1.342
   123   6 C    3.894 --   124 C    2.340   122 C    1.342   126 C    0.183
   124   6 C    3.927 --   123 C    2.340   125 C    1.367   121 C    0.187
   125   6 C    3.927 --   126 C    2.340   124 C    1.367   128 C    0.187
   126   6 C    3.894 --   125 C    2.340   127 C    1.342   123 C    0.183
   127   6 C    3.937 --   128 C    2.443   126 C    1.342
   128   6 C    3.877 --   127 C    2.443    81 C    1.187   125 C    0.187
 ---------------------------------------------------------------------------

           -------------------------------------------------
          | TOTAL ENERGY             -221.325561489781 Eh   |
          | GRADIENT NORM               0.000422058779 Eh/α |
          | HOMO-LUMO GAP               1.174028995546 eV   |
           -------------------------------------------------

 * finished run on 2022/07/30 at 04:32:35.565
