   * xtb version 6.5.1 (b24c23e) compiled by 'conda@728c89f4b128' on 2022-07-12
          program call               : xtb Ph_C4_3.xyz --gfn 1 --opt -T 48

   ID    Z sym.   atoms
    1    6 C      1-5, 7-10, 12-28, 31-36, 58-62, 64-67, 69-85, 88-93,
                  115-127, 129-132, 134-150, 153-158
    2    7 N      6, 11, 29, 30, 63, 68, 86, 87, 128, 133, 151, 152
    3    1 H      37-57, 94-114, 159-178

          :  Hamiltonian                  GFN1-xTB          :
 * total energy  :  -289.9549906 Eh     change       -0.2674653E-08 Eh
 * total energy  :  -290.6599604 Eh     change       -0.7049697E+00 Eh
 * total energy  :  -290.8482095 Eh     change       -0.1882491E+00 Eh
 * total energy  :  -290.9509980 Eh     change       -0.1027884E+00 Eh
 * total energy  :  -291.0165160 Eh     change       -0.6551808E-01 Eh
 * total energy  :  -291.0693761 Eh     change       -0.5286002E-01 Eh
 * total energy  :  -291.1008443 Eh     change       -0.3146823E-01 Eh
 * total energy  :  -291.1238022 Eh     change       -0.2295788E-01 Eh
 * total energy  :  -291.1422249 Eh     change       -0.1842272E-01 Eh
 * total energy  :  -291.1595974 Eh     change       -0.1737248E-01 Eh
 * total energy  :  -291.2408378 Eh     change       -0.5443349E-05 Eh
 * total energy  :  -291.2408448 Eh     change       -0.6974854E-05 Eh
 * total energy  :  -291.2408539 Eh     change       -0.9144820E-05 Eh
 * total energy  :  -291.2408643 Eh     change       -0.1032616E-04 Eh
 * total energy  :  -291.2408640 Eh     change        0.2336117E-06 Eh
 * total energy  :  -291.2408677 Eh     change       -0.3718914E-05 Eh
 * total energy  :  -291.2408561 Eh     change        0.1163300E-04 Eh
 * total energy  :  -291.2408717 Eh     change       -0.1559974E-04 Eh
 * total energy  :  -291.2408724 Eh     change       -0.7113330E-06 Eh
   *** GEOMETRY OPTIMIZATION CONVERGED AFTER 72 ITERATIONS ***

 final structure:
================
178
 xtb: 6.5.1 (b24c23e)
C           25.23571380785771       -0.05780430227523        0.05539518570693
C           25.84729586947817       -1.14350974268376        0.66872957274791
C           25.19827064588910       -2.25927395800280        1.26832521942413
C           26.16244677904832       -3.09299033836236        1.76070527413219
C           27.43202952223833       -2.50902008700924        1.48561282396078
N           27.19089477934240       -1.34116440178743        0.81895665458309
C           28.69563502773407       -3.01923923584466        1.80292818359996
C           29.91021839288096       -2.41749646284785        1.46486303804004
C           31.20892536978817       -2.94094720807420        1.84964371117204
C           32.12811421348639       -2.09272719028276        1.34435552962669
N           30.06229086783114       -1.26420583705746        0.75816151764064
C           31.39004799029472       -1.04682709759489        0.66253188908411
C           32.02372618117225        0.03143147829330        0.01444987148345
C           31.38751037690321        1.11027018651382       -0.62579739001485
C           32.03040031327761        2.18105944364026       -1.30246750876498
C           31.06217371227092        3.01365581662726       -1.79086697688232
C           29.79652166204362        2.48102921733633       -1.41870002699568
C           28.53373949231864        3.00083833179453       -1.72031866034010
C           28.49822036287808        4.27381213315733       -2.48140398021965
C           27.90181062729622        4.32421998006957       -3.74226277446607
C           27.87169457903678        5.51213243581254       -4.45689135990963
C           28.43123017174164        6.66399853823372       -3.92063207872015
C           29.02396571417961        6.62274013571304       -2.66597805085599
C           29.06085054340996        5.43527901339186       -1.95041934737027
C           27.31852488007778        2.40795468322384       -1.36208322671397
C           26.01337820338464        2.98927305772302       -1.63562315504475
C           25.10067760736906        2.13046924714010       -1.13845017706341
C           25.84703794827939        1.03043855438338       -0.55339544670474
N           27.17905454540709        1.23548764977559       -0.69921481641646
N           30.04540645144034        1.32813136929382       -0.72180594259871
C           28.72759644210338       -4.29535693832410        2.55965832297699
C           28.15203671414960       -4.37859649852786        3.82832638545518
C           28.18446563575381       -5.57051853210207        4.53651577552705
C           28.78617770848894       -6.69371081911390        3.98556751429771
C           29.35801279324817       -6.61986040410228        2.72265024659137
C           29.33160139624272       -5.42858256684523        2.01329939937508
H           24.15037578629468       -0.06906017383690        0.05762166034171
H           24.12938255848926       -2.39701968812803        1.30593148155261
H           26.01390300101999       -4.03519734647213        2.26288577790109
H           27.91469982534519       -0.71577502378362        0.48099510844052
H           31.37289113835405       -3.82901297185996        2.43821654500509
H           33.20260051650694       -2.14179496525610        1.42011796846634
H           33.09847016860737        2.28740635405948       -1.40371393576517
H           31.20776330944773        3.91277763918712       -2.36709232534170
H           27.47591316872460        3.42245100269252       -4.16790370122573
H           27.41030376620816        5.53814972715425       -5.43788855851039
H           28.40509439263321        7.59253121903711       -4.47959274510327
H           29.45911511649006        7.52050424686974       -2.24096831455536
H           29.51200137770070        5.40886729857393       -0.96464412102760
H           25.84436337626083        3.93285580458650       -2.12910507180887
H           24.02478086692964        2.20969860144473       -1.14436472548815
H           29.32406765496683        0.72215446208078       -0.34484827400089
H           27.69426260722976       -3.49863396717399        4.26668256370557
H           27.73914401861251       -5.62170545534374        5.52395422511899
H           28.80963666488628       -7.62515055795993        4.53979316331670
H           29.82670670348026       -7.49516838653412        2.28669917433390
H           29.76747781615357       -5.37615850085931        1.02186404502432
C           58.88459429489385        0.06529108479394       -0.03277303354713
C           58.26908364755684        1.09485162688195       -0.73286047936750
C           58.91329190831988        2.12562804285135       -1.47324216650729
C           57.94591964658277        2.93995911443343       -1.99121651658758
C           56.67928844109259        2.43905931296771       -1.57496522028872
N           56.92504768936388        1.32057502823250       -0.82990465191793
C           55.41394034666078        2.96112329914653       -1.86486911201520
C           54.20267513298444        2.39741273623712       -1.45634959582807
C           52.90415836364330        2.99498623729732       -1.71159306710492
C           51.98763592094064        2.15921698016576       -1.18106543253600
N           54.05388032038838        1.23514791900591       -0.76384181503838
C           52.72742633337555        1.05773730077933       -0.59560912614456
C           52.09660282214630       -0.03686149653543        0.02806688285491
C           52.73738867825485       -1.11989164538566        0.65686659042406
C           52.10013836896010       -2.23113965840264        1.27029123697089
C           53.07158344400711       -3.03868813595280        1.79359449640400
C           54.33329262210778       -2.44019552475953        1.52199618873105
C           55.59732316085022       -2.92466511257020        1.87411870511349
C           55.63650189559971       -4.17504867460229        2.67110060194008
C           56.27212582745481       -5.31271665121939        2.17138413577561
C           56.30793725244111       -6.48090431240356        2.91763733979949
C           55.71475938179159       -6.52689347337580        4.17201873797545
C           55.08194581535377       -5.39913458796562        4.67694827128372
C           55.03947389479368       -4.23053610363936        3.93145939010440
C           56.80998938972620       -2.31850529673088        1.52959228563662
C           58.11588213746585       -2.80565598101594        1.94622686535501
C           59.02568215021405       -1.96943773145661        1.40697752138186
C           58.27658061218803       -0.96527927852586        0.67224165470055
N           56.94579345461669       -1.20056793537982        0.77756624893458
N           54.07957922026119       -1.28952290873824        0.82338306967375
C           55.37465847437250        4.20785742908908       -2.66839989801078
C           55.97461923539819        5.37573760781988       -2.19543434500056
C           55.93639554023341        6.53891070992123       -2.94971838142908
C           55.30442639054538        6.54919936227985       -4.18571231451330
C           54.70724047459415        5.39083270860358       -4.66424919583304
C           54.73927290062366        4.22711650951650       -3.91091209759311
H           59.96988870577290        0.07573484055873       -0.04231846428872
H           59.98124082935319        2.21717966742769       -1.59161463533543
H           58.09052334638199        3.80779638153479       -2.61406504477232
H           56.20399838353570        0.74189133660262       -0.41227577407990
H           52.73911252040698        3.93339778284235       -2.21572239039052
H           50.91410272490733        2.25916397559677       -1.16732784706767
H           51.03350931633521       -2.38560766481294        1.29893541127393
H           52.93082828588840       -3.97181367934865        2.31431278511908
H           56.72446716048064       -5.28259956225882        1.18639011184550
H           56.80056988996955       -7.36003710686771        2.51719331569076
H           55.74585483362349       -7.44016020625821        4.75534411362838
H           54.62004504322205       -5.42856645993343        5.65763120953439
H           54.55720618730982       -3.34663865930227        4.33413461263827
H           58.28747657672833       -3.66382477772366        2.57592350711581
H           60.10107895911676       -1.99773222939204        1.48812697723568
H           54.79748292346815       -0.65987743143770        0.48021033947980
H           56.45606087403381        5.37412477943169       -1.22371728646866
H           56.40099044899705        7.44197263169629       -2.56946455672069
H           55.27702671934878        7.45876018354557       -4.77498493583077
H           54.21465049172451        5.39286032731609       -5.63029869014296
H           54.28340462162901        3.31997261227487       -4.29168389743262
C           34.65362954332166        0.05088105010834       -0.01724625145669
C           33.43232987303331        0.04334526946122       -0.00050309005485
C           36.00488538169731        0.05265311569126       -0.02999993129868
C           37.22626957073678        0.04456808825482       -0.04398098091923
C           48.11623829429764       -0.07290772289580        0.00997835076524
C           46.89474367004888       -0.06463570625634       -0.01148279737672
C           49.46712395886349       -0.07065651330447        0.02487042532742
C           50.68861615762696       -0.06014660412349        0.02873309639613
C           38.63409743451242        0.03592442548671       -0.05344259876479
C           39.26928231152733        1.20325083486534        0.40844337889278
C           38.63016013244526        2.36780250481046        0.90838650123448
C           39.60206776243788        3.26936292030856        1.24561916804447
C           40.86426860506516        2.68406446940482        0.95249317160259
N           40.61211792102358        1.43263664618468        0.45727306022069
C           42.12822038984402        3.25447526659194        1.14230408059767
C           43.34727885190605        2.62582161341417        0.88174354019797
C           44.63845280892443        3.27364710718231        1.02974579270153
C           45.56821222978063        2.35263324776750        0.70233322974734
N           43.51321055689208        1.34531012642968        0.45175365536204
C           44.84369362049424        1.14790835436083        0.34800820843392
C           45.48745190877661       -0.04842374874230       -0.02338705561149
C           44.85091956102823       -1.23961018294425       -0.41811360789104
C           45.48835451561560       -2.45344337566776       -0.78477754222790
C           44.51657150080673       -3.34834810108095       -1.14015246746348
C           43.25648976127203       -2.70353864578533       -1.00682620432724
C           41.99390266449863       -3.24908207992302       -1.26713345220688
C           41.97039198266266       -4.63299983296720       -1.80377153084399
C           42.56689441212881       -4.92324627898434       -3.03161647255546
C           42.53983996777128       -6.21454811336721       -3.53658448557300
C           41.92320421889965       -7.23133933249117       -2.82030809910609
C           41.33111367874344       -6.95128319539781       -1.59624065392276
C           41.35165892008301       -5.66028287750406       -1.09026425148453
C           40.77463933748987       -2.59974486127013       -1.06594623427118
C           39.48419112534646       -3.18231521306603       -1.38897036661037
C           38.55434767631052       -2.26926535495897       -1.04049975453498
C           39.27831456526977       -1.12635696514693       -0.51936543892240
N           40.60824412648484       -1.34895878593951       -0.55560425676274
N           43.50900789656799       -1.43568858393846       -0.55580568814415
C           42.15595038304757        4.64114496149631        1.67142906279827
C           41.57970603621087        5.68836023230974        0.95138784283585
C           41.60789529495308        6.98166188244588        1.45148851666433
C           42.20526466112337        7.24372895544817        2.67689449412408
C           42.77856993533634        6.20669878838768        3.40027678596489
C           42.75724121633475        4.91320210817931        2.90113561680682
H           37.56287935409154        2.48880030231782        1.00066626344639
H           39.45992817651792        4.25016576741806        1.66918169039612
H           41.32769580987365        0.77043286432832        0.17684284476856
H           44.78999702394537        4.29787942249299        1.32965819187409
H           46.64150722483593        2.45488256414113        0.68733309707014
H           46.55446751360042       -2.61324775692780       -0.77248123841989
H           44.65705981638062       -4.36843234345613       -1.45845490299758
H           43.03702868564206       -4.12761356486192       -3.59902140467118
H           43.00041623857832       -6.42699023274213       -4.49506621664183
H           41.90370432973281       -8.24054072605256       -3.21581497244347
H           40.85150143617285       -7.74282667205536       -1.03117438575729
H           40.89967179317949       -5.44563580056142       -0.12834568407338
H           39.33272646891049       -4.15269631952186       -1.83319303824751
H           37.48151890312436       -2.33328081020535       -1.12772421752619
H           42.79438006354746       -0.74415044779277       -0.35498763160707
H           41.12433259769428        5.48815730040996       -0.01220771831853
H           41.16207942054858        7.78876888774900        0.88073908800940
H           42.22432311212723        8.25484672991405        3.06748452807451
H           43.24403643485358        6.40557477216079        4.35926330473175
H           43.19482598035029        4.10217395790182        3.47249786394652

          :  Hamiltonian                  GFN1-xTB          :
         :: total energy            -291.240872416434 Eh    ::
         :: gradient norm              0.000814258958 Eh/a0 ::
         :: HOMO-LUMO gap              0.955478722940 eV    ::
         :: SCC energy              -296.255643545752 Eh    ::
         :: repulsion energy           5.166806879407 Eh    ::

    * Orbital Energies and Occupations

         #    Occupation            Energy/Eh            Energy/eV
      -------------------------------------------------------------
         1        2.0000           -0.8039474             -21.8765
       ...           ...                  ...                  ...
       257        2.0000           -0.4170389             -11.3482
       258        2.0000           -0.4163868             -11.3305
       259        2.0000           -0.4158213             -11.3151
       260        2.0000           -0.4155969             -11.3090
       261        2.0000           -0.4142344             -11.2719
       262        2.0000           -0.4141448             -11.2695
       263        2.0000           -0.4139327             -11.2637
       264        2.0000           -0.3984977             -10.8437
       265        2.0000           -0.3978047             -10.8248
       266        2.0000           -0.3977722             -10.8239
       267        2.0000           -0.3860300             -10.5044
       268        2.0000           -0.3820267             -10.3955
       269        2.0000           -0.3765281             -10.2459 (HOMO)
       270                         -0.3414149              -9.2904 (LUMO)
       271                         -0.3341480              -9.0926
       272                         -0.3306534              -8.9975
       273                         -0.3301121              -8.9828
       274                         -0.3298948              -8.9769
       275                         -0.3289592              -8.9514
       276                         -0.3022422              -8.2244
       277                         -0.2959070              -8.0520
       278                         -0.2944159              -8.0115
       279                         -0.2648374              -7.2066
       280                         -0.2648241              -7.2062
       ...                                ...                  ...
       588                          1.5168500              41.2756
      -------------------------------------------------------------
                  HL-Gap            0.0351132 Eh            0.9555 eV

Wiberg/Mayer (AO) data.
largest (>0.10) Wiberg bond orders for each atom

     #   Z sym  total        # sym  WBO       # sym  WBO       # sym  WBO
 ---------------------------------------------------------------------------
     1   6 C    3.927 --    28 C    1.366     2 C    1.347    37 H    0.971
     2   6 C    3.903 --     1 C    1.347     3 C    1.229     6 N    1.170
     3   6 C    3.954 --     4 C    1.595     2 C    1.229    38 H    0.977
     4   6 C    3.959 --     3 C    1.595     5 C    1.234    39 H    0.974
     5   6 C    3.897 --     7 C    1.304     4 C    1.234     6 N    1.177
     6   7 N    3.470 --     5 C    1.177     2 C    1.170    40 H    0.873
     7   6 C    3.940 --     8 C    1.335     5 C    1.304    31 C    1.028
     8   6 C    3.916 --     7 C    1.335    11 N    1.288     9 C    1.124
     9   6 C    3.967 --    10 C    1.711     8 C    1.124    41 H    0.974
    10   6 C    3.965 --     9 C    1.711    12 C    1.127    42 H    0.974
    11   7 N    3.023 --    12 C    1.341     8 C    1.288
    12   6 C    3.912 --    11 N    1.341    13 C    1.260    10 C    1.127
    13   6 C    3.938 --    12 C    1.260    14 C    1.257   116 C    1.178
    14   6 C    3.888 --    13 C    1.257    15 C    1.247    30 N    1.188
    15   6 C    3.959 --    16 C    1.585    14 C    1.247    43 H    0.975
    16   6 C    3.956 --    15 C    1.585    17 C    1.240    44 H    0.974
    17   6 C    3.899 --    18 C    1.311    16 C    1.240    30 N    1.165
    18   6 C    3.927 --    25 C    1.321    17 C    1.311    19 C    1.029
    19   6 C    3.988 --    24 C    1.395    20 C    1.394    18 C    1.029
                            22 C    0.108
    20   6 C    3.987 --    21 C    1.448    19 C    1.394    45 H    0.973
                            23 C    0.110
    21   6 C    3.995 --    20 C    1.448    22 C    1.437    46 H    0.973
                            24 C    0.109
    22   6 C    3.989 --    23 C    1.438    21 C    1.437    47 H    0.974
                            19 C    0.108
    23   6 C    3.995 --    24 C    1.447    22 C    1.438    48 H    0.973
                            20 C    0.110
    24   6 C    3.987 --    23 C    1.447    19 C    1.395    49 H    0.973
                            21 C    0.109
    25   6 C    3.929 --    18 C    1.321    29 N    1.317    26 C    1.118
    26   6 C    3.967 --    27 C    1.722    25 C    1.118    50 H    0.974
    27   6 C    3.966 --    26 C    1.722    28 C    1.117    51 H    0.976
    28   6 C    3.929 --     1 C    1.366    29 N    1.300    27 C    1.117
    29   7 N    3.014 --    25 C    1.317    28 C    1.300
    30   7 N    3.474 --    14 C    1.188    17 C    1.165    52 H    0.873
    31   6 C    3.989 --    32 C    1.395    36 C    1.395     7 C    1.028
                            34 C    0.108
    32   6 C    3.987 --    33 C    1.447    31 C    1.395    53 H    0.973
                            35 C    0.109
    33   6 C    3.995 --    32 C    1.447    34 C    1.438    54 H    0.973
                            36 C    0.110
    34   6 C    3.990 --    33 C    1.438    35 C    1.437    55 H    0.974
                            31 C    0.108
    35   6 C    3.995 --    36 C    1.448    34 C    1.437    56 H    0.973
                            32 C    0.109
    36   6 C    3.988 --    35 C    1.448    31 C    1.395    57 H    0.973
                            33 C    0.110
    37   1 H    1.002 --     1 C    0.971
    38   1 H    0.998 --     3 C    0.977
    39   1 H    1.005 --     4 C    0.974
    40   1 H    0.986 --     6 N    0.873
    41   1 H    1.005 --     9 C    0.974
    42   1 H    1.003 --    10 C    0.974
    43   1 H    1.002 --    15 C    0.975
    44   1 H    1.005 --    16 C    0.974
    45   1 H    1.005 --    20 C    0.973
    46   1 H    1.003 --    21 C    0.973
    47   1 H    1.003 --    22 C    0.974
    48   1 H    1.003 --    23 C    0.973
    49   1 H    1.005 --    24 C    0.973
    50   1 H    1.005 --    26 C    0.974
    51   1 H    0.998 --    27 C    0.976
    52   1 H    0.987 --    30 N    0.873
    53   1 H    1.005 --    32 C    0.973
    54   1 H    1.003 --    33 C    0.973
    55   1 H    1.003 --    34 C    0.974
    56   1 H    1.003 --    35 C    0.973
    57   1 H    1.005 --    36 C    0.973
    58   6 C    3.926 --    85 C    1.366    59 C    1.347    94 H    0.971
    59   6 C    3.903 --    58 C    1.347    60 C    1.229    63 N    1.170
    60   6 C    3.954 --    61 C    1.595    59 C    1.229    95 H    0.977
    61   6 C    3.959 --    60 C    1.595    62 C    1.234    96 H    0.974
    62   6 C    3.897 --    64 C    1.304    61 C    1.234    63 N    1.176
    63   7 N    3.470 --    62 C    1.176    59 C    1.170    97 H    0.873
    64   6 C    3.940 --    65 C    1.334    62 C    1.304    88 C    1.029
    65   6 C    3.916 --    64 C    1.334    68 N    1.288    66 C    1.125
    66   6 C    3.966 --    67 C    1.710    65 C    1.125    98 H    0.974
    67   6 C    3.964 --    66 C    1.710    69 C    1.128    99 H    0.974
    68   7 N    3.023 --    69 C    1.341    65 C    1.288
    69   6 C    3.911 --    68 N    1.341    70 C    1.259    67 C    1.128
    70   6 C    3.937 --    69 C    1.259    71 C    1.256   122 C    1.180
    71   6 C    3.888 --    70 C    1.256    72 C    1.248    87 N    1.188
    72   6 C    3.959 --    73 C    1.584    71 C    1.248   100 H    0.975
    73   6 C    3.956 --    72 C    1.584    74 C    1.240   101 H    0.974
    74   6 C    3.899 --    75 C    1.310    73 C    1.240    87 N    1.165
    75   6 C    3.927 --    82 C    1.321    74 C    1.310    76 C    1.030
    76   6 C    3.988 --    81 C    1.395    77 C    1.394    75 C    1.030
                            79 C    0.108
    77   6 C    3.987 --    78 C    1.448    76 C    1.394   102 H    0.973
                            80 C    0.109
    78   6 C    3.995 --    77 C    1.448    79 C    1.437   103 H    0.973
                            81 C    0.109
    79   6 C    3.989 --    80 C    1.438    78 C    1.437   104 H    0.974
                            76 C    0.108
    80   6 C    3.995 --    81 C    1.447    79 C    1.438   105 H    0.973
                            77 C    0.109
    81   6 C    3.987 --    80 C    1.447    76 C    1.395   106 H    0.973
                            78 C    0.109
    82   6 C    3.929 --    75 C    1.321    86 N    1.317    83 C    1.118
    83   6 C    3.967 --    84 C    1.722    82 C    1.118   107 H    0.974
    84   6 C    3.966 --    83 C    1.722    85 C    1.117   108 H    0.976
    85   6 C    3.929 --    58 C    1.366    86 N    1.301    84 C    1.117
    86   7 N    3.014 --    82 C    1.317    85 C    1.301
    87   7 N    3.474 --    71 C    1.188    74 C    1.165   109 H    0.873
    88   6 C    3.989 --    89 C    1.395    93 C    1.394    64 C    1.029
                            91 C    0.108
    89   6 C    3.987 --    90 C    1.447    88 C    1.395   110 H    0.973
                            92 C    0.109
    90   6 C    3.995 --    89 C    1.447    91 C    1.438   111 H    0.973
                            93 C    0.110
    91   6 C    3.989 --    90 C    1.438    92 C    1.437   112 H    0.974
                            88 C    0.108
    92   6 C    3.995 --    93 C    1.448    91 C    1.437   113 H    0.973
                            89 C    0.109
    93   6 C    3.988 --    92 C    1.448    88 C    1.394   114 H    0.973
                            90 C    0.110
    94   1 H    1.002 --    58 C    0.971
    95   1 H    0.998 --    60 C    0.977
    96   1 H    1.005 --    61 C    0.974
    97   1 H    0.986 --    63 N    0.873
    98   1 H    1.005 --    66 C    0.974
    99   1 H    1.003 --    67 C    0.974
   100   1 H    1.002 --    72 C    0.975
   101   1 H    1.005 --    73 C    0.974
   102   1 H    1.005 --    77 C    0.973
   103   1 H    1.003 --    78 C    0.973
   104   1 H    1.003 --    79 C    0.974
   105   1 H    1.003 --    80 C    0.973
   106   1 H    1.005 --    81 C    0.973
   107   1 H    1.005 --    83 C    0.974
   108   1 H    0.998 --    84 C    0.976
   109   1 H    0.987 --    87 N    0.873
   110   1 H    1.005 --    89 C    0.973
   111   1 H    1.003 --    90 C    0.973
   112   1 H    1.003 --    91 C    0.974
   113   1 H    1.003 --    92 C    0.973
   114   1 H    1.005 --    93 C    0.973
   115   6 C    3.931 --   116 C    2.484   117 C    1.299
   116   6 C    3.920 --   115 C    2.484    13 C    1.178   118 C    0.197
   117   6 C    3.929 --   118 C    2.483   115 C    1.299
   118   6 C    3.921 --   117 C    2.483   123 C    1.180   116 C    0.197
   119   6 C    3.929 --   120 C    2.481   121 C    1.301
   120   6 C    3.921 --   119 C    2.481   135 C    1.182   122 C    0.197
   121   6 C    3.931 --   122 C    2.482   119 C    1.301
   122   6 C    3.920 --   121 C    2.482    70 C    1.180   120 C    0.197
   123   6 C    3.926 --   150 C    1.260   124 C    1.253   118 C    1.180
   124   6 C    3.889 --   123 C    1.253   125 C    1.251   128 N    1.188
   125   6 C    3.956 --   126 C    1.580   124 C    1.251   159 H    0.975
   126   6 C    3.957 --   125 C    1.580   127 C    1.244   160 H    0.974
   127   6 C    3.894 --   129 C    1.302   126 C    1.244   128 N    1.166
   128   7 N    3.471 --   124 C    1.188   127 C    1.166   161 H    0.874
   129   6 C    3.929 --   130 C    1.336   127 C    1.302   153 C    1.027
   130   6 C    3.917 --   129 C    1.336   133 N    1.287   131 C    1.125
   131   6 C    3.967 --   132 C    1.710   130 C    1.125   162 H    0.974
   132   6 C    3.964 --   131 C    1.710   134 C    1.129   163 H    0.974
   133   7 N    3.012 --   134 C    1.340   130 C    1.287
   134   6 C    3.912 --   133 N    1.340   135 C    1.259   132 C    1.129
   135   6 C    3.926 --   134 C    1.259   136 C    1.252   120 C    1.182
   136   6 C    3.888 --   135 C    1.252   137 C    1.251   152 N    1.188
   137   6 C    3.956 --   138 C    1.579   136 C    1.251   164 H    0.975
   138   6 C    3.956 --   137 C    1.579   139 C    1.245   165 H    0.974
   139   6 C    3.894 --   140 C    1.301   138 C    1.245   152 N    1.167
   140   6 C    3.929 --   147 C    1.337   139 C    1.301   141 C    1.027
   141   6 C    3.988 --   142 C    1.395   146 C    1.395   140 C    1.027
                           144 C    0.108
   142   6 C    3.987 --   143 C    1.447   141 C    1.395   166 H    0.973
                           145 C    0.110
   143   6 C    3.995 --   142 C    1.447   144 C    1.438   167 H    0.973
                           146 C    0.110
   144   6 C    3.990 --   143 C    1.438   145 C    1.438   168 H    0.974
                           141 C    0.108
   145   6 C    3.995 --   146 C    1.447   144 C    1.438   169 H    0.973
                           142 C    0.110
   146   6 C    3.988 --   145 C    1.447   141 C    1.395   170 H    0.973
                           143 C    0.110
   147   6 C    3.918 --   140 C    1.337   151 N    1.287   148 C    1.124
   148   6 C    3.967 --   149 C    1.711   147 C    1.124   171 H    0.974
   149   6 C    3.965 --   148 C    1.711   150 C    1.128   172 H    0.974
   150   6 C    3.912 --   151 N    1.340   123 C    1.260   149 C    1.128
   151   7 N    3.012 --   150 C    1.340   147 C    1.287
   152   7 N    3.472 --   136 C    1.188   139 C    1.167   173 H    0.874
   153   6 C    3.988 --   154 C    1.396   158 C    1.395   129 C    1.027
                           156 C    0.108
   154   6 C    3.987 --   155 C    1.447   153 C    1.396   174 H    0.973
                           157 C    0.109
   155   6 C    3.995 --   154 C    1.447   156 C    1.438   175 H    0.973
                           158 C    0.110
   156   6 C    3.990 --   155 C    1.438   157 C    1.437   176 H    0.974
                           153 C    0.108
   157   6 C    3.995 --   158 C    1.448   156 C    1.437   177 H    0.973
                           154 C    0.109
   158   6 C    3.988 --   157 C    1.448   153 C    1.395   178 H    0.973
                           155 C    0.110
   159   1 H    1.002 --   125 C    0.975
   160   1 H    1.005 --   126 C    0.974
   161   1 H    0.987 --   128 N    0.874
   162   1 H    1.005 --   131 C    0.974
   163   1 H    1.003 --   132 C    0.974
   164   1 H    1.002 --   137 C    0.975
   165   1 H    1.005 --   138 C    0.974
   166   1 H    1.005 --   142 C    0.973
   167   1 H    1.003 --   143 C    0.973
   168   1 H    1.003 --   144 C    0.974
   169   1 H    1.003 --   145 C    0.973
   170   1 H    1.005 --   146 C    0.973
   171   1 H    1.005 --   148 C    0.974
   172   1 H    1.003 --   149 C    0.974
   173   1 H    0.987 --   152 N    0.874
   174   1 H    1.005 --   154 C    0.973
   175   1 H    1.003 --   155 C    0.973
   176   1 H    1.003 --   156 C    0.974
   177   1 H    1.003 --   157 C    0.973
   178   1 H    1.005 --   158 C    0.973
 ---------------------------------------------------------------------------

           -------------------------------------------------
          | TOTAL ENERGY             -291.240872416434 Eh   |
          | GRADIENT NORM               0.000814258958 Eh/α |
          | HOMO-LUMO GAP               0.955478722940 eV   |
           -------------------------------------------------

 * finished run on 2022/07/29 at 17:15:54.926
