   * xtb version 6.5.1 (b24c23e) compiled by 'conda@728c89f4b128' on 2022-07-12
          program call               : xtb Co_Ph_C2_2.xyz --gfn 1 --opt -T 48

   ID    Z sym.   atoms
    1   27 Co     1, 57
    2    6 C      2-6, 8-11, 13-29, 32-37, 58-62, 64-67, 69-85, 88-93, 113,
                  114
    3    7 N      7, 12, 30, 31, 63, 68, 86, 87
    4    1 H      38-56, 94-112
########################################################################
[WARNING] Please study the warnings concerning your input carefully
-1- prog_main_parseArguments: Unknown option '-T' provided
########################################################################

          :  Hamiltonian                  GFN1-xTB          :
 * total energy  :  -192.3629966 Eh     change       -0.6350717E-08 Eh
 * total energy  :  -192.4335491 Eh     change       -0.7055250E-01 Eh
 * total energy  :  -192.4766205 Eh     change       -0.4307140E-01 Eh
 * total energy  :  -192.4879625 Eh     change       -0.1134206E-01 Eh
 * total energy  :  -192.4948602 Eh     change       -0.6897615E-02 Eh
 * total energy  :  -192.4984627 Eh     change       -0.3602570E-02 Eh
 * total energy  :  -192.5001355 Eh     change       -0.1672720E-02 Eh
 * total energy  :  -192.5009009 Eh     change       -0.7654550E-03 Eh
 * total energy  :  -192.5013537 Eh     change       -0.4528210E-03 Eh
 * total energy  :  -192.5016300 Eh     change       -0.2763116E-03 Eh
 * total energy  :  -192.5031997 Eh     change       -0.1135086E-04 Eh
 * total energy  :  -192.5032053 Eh     change       -0.5661846E-05 Eh
 * total energy  :  -192.5032110 Eh     change       -0.5667491E-05 Eh
 * total energy  :  -192.5032188 Eh     change       -0.7795803E-05 Eh
 * total energy  :  -192.5032270 Eh     change       -0.8171546E-05 Eh
 * total energy  :  -192.5032334 Eh     change       -0.6394463E-05 Eh
 * total energy  :  -192.5032388 Eh     change       -0.5444549E-05 Eh
 * total energy  :  -192.5032439 Eh     change       -0.5113137E-05 Eh
 * total energy  :  -192.5032485 Eh     change       -0.4592024E-05 Eh
   *** GEOMETRY OPTIMIZATION CONVERGED AFTER 36 ITERATIONS ***

 final structure:
================
114
 xtb: 6.5.1 (b24c23e)
Co          15.36112362353863       -0.04393785569060       -0.05415537698312
C           11.98594710140755       -0.07452104756309       -0.06191896468648
C           12.65395743269479       -1.23994017835605       -0.37116592907356
C           11.99724086135326       -2.46741271032218       -0.70349971316570
C           12.95517759062953       -3.42315854262663       -0.73651106683988
C           14.19804433014671       -2.77638643054640       -0.43232465647623
N           14.00749719675552       -1.43027067785518       -0.25017130434973
C           15.38552980575398       -3.45164627242276       -0.18412222141699
C           16.56260638910352       -2.78324506458332        0.11457203235402
C           17.81451076967779       -3.43797996427447        0.34879011722662
C           18.76113974403783       -2.47022095908659        0.38474141718498
N           16.73892653494974       -1.41874541738313        0.05527945820220
C           18.08807893025534       -1.22909472829908        0.16701139216344
C           18.75459071421640       -0.01708536739675       -0.02537200736438
C           18.06553251485158        1.18452805212223       -0.20382528423007
C           18.70959579618817        2.43585360274023       -0.44720986108047
C           17.74771070499989        3.38799513718671       -0.38174206655069
C           16.51835344693451        2.71300976960217       -0.09472195423051
C           15.32551339807540        3.35919473770673        0.19428035982016
C           15.31134871197151        4.83760435109591        0.28259918629948
C           14.50219934989300        5.58939029002411       -0.57067577381120
C           14.49277347293995        6.97352946190759       -0.48846464973248
C           15.28472999383585        7.62272675915879        0.44897039213767
C           16.09087567616493        6.88174868658728        1.30246791972701
C           16.10828348609274        5.49770043695392        1.21903872940101
C           14.14297267185634        2.65869113946430        0.39049914184244
C           12.88968037160453        3.27180917152962        0.72057412810563
C           11.94660637829716        2.30429515957516        0.63576280446571
C           12.62697973373633        1.09958919649957        0.26962926511960
N           13.98010035791756        1.31233340098388        0.18405978364517
N           16.71798211763613        1.35244264104083       -0.04670544137544
C           15.39702795100624       -4.93381229943163       -0.24359784667037
C           15.18314399124375       -5.59346886753479       -1.45387817546209
C           15.20005719824189       -6.97928093255462       -1.50766604450218
C           15.42631915281067       -7.72006519973868       -0.35562720477422
C           15.63737093608509       -7.06966937008280        0.85251630327816
C           15.62506322636916       -5.68400394172522        0.91010969783962
H           10.90236406183493       -0.08436661377397       -0.07173214660359
H           10.93586048740985       -2.56752029856177       -0.86624532822265
H           12.84101635434655       -4.47790455876134       -0.92714160036848
H           17.94437376494212       -4.50331129206540        0.44721858279243
H           19.82393212735765       -2.57356399571892        0.53180595136682
H           19.76334402949906        2.55553456687154       -0.64004253275466
H           17.84942761224244        4.45237052691081       -0.51761955026456
H           13.89293471754062        5.08447314698178       -1.31205514853149
H           13.86471486472694        7.54799082551993       -1.16033772606469
H           15.27388742142899        8.70482303174769        0.51399256747857
H           16.70915327543623        7.38415601506505        2.03812030858135
H           16.72957671361123        4.91969850172036        1.89406501231708
H           12.76203001670711        4.31078058035493        0.97790817124103
H           10.88293327661876        2.38041803257814        0.79645810632196
H           15.01905825556968       -5.01557316415460       -2.35654756855173
H           15.03729456203707       -7.48277837048762       -2.45416943848427
H           15.43842624278572       -8.80322684558851       -0.39933800563852
H           15.81219607006866       -7.64400936735859        1.75553724405758
H           15.77887834254529       -5.17693425235299        1.85610196097184
Co          26.17799907214460        0.04627081503060       -0.05210152997337
C           29.55317711472130        0.07714023168357       -0.05863448465981
C           28.88516624314859        1.25488834080455       -0.31697908754462
C           29.54188300340540        2.49563533805521       -0.59568914559294
C           28.58394403942864        3.45191182537352       -0.58717203586649
C           27.34107389907046        2.79254168857329       -0.31136501790876
N           27.53162955685676        1.43979108023372       -0.18780149278581
C           26.15358402662912        3.45638896125931       -0.03408336149229
C           24.97649863829583        2.77565795161966        0.23531826077783
C           23.72459386953491        3.41960460051740        0.49774566743241
C           22.77795834288929        2.45120059060464        0.49162331200620
N           24.80017467526405        1.41501616240558        0.11691133679222
C           23.45100977542207        1.22069644731977        0.22018333042609
C           22.78453649079044        0.01816790121256       -0.02474986452740
C           23.47363065814047       -1.17454667278602       -0.25511173744772
C           22.82955726958727       -2.41412158159810       -0.55257837611747
C           23.79143427033507       -3.36821109703474       -0.52849929060824
C           25.02078938510261       -2.70632483395447       -0.21243649201569
C           26.21362171067153       -3.36445825142894        0.04822470170977
C           26.22777629594604       -4.84530904725911        0.07226930703007
C           27.03692515760728       -5.55933624213735       -0.81284372063497
C           27.04634734987504       -6.94573968883741       -0.79081362133968
C           26.25438869396443       -7.63503006224088        0.11754602208348
C           25.44824108257593       -6.93181114653737        1.00241140388730
C           25.43083599579962       -5.54544507182036        0.97915977008616
C           27.39615767701693       -2.67313660554295        0.27468289440069
C           28.64944633675184       -3.30000970177995        0.57783120683945
C           29.59251832766004       -2.32972449681769        0.53511472053234
C           28.91214488978705       -1.11025876223693        0.22162563687908
N           27.55902103216121       -1.31908021067810        0.12693172347652
N           24.82116199745028       -1.34912892621834       -0.10531024764103
C           26.14210054384868        4.93973883010618       -0.02913639712460
C           26.35598386804988        5.65132355142467       -1.20963234287994
C           26.33906745730330        7.03816373465532       -1.20319661368009
C           26.11280643963793        7.72822722732638       -0.02007871871438
C           25.90175645830675        7.02598676523812        1.15868520623450
C           25.91406766302500        5.63912757564264        1.15605791270949
H           30.63676019253898        0.08740569991604       -0.06799825233707
H           30.60326395343380        2.60271552374405       -0.75393327821621
H           28.69810516809117        4.51394016275047       -0.73182535077668
H           23.59473552324512        4.47965816751776        0.64232846739848
H           21.71516767060771        2.54806171890139        0.64302668725067
H           21.77580786892723       -2.52531584729096       -0.75043270655561
H           23.68971366552990       -4.42568128155238       -0.71047720151864
H           27.64619487840226       -5.02270388841006       -1.53159580411040
H           27.67440935956908       -7.49048557025955       -1.48699433132881
H           26.26523408782695       -8.71892928631622        0.13552233795097
H           24.82996716416877       -7.46568803970670        1.71555715796050
H           24.80954830903433       -4.99729918993675        1.67865112680867
H           28.77709614613693       -4.34917586933855        0.78980561235486
H           30.65619105940602       -2.41275300053068        0.69235405521695
H           26.52006588737207        5.11316733734368       -2.13654395568336
H           26.50182872044741        7.58228392296960       -2.12694538197617
H           26.10070049933887        8.81226520539841       -0.01671661811393
H           25.72693198015347        7.56057507250456        2.08579293133434
H           25.76025015912589        5.09145996024203        2.07913982350027
C           20.16111659425802       -0.00621998120691       -0.03299766403668
C           21.37801794419243        0.00736032745287       -0.03334993554069

          :  Hamiltonian                  GFN1-xTB          :
         :: total energy            -192.503248516091 Eh    ::
         :: gradient norm              0.000319141775 Eh/a0 ::
         :: HOMO-LUMO gap              0.012712646544 eV    ::
         :: SCC energy              -195.604200483210 Eh    ::
         :: repulsion energy           3.205166211384 Eh    ::

    * Orbital Energies and Occupations

         #    Occupation            Energy/Eh            Energy/eV
      -------------------------------------------------------------
         1        2.0000           -0.7705016             -20.9664
       ...           ...                  ...                  ...
       168        2.0000           -0.4276620             -11.6373
       169        2.0000           -0.4276461             -11.6368
       170        2.0000           -0.3986264             -10.8472
       171        2.0000           -0.3962890             -10.7836
       172        2.0000           -0.3962615             -10.7828
       173        2.0000           -0.3945153             -10.7353
       174        2.0000           -0.3944623             -10.7339
       175        1.9998           -0.3911708             -10.6443
       176        1.9998           -0.3911703             -10.6443
       177        1.9998           -0.3910966             -10.6423
       178        1.9998           -0.3910939             -10.6422
       179        1.9259           -0.3853467             -10.4858
       180        1.1596           -0.3825580             -10.4099 (HOMO)
       181        0.9153           -0.3820908             -10.3972 (LUMO)
       182                         -0.3378446              -9.1932
       183                         -0.3271640              -8.9026
       184                         -0.3271475              -8.9021
       185                         -0.3215498              -8.7498
       186                         -0.2965275              -8.0689
       187                         -0.2933524              -7.9825
       188                         -0.2933361              -7.9821
       189                         -0.2881018              -7.8396
       190                         -0.2657558              -7.2316
       191                         -0.2657539              -7.2315
       ...                                ...                  ...
       390                          1.3415649              36.5058
      -------------------------------------------------------------
                  HL-Gap            0.0004672 Eh            0.0127 eV

Wiberg/Mayer (AO) data.
largest (>0.10) Wiberg bond orders for each atom

     #   Z sym  total        # sym  WBO       # sym  WBO       # sym  WBO
 ---------------------------------------------------------------------------
     1  27 Co   3.058 --    30 N    0.640     7 N    0.637    12 N    0.636
                            31 N    0.633
     2   6 C    3.928 --    29 C    1.365     3 C    1.364    38 H    0.970
     3   6 C    3.925 --     2 C    1.364     7 N    1.202     4 C    1.174
     4   6 C    3.960 --     5 C    1.649     3 C    1.174    39 H    0.975
     5   6 C    3.963 --     4 C    1.649     6 C    1.177    40 H    0.973
     6   6 C    3.920 --     8 C    1.319     7 N    1.213     5 C    1.177
     7   7 N    3.347 --     6 C    1.213     3 C    1.202     1 Co   0.637
     8   6 C    3.932 --     9 C    1.335     6 C    1.319    32 C    1.021
     9   6 C    3.917 --     8 C    1.335    12 N    1.193    10 C    1.181
    10   6 C    3.959 --    11 C    1.638     9 C    1.181    41 H    0.973
    11   6 C    3.963 --    10 C    1.638    13 C    1.189    42 H    0.971
    12   7 N    3.346 --    13 C    1.231     9 C    1.193     1 Co   0.636
    13   6 C    3.910 --    14 C    1.264    12 N    1.231    11 C    1.189
    14   6 C    3.933 --    13 C    1.264    15 C    1.263   113 C    1.179
    15   6 C    3.910 --    14 C    1.263    31 N    1.229    16 C    1.191
    16   6 C    3.962 --    17 C    1.634    15 C    1.191    43 H    0.971
    17   6 C    3.959 --    16 C    1.634    18 C    1.183    44 H    0.973
    18   6 C    3.918 --    19 C    1.329    31 N    1.195    17 C    1.183
    19   6 C    3.932 --    18 C    1.329    26 C    1.319    20 C    1.030
    20   6 C    3.988 --    25 C    1.394    21 C    1.394    19 C    1.030
                            23 C    0.107
    21   6 C    3.987 --    22 C    1.448    20 C    1.394    45 H    0.973
                            24 C    0.109
    22   6 C    3.995 --    21 C    1.448    23 C    1.437    46 H    0.973
                            25 C    0.109
    23   6 C    3.989 --    24 C    1.437    22 C    1.437    47 H    0.974
                            20 C    0.107
    24   6 C    3.995 --    25 C    1.448    23 C    1.437    48 H    0.973
                            21 C    0.109
    25   6 C    3.987 --    24 C    1.448    20 C    1.394    49 H    0.973
                            22 C    0.109
    26   6 C    3.921 --    19 C    1.319    30 N    1.212    27 C    1.176
    27   6 C    3.963 --    28 C    1.648    26 C    1.176    50 H    0.973
    28   6 C    3.960 --    27 C    1.648    29 C    1.175    51 H    0.975
    29   6 C    3.925 --     2 C    1.365    30 N    1.202    28 C    1.175
    30   7 N    3.344 --    26 C    1.212    29 C    1.202     1 Co   0.640
    31   7 N    3.348 --    15 C    1.229    18 C    1.195     1 Co   0.633
    32   6 C    3.988 --    33 C    1.397    37 C    1.397     8 C    1.021
                            35 C    0.109
    33   6 C    3.988 --    34 C    1.446    32 C    1.397    52 H    0.973
                            36 C    0.110
    34   6 C    3.995 --    33 C    1.446    35 C    1.438    53 H    0.973
                            37 C    0.110
    35   6 C    3.991 --    34 C    1.438    36 C    1.438    54 H    0.974
                            32 C    0.109
    36   6 C    3.995 --    37 C    1.446    35 C    1.438    55 H    0.973
                            33 C    0.110
    37   6 C    3.988 --    36 C    1.446    32 C    1.397    56 H    0.973
                            34 C    0.110
    38   1 H    1.000 --     2 C    0.970
    39   1 H    0.998 --     4 C    0.975
    40   1 H    1.005 --     5 C    0.973
    41   1 H    1.005 --    10 C    0.973
    42   1 H    1.004 --    11 C    0.971
    43   1 H    1.004 --    16 C    0.971
    44   1 H    1.004 --    17 C    0.973
    45   1 H    1.005 --    21 C    0.973
    46   1 H    1.003 --    22 C    0.973
    47   1 H    1.003 --    23 C    0.974
    48   1 H    1.003 --    24 C    0.973
    49   1 H    1.005 --    25 C    0.973
    50   1 H    1.004 --    27 C    0.973
    51   1 H    0.998 --    28 C    0.975
    52   1 H    1.004 --    33 C    0.973
    53   1 H    1.003 --    34 C    0.973
    54   1 H    1.003 --    35 C    0.974
    55   1 H    1.003 --    36 C    0.973
    56   1 H    1.004 --    37 C    0.973
    57  27 Co   3.058 --    86 N    0.640    63 N    0.637    68 N    0.636
                            87 N    0.633
    58   6 C    3.928 --    85 C    1.365    59 C    1.364    94 H    0.970
    59   6 C    3.925 --    58 C    1.364    63 N    1.202    60 C    1.174
    60   6 C    3.960 --    61 C    1.649    59 C    1.174    95 H    0.975
    61   6 C    3.963 --    60 C    1.649    62 C    1.177    96 H    0.973
    62   6 C    3.920 --    64 C    1.319    63 N    1.213    61 C    1.177
    63   7 N    3.347 --    62 C    1.213    59 C    1.202    57 Co   0.637
    64   6 C    3.932 --    65 C    1.335    62 C    1.319    88 C    1.021
    65   6 C    3.917 --    64 C    1.335    68 N    1.193    66 C    1.181
    66   6 C    3.959 --    67 C    1.638    65 C    1.181    97 H    0.973
    67   6 C    3.963 --    66 C    1.638    69 C    1.189    98 H    0.971
    68   7 N    3.346 --    69 C    1.231    65 C    1.193    57 Co   0.636
    69   6 C    3.910 --    70 C    1.264    68 N    1.231    67 C    1.189
    70   6 C    3.933 --    69 C    1.264    71 C    1.263   114 C    1.179
    71   6 C    3.910 --    70 C    1.263    87 N    1.229    72 C    1.191
    72   6 C    3.962 --    73 C    1.634    71 C    1.191    99 H    0.971
    73   6 C    3.959 --    72 C    1.634    74 C    1.183   100 H    0.973
    74   6 C    3.918 --    75 C    1.329    87 N    1.195    73 C    1.183
    75   6 C    3.932 --    74 C    1.329    82 C    1.319    76 C    1.030
    76   6 C    3.988 --    81 C    1.394    77 C    1.394    75 C    1.030
                            79 C    0.107
    77   6 C    3.987 --    78 C    1.448    76 C    1.394   101 H    0.973
                            80 C    0.109
    78   6 C    3.995 --    77 C    1.448    79 C    1.437   102 H    0.973
                            81 C    0.109
    79   6 C    3.989 --    80 C    1.437    78 C    1.437   103 H    0.974
                            76 C    0.107
    80   6 C    3.995 --    81 C    1.448    79 C    1.437   104 H    0.973
                            77 C    0.109
    81   6 C    3.987 --    80 C    1.448    76 C    1.394   105 H    0.973
                            78 C    0.109
    82   6 C    3.921 --    75 C    1.319    86 N    1.212    83 C    1.176
    83   6 C    3.963 --    84 C    1.648    82 C    1.176   106 H    0.973
    84   6 C    3.960 --    83 C    1.648    85 C    1.175   107 H    0.975
    85   6 C    3.925 --    58 C    1.365    86 N    1.202    84 C    1.175
    86   7 N    3.344 --    82 C    1.212    85 C    1.202    57 Co   0.640
    87   7 N    3.348 --    71 C    1.229    74 C    1.195    57 Co   0.633
    88   6 C    3.988 --    89 C    1.397    93 C    1.397    64 C    1.021
                            91 C    0.109
    89   6 C    3.988 --    90 C    1.446    88 C    1.397   108 H    0.973
                            92 C    0.110
    90   6 C    3.995 --    89 C    1.446    91 C    1.438   109 H    0.973
                            93 C    0.110
    91   6 C    3.991 --    90 C    1.438    92 C    1.438   110 H    0.974
                            88 C    0.109
    92   6 C    3.995 --    93 C    1.446    91 C    1.438   111 H    0.973
                            89 C    0.110
    93   6 C    3.988 --    92 C    1.446    88 C    1.397   112 H    0.973
                            90 C    0.110
    94   1 H    1.000 --    58 C    0.970
    95   1 H    0.998 --    60 C    0.975
    96   1 H    1.005 --    61 C    0.973
    97   1 H    1.005 --    66 C    0.973
    98   1 H    1.004 --    67 C    0.971
    99   1 H    1.004 --    72 C    0.971
   100   1 H    1.004 --    73 C    0.973
   101   1 H    1.005 --    77 C    0.973
   102   1 H    1.003 --    78 C    0.973
   103   1 H    1.003 --    79 C    0.974
   104   1 H    1.003 --    80 C    0.973
   105   1 H    1.005 --    81 C    0.973
   106   1 H    1.004 --    83 C    0.973
   107   1 H    0.998 --    84 C    0.975
   108   1 H    1.004 --    89 C    0.973
   109   1 H    1.003 --    90 C    0.973
   110   1 H    1.003 --    91 C    0.974
   111   1 H    1.003 --    92 C    0.973
   112   1 H    1.004 --    93 C    0.973
   113   6 C    3.930 --   114 C    2.571    14 C    1.179
   114   6 C    3.930 --   113 C    2.571    70 C    1.179
 ---------------------------------------------------------------------------

           -------------------------------------------------
          | TOTAL ENERGY             -192.503248516091 Eh   |
          | GRADIENT NORM               0.000319141775 Eh/α |
          | HOMO-LUMO GAP               0.012712646544 eV   |
           -------------------------------------------------

 * finished run on 2022/07/30 at 01:01:54.990
