   * xtb version 6.5.1 (b24c23e) compiled by 'conda@728c89f4b128' on 2022-07-12
          program call               : xtb Zn_Ph2OMe_C6_2.xyz --gfn 1 --opt -T 48

   ID    Z sym.   atoms
    1   30 Zn     1, 73
    2    6 C      2-6, 8-11, 13-21, 23-27, 29-33, 36, 37, 39-43, 45, 74-78,
                  80-83, 85-93, 95-99, 101-105, 108, 109, 111-115, 117,
                  145-150
    3    7 N      7, 12, 34, 35, 79, 84, 106, 107
    4    8 O      22, 28, 38, 44, 94, 100, 110, 116
    5    1 H      46-72, 118-144
########################################################################
[WARNING] Please study the warnings concerning your input carefully
-1- prog_main_parseArguments: Unknown option '-T' provided
########################################################################

          :  Hamiltonian                  GFN1-xTB          :
 * total energy  :  -257.6479319 Eh     change       -0.2468141E-09 Eh
 * total energy  :  -258.3827569 Eh     change       -0.7348250E+00 Eh
 * total energy  :  -258.4969703 Eh     change       -0.1142134E+00 Eh
 * total energy  :  -258.5525551 Eh     change       -0.5558481E-01 Eh
 * total energy  :  -258.5749619 Eh     change       -0.2240674E-01 Eh
 * total energy  :  -258.5866393 Eh     change       -0.1167746E-01 Eh
 * total energy  :  -258.5936262 Eh     change       -0.6986831E-02 Eh
 * total energy  :  -258.5985496 Eh     change       -0.4923481E-02 Eh
 * total energy  :  -258.6023600 Eh     change       -0.3810370E-02 Eh
 * total energy  :  -258.6052270 Eh     change       -0.2866937E-02 Eh
 * total energy  :  -258.6143190 Eh     change       -0.1930004E-04 Eh
 * total energy  :  -258.6143377 Eh     change       -0.1870112E-04 Eh
 * total energy  :  -258.6143541 Eh     change       -0.1639543E-04 Eh
 * total energy  :  -258.6143673 Eh     change       -0.1316973E-04 Eh
 * total energy  :  -258.6143780 Eh     change       -0.1070685E-04 Eh
 * total energy  :  -258.6143878 Eh     change       -0.9768900E-05 Eh
 * total energy  :  -258.6143973 Eh     change       -0.9502462E-05 Eh
 * total energy  :  -258.6144061 Eh     change       -0.8779199E-05 Eh
 * total energy  :  -258.6144079 Eh     change       -0.1870697E-05 Eh
   *** GEOMETRY OPTIMIZATION CONVERGED AFTER 68 ITERATIONS ***

 final structure:
================
150
 xtb: 6.5.1 (b24c23e)
Zn          13.16308457484170        0.05323256092728        0.02912607214255
C            9.75889595724071        0.25352100560868       -0.13935258282491
C           10.38605959843588        1.10037156445554        0.76728246934112
C            9.71354426327273        2.03009820511889        1.63223744630502
C           10.67018457391672        2.65644668973329        2.36216358629330
C           11.93941599750679        2.12080546679917        1.94830939333564
N           11.73153752955341        1.17959964728320        0.98286151852082
C           13.18402684582917        2.48929344917071        2.46847210046144
C           14.41968566617189        1.96468278292615        2.08242259514344
C           15.69402080883920        2.37909737777065        2.60004654786290
C           16.64319449876588        1.65409706062798        1.95509395618170
N           14.61911594969500        0.99794460966104        1.13286091061800
C           15.95894581221168        0.79050339368462        1.03695265178513
C           16.59288807431425       -0.12483568282624        0.17217882510552
C           15.94093237511882       -0.98604954425815       -0.73407178002462
C           16.60577341131032       -1.93232071151653       -1.58238699658487
C           15.64332129581650       -2.56835924118031       -2.29755655443361
C           14.38089543333674       -2.01150491559164       -1.89794946187093
C           13.13526511535906       -2.39771251949330       -2.39791106294667
C           13.12552373919683       -3.45572159627141       -3.44951666970428
C           13.58922649064667       -3.17417548462333       -4.74111063449503
O           14.01959379178359       -1.90171738735944       -4.95278776870697
C           14.53130320071414       -1.52013098153002       -6.21333877498404
C           13.58299751519303       -4.16301861467991       -5.72443120022107
C           13.11676099885552       -5.43071199275672       -5.41048308773558
C           12.65451512850844       -5.73328341657237       -4.13854815758214
C           12.65724255595472       -4.74289046933757       -3.15670591196229
O           12.23216882636200       -4.94387617915589       -1.88041986975535
C           11.76127747787970       -6.21302383236533       -1.47576556759413
C           11.89814712296909       -1.87783417215265       -2.00466141109055
C           10.62199985068909       -2.26075438104815       -2.54680455515815
C            9.67902172284671       -1.51736925903791       -1.91558951986500
C           10.36787224037014       -0.66808970816048       -0.98332809026471
N           11.70890640104756       -0.90949833192891       -1.06258737853064
N           14.59964379101961       -1.05600787291537       -0.94127564271570
C           13.19464256409569        3.53514086323263        3.53229350540672
C           13.49122233599278        3.19080197243522        4.85745864645199
O           13.74458196988250        1.87435543330792        5.08557823161047
C           14.07721629626968        1.42436833955775        6.38296669902680
C           13.50407925332041        4.16580129865781        5.85439910776674
C           13.22394696508097        5.48234782657343        5.52084769471589
C           12.92898957493159        5.84722284262679        4.21591953884745
C           12.91238449580829        4.87101699511962        3.22002258685873
O           12.64215949414841        5.13120815122051        1.91261372368899
C           12.36038815922255        6.44976148706871        1.49030865131070
H            8.67635929887823        0.31845771119519       -0.19367434323527
H            8.64464364446241        2.17347223608090        1.66929422133961
H           10.53618080015809        3.41556232611918        3.11643751605059
H           15.83903186146167        3.13201819778420        3.35825359824092
H           17.71351524880329        1.69463579575705        2.08232079552669
H           17.67260435784890       -2.08753032340649       -1.61626192270287
H           15.77192181279096       -3.34803502104403       -3.03124977249683
H           13.77294820572035       -1.61325022573949       -7.00037520369265
H           14.82224051932621       -0.47223636728076       -6.11876700753179
H           15.41161408822007       -2.11469530036295       -6.48637455909274
H           13.93565153900120       -3.95472909313693       -6.72572821848524
H           13.11357847684705       -6.20044280590089       -6.17448902800353
H           12.29826599788056       -6.73148478327250       -3.92168216085311
H           11.49176868718041       -6.11581435237926       -0.42237477411951
H           10.87490368522017       -6.51448892965509       -2.04729521642099
H           12.53733198139752       -6.98128479396257       -1.57914499992136
H           10.47471722047652       -3.00376946683205       -3.31453280071742
H            8.60996220806883       -1.53106223313920       -2.06184471225107
H           14.24650056848712        0.34930872645778        6.29772183507339
H           13.26089511526527        1.60468097099617        7.09312298917475
H           14.99152312009425        1.90441083305899        6.75258067599468
H           13.72857417185104        3.90939551467792        6.88114686228070
H           13.23589320810025        6.24132736340948        6.29545370379455
H           12.71614873600912        6.88236392224159        3.98458688639085
H           13.20510720903073        7.12253339172108        1.68252726305648
H           12.18499507984940        6.39368713520268        0.41430934119341
H           11.46291418065925        6.84623063412195        1.98071976939953
Zn          29.19319662559278       -0.02179643503033       -0.05647682753821
C           32.59694751370069        0.17733070134465       -0.23334872028633
C           31.97005297103461       -0.60114832488141       -1.19949136299357
C           32.64287711215472       -1.32619069682114       -2.24180080589832
C           31.68650626540115       -1.96097208863801       -2.96474836471591
C           30.41711848239236       -1.62701805308329       -2.37633035938113
N           30.62465958058400       -0.80404588958962       -1.30823802641597
C           29.17259430478646       -2.08957839479620       -2.81525004125988
C           27.93693400502730       -1.78243233973492       -2.24088577061315
C           26.66261199280728       -2.23556477261557       -2.72502284488488
C           25.71358423239089       -1.70287060033689       -1.91383082253445
N           27.73761448078777       -0.98202042877856       -1.14745718680691
C           26.39791068536398       -0.91824990854352       -0.92742300687279
C           25.76393807453378       -0.19428413973554        0.10282712337778
C           26.41560188756302        0.58133325893556        1.08354945918251
C           25.75058506023182        1.28653322080301        2.14067608209992
C           26.71266842660458        1.90654867759489        2.87029397863551
C           27.97513527252655        1.59145459615671        2.26167366789901
C           29.22061844009349        2.03311210147758        2.71404976086525
C           29.23021934938359        2.92368201483791        3.91075455362310
C           28.76163910786480        4.24059444539640        3.81714219532219
O           28.32748516824428        4.63009135911597        2.58872393096103
C           27.80874620846960        5.92963570053367        2.39237938366740
C           28.76715383582741        5.07301386076735        4.93599147351196
C           29.23763864990022        4.58339395156730        6.14507429264122
C           29.70503106075540        3.28307784082190        6.26228938470687
C           29.70306389150625        2.45236925395960        5.14210723743821
O           30.13323158862297        1.16213161981219        5.15843225633837
C           30.60871533869111        0.58268733996808        6.35608948568498
C           30.45772911271237        1.71882591573225        2.14281844891695
C           31.73374689147360        2.20230400782802        2.59799108222252
C           32.67665426941857        1.68422441111012        1.77169037055074
C           31.98792026551768        0.88151150677207        0.79898156045954
N           30.64701904854056        0.92425064826352        1.05020440998006
N           27.75668945009419        0.77880633748143        1.18092573189486
C           29.16206134809705       -2.99419621552533       -4.00138945848845
C           28.86076644129665       -4.35385379862258       -3.84886220333134
O           28.60290256215720       -4.76517717496667       -2.57860177638576
C           28.26464015938542       -6.11191762054293       -2.31747402975511
C           28.84812600810177       -5.20275746128423       -4.95512702467687
C           29.13323286700030       -4.68716117859467       -6.21048089418159
C           29.43288369509364       -3.34466669125862       -6.38624014053477
C           29.44920180075304       -2.49694041854897       -5.27892193022869
O           29.72355581914792       -1.16667860679618       -5.35091350573564
C           30.01263256434231       -0.56338697897084       -6.59541729508378
H           33.67938871111848        0.24136918597143       -0.29058366724031
H           33.71179304390035       -1.34237756394930       -2.38886573647123
H           31.82082914321530       -2.60097709044445       -3.82234728371779
H           26.51743363711484       -2.87680711581058       -3.57971856982630
H           24.64332511046059       -1.82379661120362       -1.97160537425650
H           24.68386554170453        1.29645275607973        2.29997954775457
H           26.58370153680988        2.52316674185396        3.74543676800950
H           28.56349497607864        6.69918189549447        2.59573263633073
H           27.51555917126802        5.98447582198507        1.34228190121391
H           26.92867157204754        6.11021387850392        3.02155791699969
H           28.41064675525733        6.09247725874003        4.87321326296585
H           29.24014840085552        5.22990039207806        7.01583539800306
H           30.06457700210035        2.92749909776812        7.21865729952191
H           30.88310224963725       -0.44462307541849        6.10898426232766
H           31.49295733252392        1.10971878826366        6.73496275849165
H           29.83373131519011        0.57132556448352        7.13226857175801
H           31.88109917507134        2.85648816709893        3.44267296764456
H           33.74559826977430        1.82809380236558        1.80528926344399
H           28.09106988214859       -6.17860253271869       -1.24177732138229
H           29.07969728342457       -6.79229631734473       -2.59312189524735
H           27.35130616802543       -6.40696863909093       -2.84828708755599
H           28.62006374495512       -6.25474677493149       -4.84712912970421
H           29.12146792432760       -5.34652996784832       -7.07146644971546
H           29.64954997937910       -2.96987477338002       -7.37766212523080
H           29.17087349604195       -0.65641791942276       -7.29247922974238
H           30.18999110891162        0.49345225686217       -6.38731502532812
H           30.91103669258326       -0.99546673388300       -7.05294909766780
C           21.79253713867987       -0.25415566399535        0.20361471319288
C           20.56421896959272       -0.23913068107715        0.21908991122019
C           19.22007036481020       -0.21455555824555        0.21498969525778
C           17.99645164492874       -0.17798968896137        0.20738389670114
C           23.13671127096615       -0.25099568211703        0.18148279816841
C           24.36044770374247       -0.23957756172138        0.15035043493777

          :  Hamiltonian                  GFN1-xTB          :
         :: total energy            -258.614407937141 Eh    ::
         :: gradient norm              0.000629011334 Eh/a0 ::
         :: HOMO-LUMO gap              1.096812802522 eV    ::
         :: SCC energy              -262.291566478936 Eh    ::
         :: repulsion energy           3.806465111553 Eh    ::

    * Orbital Energies and Occupations

         #    Occupation            Energy/Eh            Energy/eV
      -------------------------------------------------------------
         1        2.0000           -0.8033363             -21.8599
       ...           ...                  ...                  ...
       217        2.0000           -0.4053160             -11.0292
       218        2.0000           -0.4053037             -11.0289
       219        2.0000           -0.4041913             -10.9986
       220        2.0000           -0.4040184             -10.9939
       221        2.0000           -0.4039649             -10.9924
       222        2.0000           -0.4035381             -10.9808
       223        2.0000           -0.4035113             -10.9801
       224        2.0000           -0.3984980             -10.8437
       225        2.0000           -0.3947969             -10.7430
       226        2.0000           -0.3763015             -10.2397
       227        2.0000           -0.3762899             -10.2394
       228        2.0000           -0.3700804             -10.0704
       229        2.0000           -0.3598888              -9.7931 (HOMO)
       230                         -0.3195816              -8.6963 (LUMO)
       231                         -0.3083677              -8.3911
       232                         -0.3083580              -8.3908
       233                         -0.3079582              -8.3800
       234                         -0.2802671              -7.6265
       235                         -0.2729444              -7.4272
       236                         -0.2661046              -7.2411
       237                         -0.2514307              -6.8418
       238                         -0.2511535              -6.8342
       239                         -0.2511413              -6.8339
       240                         -0.2503225              -6.8116
       ...                                ...                  ...
       492                          1.5966023              43.4458
      -------------------------------------------------------------
                  HL-Gap            0.0403071 Eh            1.0968 eV

Wiberg/Mayer (AO) data.
largest (>0.10) Wiberg bond orders for each atom

     #   Z sym  total        # sym  WBO       # sym  WBO       # sym  WBO
 ---------------------------------------------------------------------------
     1  30 Zn   1.999 --     7 N    0.460    34 N    0.460    12 N    0.457
                            35 N    0.457
     2   6 C    3.927 --     3 C    1.357    33 C    1.357    46 H    0.972
     3   6 C    3.924 --     2 C    1.357     7 N    1.235     4 C    1.170
     4   6 C    3.960 --     5 C    1.660     3 C    1.170    47 H    0.976
     5   6 C    3.964 --     4 C    1.660     6 C    1.173    48 H    0.975
     6   6 C    3.917 --     8 C    1.319     7 N    1.242     5 C    1.173
     7   7 N    3.295 --     6 C    1.242     3 C    1.235     1 Zn   0.460
     8   6 C    3.933 --     9 C    1.332     6 C    1.319    36 C    1.012
     9   6 C    3.913 --     8 C    1.332    12 N    1.221    10 C    1.178
    10   6 C    3.960 --    11 C    1.649     9 C    1.178    49 H    0.975
    11   6 C    3.962 --    10 C    1.649    13 C    1.184    50 H    0.974
    12   7 N    3.299 --    13 C    1.266     9 C    1.221     1 Zn   0.457
    13   6 C    3.903 --    12 N    1.266    14 C    1.253    11 C    1.184
    14   6 C    3.939 --    13 C    1.253    15 C    1.252   148 C    1.193
    15   6 C    3.903 --    35 N    1.266    14 C    1.252    16 C    1.184
    16   6 C    3.962 --    17 C    1.649    15 C    1.184    51 H    0.974
    17   6 C    3.960 --    16 C    1.649    18 C    1.178    52 H    0.975
    18   6 C    3.912 --    19 C    1.332    35 N    1.221    17 C    1.178
    19   6 C    3.933 --    18 C    1.332    30 C    1.319    20 C    1.012
    20   6 C    3.978 --    27 C    1.345    21 C    1.344    19 C    1.012
                            25 C    0.101
    21   6 C    3.903 --    24 C    1.362    20 C    1.344    22 O    1.030
    22   8 O    2.143 --    21 C    1.030    23 C    0.936
    23   6 C    3.908 --    54 H    0.983    55 H    0.980    53 H    0.980
                            22 O    0.936
    24   6 C    3.983 --    25 C    1.442    21 C    1.362    56 H    0.969
    25   6 C    3.993 --    26 C    1.442    24 C    1.442    57 H    0.974
                            20 C    0.101
    26   6 C    3.983 --    25 C    1.442    27 C    1.362    58 H    0.969
    27   6 C    3.903 --    26 C    1.362    20 C    1.345    28 O    1.029
    28   8 O    2.143 --    27 C    1.029    29 C    0.936
    29   6 C    3.909 --    59 H    0.983    60 H    0.980    61 H    0.980
                            28 O    0.936
    30   6 C    3.917 --    19 C    1.319    34 N    1.242    31 C    1.173
    31   6 C    3.964 --    32 C    1.660    30 C    1.173    62 H    0.975
    32   6 C    3.960 --    31 C    1.660    33 C    1.170    63 H    0.976
    33   6 C    3.924 --     2 C    1.357    34 N    1.235    32 C    1.170
    34   7 N    3.295 --    30 C    1.242    33 C    1.235     1 Zn   0.460
    35   7 N    3.298 --    15 C    1.266    18 C    1.221     1 Zn   0.457
    36   6 C    3.978 --    43 C    1.345    37 C    1.344     8 C    1.012
                            41 C    0.101
    37   6 C    3.903 --    40 C    1.362    36 C    1.344    38 O    1.030
    38   8 O    2.143 --    37 C    1.030    39 C    0.936
    39   6 C    3.908 --    64 H    0.983    66 H    0.980    65 H    0.980
                            38 O    0.936
    40   6 C    3.983 --    41 C    1.442    37 C    1.362    67 H    0.969
    41   6 C    3.993 --    42 C    1.442    40 C    1.442    68 H    0.974
                            36 C    0.101
    42   6 C    3.983 --    41 C    1.442    43 C    1.362    69 H    0.969
    43   6 C    3.903 --    42 C    1.362    36 C    1.345    44 O    1.029
    44   8 O    2.143 --    43 C    1.029    45 C    0.936
    45   6 C    3.909 --    71 H    0.983    72 H    0.980    70 H    0.980
                            44 O    0.936
    46   1 H    1.002 --     2 C    0.972
    47   1 H    0.999 --     4 C    0.976
    48   1 H    1.003 --     5 C    0.975
    49   1 H    1.002 --    10 C    0.975
    50   1 H    1.003 --    11 C    0.974
    51   1 H    1.003 --    16 C    0.974
    52   1 H    1.002 --    17 C    0.975
    53   1 H    1.009 --    23 C    0.980
    54   1 H    1.016 --    23 C    0.983
    55   1 H    1.009 --    23 C    0.980
    56   1 H    1.000 --    24 C    0.969
    57   1 H    1.003 --    25 C    0.974
    58   1 H    1.000 --    26 C    0.969
    59   1 H    1.016 --    29 C    0.983
    60   1 H    1.009 --    29 C    0.980
    61   1 H    1.009 --    29 C    0.980
    62   1 H    1.002 --    31 C    0.975
    63   1 H    0.999 --    32 C    0.976
    64   1 H    1.016 --    39 C    0.983
    65   1 H    1.009 --    39 C    0.980
    66   1 H    1.009 --    39 C    0.980
    67   1 H    1.000 --    40 C    0.969
    68   1 H    1.003 --    41 C    0.974
    69   1 H    1.000 --    42 C    0.969
    70   1 H    1.009 --    45 C    0.980
    71   1 H    1.016 --    45 C    0.983
    72   1 H    1.009 --    45 C    0.980
    73  30 Zn   1.999 --    79 N    0.460   106 N    0.460    84 N    0.457
                           107 N    0.457
    74   6 C    3.927 --    75 C    1.357   105 C    1.357   118 H    0.972
    75   6 C    3.924 --    74 C    1.357    79 N    1.235    76 C    1.170
    76   6 C    3.960 --    77 C    1.660    75 C    1.170   119 H    0.976
    77   6 C    3.964 --    76 C    1.660    78 C    1.173   120 H    0.975
    78   6 C    3.917 --    80 C    1.319    79 N    1.242    77 C    1.173
    79   7 N    3.295 --    78 C    1.242    75 C    1.235    73 Zn   0.460
    80   6 C    3.933 --    81 C    1.332    78 C    1.319   108 C    1.012
    81   6 C    3.913 --    80 C    1.332    84 N    1.222    82 C    1.178
    82   6 C    3.960 --    83 C    1.649    81 C    1.178   121 H    0.975
    83   6 C    3.962 --    82 C    1.649    85 C    1.184   122 H    0.974
    84   7 N    3.299 --    85 C    1.266    81 C    1.222    73 Zn   0.457
    85   6 C    3.903 --    84 N    1.266    86 C    1.253    83 C    1.184
    86   6 C    3.939 --    85 C    1.253    87 C    1.252   150 C    1.193
    87   6 C    3.903 --   107 N    1.266    86 C    1.252    88 C    1.184
    88   6 C    3.962 --    89 C    1.649    87 C    1.184   123 H    0.974
    89   6 C    3.960 --    88 C    1.649    90 C    1.178   124 H    0.975
    90   6 C    3.912 --    91 C    1.332   107 N    1.221    89 C    1.178
    91   6 C    3.933 --    90 C    1.332   102 C    1.319    92 C    1.012
    92   6 C    3.978 --    99 C    1.345    93 C    1.344    91 C    1.012
                            97 C    0.101
    93   6 C    3.903 --    96 C    1.362    92 C    1.344    94 O    1.030
    94   8 O    2.143 --    93 C    1.030    95 C    0.936
    95   6 C    3.908 --   126 H    0.983   127 H    0.980   125 H    0.980
                            94 O    0.936
    96   6 C    3.983 --    97 C    1.442    93 C    1.362   128 H    0.969
    97   6 C    3.993 --    98 C    1.442    96 C    1.442   129 H    0.974
                            92 C    0.101
    98   6 C    3.983 --    97 C    1.442    99 C    1.362   130 H    0.969
    99   6 C    3.903 --    98 C    1.362    92 C    1.345   100 O    1.029
   100   8 O    2.143 --    99 C    1.029   101 C    0.936
   101   6 C    3.909 --   131 H    0.983   132 H    0.980   133 H    0.980
                           100 O    0.936
   102   6 C    3.917 --    91 C    1.319   106 N    1.242   103 C    1.173
   103   6 C    3.964 --   104 C    1.660   102 C    1.173   134 H    0.975
   104   6 C    3.960 --   103 C    1.660   105 C    1.170   135 H    0.976
   105   6 C    3.924 --    74 C    1.357   106 N    1.235   104 C    1.170
   106   7 N    3.295 --   102 C    1.242   105 C    1.235    73 Zn   0.460
   107   7 N    3.298 --    87 C    1.266    90 C    1.221    73 Zn   0.457
   108   6 C    3.978 --   115 C    1.345   109 C    1.344    80 C    1.012
                           113 C    0.101
   109   6 C    3.903 --   112 C    1.362   108 C    1.344   110 O    1.030
   110   8 O    2.143 --   109 C    1.030   111 C    0.936
   111   6 C    3.908 --   136 H    0.983   138 H    0.980   137 H    0.980
                           110 O    0.936
   112   6 C    3.983 --   113 C    1.442   109 C    1.362   139 H    0.969
   113   6 C    3.993 --   114 C    1.442   112 C    1.442   140 H    0.974
                           108 C    0.101
   114   6 C    3.983 --   113 C    1.442   115 C    1.362   141 H    0.969
   115   6 C    3.903 --   114 C    1.362   108 C    1.345   116 O    1.029
   116   8 O    2.143 --   115 C    1.029   117 C    0.936
   117   6 C    3.909 --   143 H    0.983   144 H    0.980   142 H    0.980
                           116 O    0.936
   118   1 H    1.002 --    74 C    0.972
   119   1 H    0.999 --    76 C    0.976
   120   1 H    1.003 --    77 C    0.975
   121   1 H    1.002 --    82 C    0.975
   122   1 H    1.003 --    83 C    0.974
   123   1 H    1.003 --    88 C    0.974
   124   1 H    1.002 --    89 C    0.975
   125   1 H    1.009 --    95 C    0.980
   126   1 H    1.016 --    95 C    0.983
   127   1 H    1.009 --    95 C    0.980
   128   1 H    1.000 --    96 C    0.969
   129   1 H    1.003 --    97 C    0.974
   130   1 H    1.000 --    98 C    0.969
   131   1 H    1.016 --   101 C    0.983
   132   1 H    1.009 --   101 C    0.980
   133   1 H    1.009 --   101 C    0.980
   134   1 H    1.002 --   103 C    0.975
   135   1 H    0.999 --   104 C    0.976
   136   1 H    1.016 --   111 C    0.983
   137   1 H    1.009 --   111 C    0.980
   138   1 H    1.009 --   111 C    0.980
   139   1 H    1.000 --   112 C    0.969
   140   1 H    1.003 --   113 C    0.974
   141   1 H    1.000 --   114 C    0.969
   142   1 H    1.009 --   117 C    0.980
   143   1 H    1.016 --   117 C    0.983
   144   1 H    1.009 --   117 C    0.980
   145   6 C    3.926 --   146 C    2.367   149 C    1.336   148 C    0.190
   146   6 C    3.926 --   145 C    2.367   147 C    1.336   150 C    0.190
   147   6 C    3.934 --   148 C    2.447   146 C    1.336
   148   6 C    3.890 --   147 C    2.447    14 C    1.193   145 C    0.190
   149   6 C    3.934 --   150 C    2.447   145 C    1.336
   150   6 C    3.890 --   149 C    2.447    86 C    1.193   146 C    0.190
 ---------------------------------------------------------------------------

           -------------------------------------------------
          | TOTAL ENERGY             -258.614407937141 Eh   |
          | GRADIENT NORM               0.000629011334 Eh/α |
          | HOMO-LUMO GAP               1.096812802522 eV   |
           -------------------------------------------------

 * finished run on 2022/07/30 at 15:13:22.899
