   * xtb version 6.5.1 (b24c23e) compiled by 'conda@728c89f4b128' on 2022-07-12
          program call               : xtb Ph2OMe_C6_2.xyz --gfn 1 --opt -T 48

   ID    Z sym.   atoms
    1    6 C      1-5, 7-10, 12-20, 22-26, 28-32, 35, 36, 38-42, 44, 74-78,
                  80-83, 85-93, 95-99, 101-105, 108, 109, 111-115, 117,
                  147-152
    2    7 N      6, 11, 33, 34, 79, 84, 106, 107
    3    8 O      21, 27, 37, 43, 94, 100, 110, 116
    4    1 H      45-73, 118-146
########################################################################
[WARNING] Please study the warnings concerning your input carefully
-1- prog_main_parseArguments: Unknown option '-T' provided
########################################################################

          :  Hamiltonian                  GFN1-xTB          :
 * total energy  :  -258.8710130 Eh     change       -0.2939828E-08 Eh
 * total energy  :  -258.9824126 Eh     change       -0.1113995E+00 Eh
 * total energy  :  -259.0400407 Eh     change       -0.5762809E-01 Eh
 * total energy  :  -259.0563719 Eh     change       -0.1633127E-01 Eh
 * total energy  :  -259.0683429 Eh     change       -0.1197101E-01 Eh
 * total energy  :  -259.0761744 Eh     change       -0.7831441E-02 Eh
 * total energy  :  -259.0822791 Eh     change       -0.6104724E-02 Eh
 * total energy  :  -259.0871331 Eh     change       -0.4854031E-02 Eh
 * total energy  :  -259.0907584 Eh     change       -0.3625244E-02 Eh
 * total energy  :  -259.0932334 Eh     change       -0.2474979E-02 Eh
 * total energy  :  -259.1104209 Eh     change       -0.7308527E-05 Eh
 * total energy  :  -259.1104309 Eh     change       -0.1001679E-04 Eh
 * total energy  :  -259.1104364 Eh     change       -0.5499214E-05 Eh
 * total energy  :  -259.1104442 Eh     change       -0.7709627E-05 Eh
 * total energy  :  -259.1104505 Eh     change       -0.6300994E-05 Eh
 * total energy  :  -259.1104576 Eh     change       -0.7142404E-05 Eh
 * total energy  :  -259.1104639 Eh     change       -0.6316625E-05 Eh
 * total energy  :  -259.1104690 Eh     change       -0.5064700E-05 Eh
 * total energy  :  -259.1104735 Eh     change       -0.4489489E-05 Eh
   *** GEOMETRY OPTIMIZATION CONVERGED AFTER 92 ITERATIONS ***

 final structure:
================
152
 xtb: 6.5.1 (b24c23e)
C           10.84448753563494        0.00183365346510        0.10993044738014
C           11.45503706136919        0.00030846248244        1.35745797276325
C           10.81293608237334       -0.04699951619520        2.62711634926515
C           11.78166141283268       -0.01824381747953        3.59044065068474
C           13.04697982158621        0.04602181281515        2.94021505136299
N           12.79935481606302        0.05587440860057        1.59629786934226
C           14.30941118235619        0.09002161256200        3.53975978762961
C           15.52790105738375        0.10958406024549        2.86068559473534
C           16.81723262695636        0.13020975636395        3.52693990477899
C           17.75057394655021        0.15095624366255        2.55276618606916
N           15.69837355896448        0.13238852984576        1.50964265590721
C           17.02900704381740        0.15127661713168        1.29456618522094
C           17.67647616743927        0.17392210448829        0.04189679712663
C           17.03917763263910        0.19509994350803       -1.21347802290678
C           17.67484222855565        0.23750919622844       -2.48296063127345
C           16.70031599415219        0.26105412970808       -3.44197869967737
C           15.43878190535304        0.23151987000839       -2.78566698293503
C           14.17659362031842        0.24024130721065       -3.38445167464822
C           14.15283521332799        0.25268371544939       -4.87844547178575
C           14.33522751751748        1.39206001049464       -5.66663689626056
O           14.52597117856062        2.65677357946971       -5.20589939517654
C           14.13642784484314        3.08071467855879       -3.91228677123547
C           14.35456586400257        1.28036018674320       -7.06287240449521
C           14.18230666674560        0.05298571656246       -7.66925233232066
C           13.97990870655481       -1.09121946403862       -6.90655474210357
C           13.96881957426669       -0.98801767213057       -5.52037525536912
O           13.80021538788404       -2.05088756907587       -4.68819263723012
C           13.57713504140243       -3.34324462668347       -5.21475862051566
C           12.95853190721409        0.16551356560660       -2.70458549753110
C           11.66333217945995        0.14057764306576       -3.36494694816468
C           10.73742453590155        0.07167917345904       -2.38700180206666
C           11.46674905187129        0.06202837081688       -1.13063605850387
N           12.80126497143133        0.12490490780943       -1.36001176197503
N           15.69557760339843        0.19334915400064       -1.43983560632368
C           14.33151555917522        0.04318868256802        5.03265796958451
C           14.02493660742712        1.12802711832519        5.85893190291117
O           13.70624784051346        2.38019485267668        5.43353279731322
C           14.13320117401692        2.90359595505220        4.18842605989755
C           14.00509450343766        0.96558585335127        7.24954532494800
C           14.30028756272208       -0.25871120710514        7.81411960027751
C           14.62899690904700       -1.34646107343922        7.01399968419807
C           14.64059589279022       -1.19364451693294        5.63212748857330
O           14.92474580311959       -2.20368812439357        4.76658158904653
C           15.28988377150630       -3.47998774503155        5.25141371232393
H            9.76034628029641       -0.04595918651010        0.11438091443268
H            9.74519561695024       -0.09617175480675        2.77021636711497
H           11.64291113904159       -0.04162572081916        4.65923521372565
H           13.51601315257825        0.07752408631430        0.87877061018054
H           16.96042448853915        0.12373398329485        4.59552204580911
H           18.82457836802209        0.16695055338861        2.64837368644996
H           18.74251071763418        0.24904429143032       -2.63228534075034
H           16.83447162301468        0.29296816851160       -4.51102154195786
H           14.84615404604550        2.74717008565187       -3.14742934818054
H           14.13281168278541        4.17312427479177       -3.94062904455379
H           13.13288529910506        2.72351044127837       -3.65827842399915
H           14.50532026406567        2.17932360509344       -7.64701408341289
H           14.19819352668855       -0.02213708571689       -8.75066293880386
H           13.84149879382276       -2.04589195904322       -7.39579900939649
H           13.45672997133054       -4.00471537922182       -4.35480456384425
H           12.66632306733621       -3.37626652701065       -5.82477318902004
H           14.42852830648135       -3.68541107866417       -5.81552720749503
H           11.51515710162335        0.16748581879682       -4.43278958619117
H            9.66283377574963        0.03173571620768       -2.47473573879731
H           14.98250462340496        0.14745077280916       -0.71958687777562
H           15.16912366952157        2.62431886509824        3.97016975370124
H           14.06396017061222        3.99102485232797        4.27541607856724
H           13.48672889068374        2.57089958457669        3.36903661305240
H           13.75626083915548        1.82205373426911        7.86318095845866
H           14.28353769157350       -0.37481856199316        8.89188947242046
H           14.86290441854945       -2.29840462494479        7.47124098358714
H           14.47819209182445       -3.93808616332915        5.82954900789168
H           15.49246913697744       -4.09254880544930        4.37089193870905
H           16.19330214785230       -3.43035177908460        5.87119123142884
C           33.68334011363307       -0.00378410048942       -0.10985176989955
C           33.07281202642002       -0.11677995698268       -1.35226689021358
C           33.71494569158599       -0.27578711084213       -2.61278386617861
C           32.74614451529207       -0.33430948233547       -3.57469086147057
C           31.48076760947786       -0.21409833144693       -2.93259543316682
N           31.72839697752448       -0.08456662263008       -1.59488514730927
C           30.21827952715431       -0.22436143132633       -3.53353706909785
C           28.99979431723991       -0.14458321015059       -2.85893655735028
C           27.71052471069040       -0.18250492607653       -3.52456599089911
C           26.77712091062554       -0.07495954516410       -2.55619008200043
N           28.82920906554626       -0.00220916216319       -1.51524508494637
C           27.49858853563441        0.03633120312986       -1.30284625372754
C           26.85095996964761        0.16946325144501       -0.05712536822287
C           27.48814033469260        0.30098666623834        1.19156127338576
C           26.85246646183399        0.45494064277069        2.45235537579063
C           27.82699337147356        0.56235632323166        3.40565400437214
C           29.08851861112036        0.47495118295215        2.75453106085655
C           30.35073532315173        0.53642687097656        3.35029369798048
C           30.37437384160190        0.68040557833977        4.83734078085099
C           30.18817694978833        1.88440592243759        5.52178183766137
O           29.99414337976056        3.10279037070318        4.95068404867382
C           30.38807341760881        3.41263892242803        3.62636451765795
C           30.16809608930152        1.89647822450729        6.92238733047816
C           30.34358033077891        0.72797115284949        7.63488511213306
C           30.55019884672539       -0.47844238791173        6.97630412807557
C           30.56196500786408       -0.49812090589853        5.58641686543196
O           30.73452692769108       -1.62988460140177        4.85157139817469
C           30.96148627764843       -2.86982060480032        5.49054791325459
C           31.56886902695470        0.40329544795165        2.67957713096794
C           32.86411033282862        0.43858183108267        3.33944445045645
C           33.79017207093283        0.28577313815757        2.37121521433444
C           33.06090713924583        0.16441605744598        1.12064290518246
N           31.72627327426313        0.24495737839656        1.34376100353514
N           28.83176487156325        0.31867605107499        1.41726449642049
C           30.19632728968249       -0.40402218606415       -5.01630578389924
C           30.50401109172410        0.60288485652225       -5.93554905103509
O           30.82301844916503        1.88771977575906       -5.62233279186387
C           30.38987555278270        2.52077689908441       -4.43149680745476
C           30.52521277615326        0.31745947637903       -7.30615877412964
C           30.23001978667601       -0.95212856374753       -7.75983169496198
C           29.89982259777620       -1.96419609394381       -6.86642831763257
C           29.88705428401043       -1.68911327468699       -5.50362902916499
O           29.60154099629981       -2.61806967347423       -4.55196498676293
C           29.23661759269969       -3.93236046696479       -4.92185540814332
H           34.76757510869156       -0.04979566305878       -0.11020658087475
H           34.78275149291977       -0.33590484498942       -2.75115937786150
H           32.88494499991572       -0.45250514539626       -4.63717732916218
H           31.01170587332188       -0.00018820474645       -0.88204388424058
H           27.56743150472470       -0.28356491995133       -4.58839314972112
H           25.70314963747514       -0.06662493156395       -2.65316353945765
H           25.78476839415479        0.48001257671877        2.59983479402732
H           27.69275699159946        0.68817311677498        4.46773280143076
H           29.68180430829098        3.01217028922242        2.89100487011997
H           30.39002853506330        4.50333569980883        3.55896492343241
H           31.39308272221249        3.03629645853819        3.40834793492564
H           30.01423294606027        2.84307361569023        7.42474490499108
H           30.32704340076270        0.74857126168417        8.71869743188553
H           30.69125174159044       -1.38572083413064        7.54802732958418
H           31.08478766206169       -3.60439372365572        4.69257598513589
H           31.87191448409315       -2.84565032685557        6.10155448488596
H           30.11075840229977       -3.16035146641178        6.11881518146261
H           33.01224402021662        0.55943523542885        4.40077232284004
H           34.86483576287863        0.25563193685508        2.46196076916353
H           29.54489121746431        0.20956383300017        0.70390608938627
H           29.35301894473209        2.26150506194512       -4.19399652114636
H           30.45890812033483        3.59594819621731       -4.61554617551890
H           31.03236895267193        2.26377082661002       -3.58224413686328
H           30.77514630994658        1.11586338926115       -7.99324805220558
H           30.24784025628046       -1.16369842778436       -8.82297251439147
H           29.66580847166338       -2.95289718038873       -7.23748344498575
H           30.04893149789775       -4.44019607554058       -5.45588607920895
H           29.03268511166177       -4.46416682827373       -3.99062707452198
H           28.33403014080008       -3.93786107724838       -5.54479626809060
C           22.87798082331312        0.18280917329178       -0.01658292577302
C           21.64941894491826        0.18341392821313       -0.00273302312859
C           20.30544881297485        0.18201126378698        0.01352874517020
C           19.08131143252518        0.18076560269737        0.02911160955019
C           24.22197284223697        0.18037710704065       -0.03109585508456
C           25.44612739451737        0.17736274479368       -0.04575612214448

          :  Hamiltonian                  GFN1-xTB          :
         :: total energy            -259.110473468440 Eh    ::
         :: gradient norm              0.000479940960 Eh/a0 ::
         :: HOMO-LUMO gap              1.004730021628 eV    ::
         :: SCC energy              -262.859377272942 Eh    ::
         :: repulsion energy           3.879473518884 Eh    ::

    * Orbital Energies and Occupations

         #    Occupation            Energy/Eh            Energy/eV
      -------------------------------------------------------------
         1        2.0000           -0.8080410             -21.9879
       ...           ...                  ...                  ...
       217        2.0000           -0.4118502             -11.2070
       218        2.0000           -0.4112201             -11.1899
       219        2.0000           -0.4108856             -11.1808
       220        2.0000           -0.4106731             -11.1750
       221        2.0000           -0.4106471             -11.1743
       222        2.0000           -0.4106112             -11.1733
       223        2.0000           -0.4102384             -11.1632
       224        2.0000           -0.4100031             -11.1568
       225        2.0000           -0.4083906             -11.1129
       226        2.0000           -0.3937860             -10.7155
       227        2.0000           -0.3934428             -10.7061
       228        2.0000           -0.3823049             -10.4030
       229        2.0000           -0.3730673             -10.1517 (HOMO)
       230                         -0.3361441              -9.1469 (LUMO)
       231                         -0.3252898              -8.8516
       232                         -0.3248355              -8.8392
       233                         -0.3246292              -8.8336
       234                         -0.2951748              -8.0321
       235                         -0.2872828              -7.8174
       236                         -0.2802158              -7.6251
       237                         -0.2579813              -7.0200
       238                         -0.2564562              -6.9785
       239                         -0.2564285              -6.9778
       240                         -0.2561287              -6.9696
       ...                                ...                  ...
       492                          1.5834595              43.0881
      -------------------------------------------------------------
                  HL-Gap            0.0369231 Eh            1.0047 eV

Wiberg/Mayer (AO) data.
largest (>0.10) Wiberg bond orders for each atom

     #   Z sym  total        # sym  WBO       # sym  WBO       # sym  WBO
 ---------------------------------------------------------------------------
     1   6 C    3.925 --    32 C    1.364     2 C    1.347    45 H    0.971
     2   6 C    3.903 --     1 C    1.347     3 C    1.229     6 N    1.170
     3   6 C    3.954 --     4 C    1.597     2 C    1.229    46 H    0.977
     4   6 C    3.960 --     3 C    1.597     5 C    1.233    47 H    0.975
     5   6 C    3.895 --     7 C    1.305     4 C    1.233     6 N    1.172
     6   7 N    3.467 --     5 C    1.172     2 C    1.170    48 H    0.874
     7   6 C    3.939 --     8 C    1.341     5 C    1.305    35 C    1.007
     8   6 C    3.915 --     7 C    1.341    11 N    1.281     9 C    1.125
     9   6 C    3.966 --    10 C    1.710     8 C    1.125    49 H    0.975
    10   6 C    3.964 --     9 C    1.710    12 C    1.129    50 H    0.974
    11   7 N    3.022 --    12 C    1.347     8 C    1.281
    12   6 C    3.910 --    11 N    1.347    13 C    1.252    10 C    1.129
    13   6 C    3.937 --    12 C    1.252    14 C    1.250   150 C    1.194
    14   6 C    3.885 --    13 C    1.250    15 C    1.248    34 N    1.190
    15   6 C    3.959 --    16 C    1.585    14 C    1.248    51 H    0.975
    16   6 C    3.955 --    15 C    1.585    17 C    1.239    52 H    0.975
    17   6 C    3.898 --    18 C    1.314    16 C    1.239    34 N    1.159
    18   6 C    3.924 --    29 C    1.325    17 C    1.314    19 C    1.005
    19   6 C    3.974 --    20 C    1.370    26 C    1.320    18 C    1.005
    20   6 C    3.904 --    19 C    1.370    23 C    1.339    21 O    1.030
    21   8 O    2.137 --    20 C    1.030    22 C    0.926
    22   6 C    3.902 --    54 H    0.983    55 H    0.979    53 H    0.978
                            21 O    0.926
    23   6 C    3.985 --    24 C    1.473    20 C    1.339    56 H    0.971
    24   6 C    3.994 --    23 C    1.473    25 C    1.418    57 H    0.974
    25   6 C    3.981 --    24 C    1.418    26 C    1.384    58 H    0.969
    26   6 C    3.903 --    25 C    1.384    19 C    1.320    27 O    1.030
    27   8 O    2.143 --    26 C    1.030    28 C    0.935
    28   6 C    3.907 --    59 H    0.983    60 H    0.980    61 H    0.980
                            27 O    0.935
    29   6 C    3.929 --    18 C    1.325    33 N    1.312    30 C    1.118
    30   6 C    3.967 --    31 C    1.722    29 C    1.118    62 H    0.975
    31   6 C    3.966 --    30 C    1.722    32 C    1.117    63 H    0.976
    32   6 C    3.931 --     1 C    1.364    33 N    1.302    31 C    1.117
    33   7 N    3.011 --    29 C    1.312    32 C    1.302
    34   7 N    3.472 --    14 C    1.190    17 C    1.159    64 H    0.873
    35   6 C    3.975 --    36 C    1.369    42 C    1.321     7 C    1.007
    36   6 C    3.904 --    35 C    1.369    39 C    1.342    37 O    1.027
    37   8 O    2.132 --    36 C    1.027    38 C    0.926
    38   6 C    3.902 --    66 H    0.983    65 H    0.980    67 H    0.978
                            37 O    0.926
    39   6 C    3.986 --    40 C    1.471    36 C    1.342    68 H    0.971
    40   6 C    3.994 --    39 C    1.471    41 C    1.419    69 H    0.974
    41   6 C    3.982 --    40 C    1.419    42 C    1.383    70 H    0.969
    42   6 C    3.904 --    41 C    1.383    35 C    1.321    43 O    1.030
    43   8 O    2.143 --    42 C    1.030    44 C    0.935
    44   6 C    3.907 --    72 H    0.983    73 H    0.980    71 H    0.980
                            43 O    0.935
    45   1 H    1.002 --     1 C    0.971
    46   1 H    0.998 --     3 C    0.977
    47   1 H    1.001 --     4 C    0.975
    48   1 H    0.987 --     6 N    0.874
    49   1 H    1.003 --     9 C    0.975
    50   1 H    1.003 --    10 C    0.974
    51   1 H    1.002 --    15 C    0.975
    52   1 H    1.001 --    16 C    0.975
    53   1 H    1.018 --    22 C    0.978
    54   1 H    1.015 --    22 C    0.983
    55   1 H    1.014 --    22 C    0.979
    56   1 H    1.001 --    23 C    0.971
    57   1 H    1.003 --    24 C    0.974
    58   1 H    0.999 --    25 C    0.969
    59   1 H    1.016 --    28 C    0.983
    60   1 H    1.009 --    28 C    0.980
    61   1 H    1.009 --    28 C    0.980
    62   1 H    1.003 --    30 C    0.975
    63   1 H    0.999 --    31 C    0.976
    64   1 H    0.988 --    34 N    0.873
    65   1 H    1.013 --    38 C    0.980
    66   1 H    1.015 --    38 C    0.983
    67   1 H    1.019 --    38 C    0.978
    68   1 H    1.001 --    39 C    0.971
    69   1 H    1.003 --    40 C    0.974
    70   1 H    1.000 --    41 C    0.969
    71   1 H    1.009 --    44 C    0.980
    72   1 H    1.016 --    44 C    0.983
    73   1 H    1.009 --    44 C    0.980
    74   6 C    3.925 --   105 C    1.364    75 C    1.347   118 H    0.971
    75   6 C    3.903 --    74 C    1.347    76 C    1.229    79 N    1.170
    76   6 C    3.954 --    77 C    1.597    75 C    1.229   119 H    0.977
    77   6 C    3.960 --    76 C    1.597    78 C    1.233   120 H    0.975
    78   6 C    3.895 --    80 C    1.305    77 C    1.233    79 N    1.172
    79   7 N    3.467 --    78 C    1.172    75 C    1.170   121 H    0.874
    80   6 C    3.939 --    81 C    1.341    78 C    1.305   108 C    1.007
    81   6 C    3.915 --    80 C    1.341    84 N    1.281    82 C    1.125
    82   6 C    3.966 --    83 C    1.710    81 C    1.125   122 H    0.975
    83   6 C    3.964 --    82 C    1.710    85 C    1.129   123 H    0.974
    84   7 N    3.022 --    85 C    1.347    81 C    1.281
    85   6 C    3.910 --    84 N    1.347    86 C    1.251    83 C    1.129
    86   6 C    3.937 --    85 C    1.251    87 C    1.250   152 C    1.194
    87   6 C    3.885 --    86 C    1.250    88 C    1.248   107 N    1.190
    88   6 C    3.959 --    89 C    1.585    87 C    1.248   124 H    0.975
    89   6 C    3.955 --    88 C    1.585    90 C    1.239   125 H    0.975
    90   6 C    3.898 --    91 C    1.314    89 C    1.239   107 N    1.159
    91   6 C    3.924 --   102 C    1.325    90 C    1.314    92 C    1.005
    92   6 C    3.974 --    93 C    1.370    99 C    1.320    91 C    1.005
    93   6 C    3.904 --    92 C    1.370    96 C    1.339    94 O    1.030
    94   8 O    2.136 --    93 C    1.030    95 C    0.926
    95   6 C    3.902 --   127 H    0.983   128 H    0.979   126 H    0.978
                            94 O    0.926
    96   6 C    3.985 --    97 C    1.473    93 C    1.339   129 H    0.971
    97   6 C    3.994 --    96 C    1.473    98 C    1.418   130 H    0.974
    98   6 C    3.981 --    97 C    1.418    99 C    1.384   131 H    0.969
    99   6 C    3.903 --    98 C    1.384    92 C    1.320   100 O    1.030
   100   8 O    2.143 --    99 C    1.030   101 C    0.935
   101   6 C    3.907 --   132 H    0.983   133 H    0.980   134 H    0.980
                           100 O    0.935
   102   6 C    3.929 --    91 C    1.325   106 N    1.312   103 C    1.118
   103   6 C    3.967 --   104 C    1.722   102 C    1.118   135 H    0.975
   104   6 C    3.966 --   103 C    1.722   105 C    1.117   136 H    0.976
   105   6 C    3.931 --    74 C    1.364   106 N    1.302   104 C    1.117
   106   7 N    3.011 --   102 C    1.312   105 C    1.302
   107   7 N    3.472 --    87 C    1.190    90 C    1.159   137 H    0.873
   108   6 C    3.975 --   109 C    1.369   115 C    1.321    80 C    1.007
   109   6 C    3.904 --   108 C    1.369   112 C    1.342   110 O    1.027
   110   8 O    2.132 --   109 C    1.027   111 C    0.926
   111   6 C    3.902 --   139 H    0.983   138 H    0.980   140 H    0.978
                           110 O    0.926
   112   6 C    3.986 --   113 C    1.471   109 C    1.342   141 H    0.971
   113   6 C    3.994 --   112 C    1.471   114 C    1.419   142 H    0.974
   114   6 C    3.982 --   113 C    1.419   115 C    1.383   143 H    0.969
   115   6 C    3.904 --   114 C    1.383   108 C    1.321   116 O    1.030
   116   8 O    2.143 --   115 C    1.030   117 C    0.935
   117   6 C    3.907 --   145 H    0.983   146 H    0.980   144 H    0.980
                           116 O    0.935
   118   1 H    1.002 --    74 C    0.971
   119   1 H    0.998 --    76 C    0.977
   120   1 H    1.001 --    77 C    0.975
   121   1 H    0.987 --    79 N    0.874
   122   1 H    1.003 --    82 C    0.975
   123   1 H    1.003 --    83 C    0.974
   124   1 H    1.002 --    88 C    0.975
   125   1 H    1.001 --    89 C    0.975
   126   1 H    1.018 --    95 C    0.978
   127   1 H    1.015 --    95 C    0.983
   128   1 H    1.014 --    95 C    0.979
   129   1 H    1.001 --    96 C    0.971
   130   1 H    1.003 --    97 C    0.974
   131   1 H    0.999 --    98 C    0.969
   132   1 H    1.016 --   101 C    0.983
   133   1 H    1.009 --   101 C    0.980
   134   1 H    1.009 --   101 C    0.980
   135   1 H    1.003 --   103 C    0.975
   136   1 H    0.999 --   104 C    0.976
   137   1 H    0.988 --   107 N    0.873
   138   1 H    1.013 --   111 C    0.980
   139   1 H    1.015 --   111 C    0.983
   140   1 H    1.019 --   111 C    0.978
   141   1 H    1.001 --   112 C    0.971
   142   1 H    1.003 --   113 C    0.974
   143   1 H    1.000 --   114 C    0.969
   144   1 H    1.009 --   117 C    0.980
   145   1 H    1.016 --   117 C    0.983
   146   1 H    1.009 --   117 C    0.980
   147   6 C    3.925 --   148 C    2.365   151 C    1.337   150 C    0.190
   148   6 C    3.925 --   147 C    2.365   149 C    1.337   152 C    0.190
   149   6 C    3.932 --   150 C    2.446   148 C    1.337
   150   6 C    3.890 --   149 C    2.446    13 C    1.194   147 C    0.190
   151   6 C    3.932 --   152 C    2.446   147 C    1.337
   152   6 C    3.890 --   151 C    2.446    86 C    1.194   148 C    0.190
 ---------------------------------------------------------------------------

           -------------------------------------------------
          | TOTAL ENERGY             -259.110473468440 Eh   |
          | GRADIENT NORM               0.000479940960 Eh/α |
          | HOMO-LUMO GAP               1.004730021628 eV   |
           -------------------------------------------------

 * finished run on 2022/07/30 at 15:33:19.403
