   * xtb version 6.5.1 (b24c23e) compiled by 'conda@728c89f4b128' on 2022-07-12
          program call               : xtb Co_Ph3OH_C8_3.xyz --gfn 1 --opt -T 48

   ID    Z sym.   atoms
    1   27 Co     1, 63, 141
    2    6 C      2-6, 8-11, 13, 15, 17-20, 22-27, 29-32, 34, 36, 38-42,
                  64-68, 70-73, 75, 77, 79-82, 84-89, 91-94, 96, 98, 100-104,
                  125-140, 142-146, 148-151, 153, 155, 157-160, 162-167,
                  169-172, 174, 176, 178-182
    3    7 N      7, 21, 28, 43, 69, 83, 90, 105, 147, 161, 168, 183
    4    8 O      12, 14, 16, 33, 35, 37, 74, 76, 78, 95, 97, 99, 152, 154,
                  156, 173, 175, 177
    5    1 H      44-62, 106-124, 184-201

          :  Hamiltonian                  GFN1-xTB          :
 * total energy  :  -398.9332382 Eh     change       -0.1091672E-07 Eh
 * total energy  :  -399.4095034 Eh     change       -0.4762652E+00 Eh
 * total energy  :  -399.5841976 Eh     change       -0.1746943E+00 Eh
 * total energy  :  -399.6840932 Eh     change       -0.9989559E-01 Eh
 * total energy  :  -399.7648759 Eh     change       -0.8078263E-01 Eh
 * total energy  :  -399.8410181 Eh     change       -0.7614228E-01 Eh
 * total energy  :  -399.9013872 Eh     change       -0.6036902E-01 Eh
 * total energy  :  -399.9370989 Eh     change       -0.3571169E-01 Eh
 * total energy  :  -399.9640524 Eh     change       -0.2695358E-01 Eh
 * total energy  :  -399.9826709 Eh     change       -0.1861841E-01 Eh
 * total energy  :  -400.0692174 Eh     change       -0.4357611E-04 Eh
 * total energy  :  -400.0692574 Eh     change       -0.4005365E-04 Eh
 * total energy  :  -400.0692884 Eh     change       -0.3096612E-04 Eh
 * total energy  :  -400.0693159 Eh     change       -0.2747545E-04 Eh
 * total energy  :  -400.0693179 Eh     change       -0.2073857E-05 Eh
 * total energy  :  -400.0693166 Eh     change        0.1312369E-05 Eh
 * total energy  :  -400.0693259 Eh     change       -0.9232249E-05 Eh
 * total energy  :  -400.0693375 Eh     change       -0.1165844E-04 Eh
 * total energy  :  -400.0693417 Eh     change       -0.4219524E-05 Eh
   *** GEOMETRY OPTIMIZATION CONVERGED AFTER 98 ITERATIONS ***

 final structure:
================
201
 xtb: 6.5.1 (b24c23e)
Co          28.22053286387439        0.00467318373317       -0.01139918454920
C           24.84497051912756        0.04284896499438       -0.00395757165106
C           25.51142075978908        1.22542759277913       -0.24147265422263
C           24.85191599610340        2.47216700705363       -0.48363487564516
C           25.81340819968752        3.42433234290530       -0.48992626938775
C           27.06075206797526        2.75737446450459       -0.25300739121939
N           26.86900622558254        1.40306568820522       -0.14749395856042
C           28.25293461970158        3.41690778551781        0.01582713528273
C           28.25914619319829        4.90085590161555        0.04044205573557
C           28.00842535074576        5.62253954615272       -1.12602864024431
C           28.00628035011676        7.01250604087007       -1.09730887964103
O           27.76767789925271        7.72515390296399       -2.22498593797801
C           28.24973095395643        7.68369601616295        0.10214178557415
O           28.23596752506359        9.05389981107279        0.10066291625259
C           28.49832400704554        6.96162854616161        1.26652958486795
O           28.72458880388797        7.68945056268967        2.40502639484547
C           28.50691629488588        5.57237478363884        1.24015639524510
C           29.42821210100417        2.73242155911126        0.28378541402615
C           30.67924709772805        3.37056926828638        0.56483648734127
C           31.62004512767263        2.39658938914720        0.58679693221240
N           29.60072317572011        1.37090405806333        0.16678015369834
C           30.94449373945161        1.16911706541401        0.30788249444433
C           31.61512910530908       -0.03266522540321        0.06285501227166
C           30.93033836261564       -1.21639054041549       -0.22575862311609
C           31.58530327938217       -2.44551457669467       -0.54432995734883
C           30.62040523370636       -3.39398804048616       -0.60799727964028
C           29.38024721581927       -2.74201834847933       -0.31108317219524
N           29.57833350289091       -1.38993237822539       -0.13829659547945
C           28.17994263439209       -3.40736363026167       -0.11842296577889
C           28.15140339770256       -4.88774327092350       -0.18625309244872
C           28.91552739657679       -5.64840049639082        0.69877240627132
C           28.87519542524186       -7.03654466070432        0.63834496229751
O           29.60369989109470       -7.78596695313465        1.50110157468691
C           28.07748173439580       -7.66826969104563       -0.31725483448361
O           28.06092748253837       -9.03764420284638       -0.35572954929417
C           27.31960701190567       -6.90813608517915       -1.20465864291708
O           26.56634081830994       -7.59866495483161       -2.11737970192357
C           27.34851663083161       -5.52093346252532       -1.13919366109264
C           26.99718488613015       -2.72579671998472        0.14006150644038
C           25.74575744128564       -3.36620470358346        0.42116712326273
C           24.80676452303794       -2.39148338341223        0.45857506479597
C           25.48704340272661       -1.15808121181412        0.20648368943750
N           26.83695369578692       -1.36620850852159        0.07068887288046
H           23.76150774740050        0.05716232244037        0.01223597287680
H           23.78712726020060        2.58495615137406       -0.61212441774113
H           25.69884683218802        4.48815617282457       -0.61925495275069
H           27.83075808507773        5.11207891928805       -2.06370578726634
H           27.80775788926988        8.67008620549243       -2.00311385339101
H           28.42024065570445        9.35571926853690        1.00441956731741
H           28.88652853127071        7.10747140570131        3.15909612716540
H           28.68516858313490        5.01617214087982        2.15294316856265
H           30.81373528339614        4.43091648701724        0.70345868104221
H           32.68145053445641        2.48723880499353        0.75265608374413
H           32.64780585527595       -2.55191462641247       -0.69298560744012
H           30.72732162334836       -4.44329141127161       -0.82955421849174
H           29.52653142122581       -5.16914738699843        1.45258999706990
H           29.44151066075396       -8.72313005973078        1.30333918730667
H           27.46271926819852       -9.30947732269686       -1.07009951202607
H           26.08133640971701       -6.99217912959872       -2.69222004782841
H           26.76451863949300       -4.93514969771492       -1.83922425806326
H           25.61661547501689       -4.42608918395821        0.56979905695258
H           23.74585857882125       -2.48014116319093        0.63092188560637
Co          65.25048232091881       -0.04833017475599        0.04919078049950
C           68.62429935253263       -0.09258015757103        0.10726601542675
C           67.96268723514513       -1.23671985994633       -0.28373828313707
C           68.62541430478953       -2.44397687343133       -0.67243003343969
C           67.66269089050580       -3.38253099014522       -0.82616224984549
C           66.41186997357511       -2.74814698258845       -0.52621503740728
N           66.60341410691821       -1.41995505104707       -0.24092401442439
C           65.21716103470142       -3.43546232020293       -0.35611485237950
C           65.21072604331387       -4.90913132015678       -0.53166279766899
C           65.46550381941674       -5.46530349141366       -1.78471958760173
C           65.46835097812325       -6.84620283801354       -1.94556896907901
O           65.71082806430967       -7.39857146435364       -3.15899788668702
C           65.22194314054451       -7.67446389449985       -0.84930602483470
O           65.23673924033839       -9.03171823715248       -1.03712544102984
C           64.97011824974682       -7.11763097147255        0.40187918856156
O           64.74192561012083       -7.99373372035069        1.43026758597413
C           64.96070366293264       -5.73770491537313        0.56493695744526
C           64.04291339198558       -2.79172914633500        0.00269599594132
C           62.79405523269248       -3.46028466653393        0.21343865164648
C           61.85611961850137       -2.49699884863780        0.37706818185618
N           63.87157123849101       -1.42656098091716        0.06487504288755
C           62.53010654412420       -1.24397734288407        0.24829691766610
C           61.85757360472016       -0.02200964173138        0.15483855480464
C           62.53953929895138        1.18614461101444       -0.01681287353862
C           61.88240326110429        2.44009343210530       -0.20900562406627
C           62.84787738694526        3.39006467975289       -0.19583274855469
C           64.09022282860334        2.71303216726433        0.02676217525626
N           63.89232178975168        1.35039925781785        0.07163402083349
C           65.29066145769860        3.35624837423091        0.28223489635100
C           65.32130685670565        4.83623113163022        0.35631251945302
C           64.55635326910370        5.51011333952592        1.30837851693143
C           64.59912703934384        6.89762057268933        1.38108812735204
O           63.86975888500788        7.56225055214043        2.30993197725317
C           65.39996153979182        7.61627351051448        0.49170558032688
O           65.41843453314770        8.98291242282589        0.58409205000999
C           66.15905738633630        6.94299922895815       -0.46234464381534
O           66.91582873782829        7.71623586815691       -1.30289508453310
C           66.12825877962401        5.55588495456159       -0.52941690174851
C           66.47089354573161        2.65157905933074        0.48574698726635
C           67.71715797766475        3.25899709616820        0.85004104203140
C           68.65391586823178        2.28187237708999        0.81624792384730
C           67.97825582924617        1.08050572170121        0.43163566991714
N           66.63149678147161        1.30492666419668        0.28884526095133
H           69.70713723776423       -0.11178234976405        0.14538430816461
H           69.69246129393275       -2.54328770495233       -0.79303160730628
H           67.77810193527404       -4.42029195649273       -1.09334289866244
H           65.64616114883557       -4.83172637445086       -2.64339358690937
H           65.67017395403929       -8.36492273587105       -3.06821426464376
H           65.05018169802409       -9.45375547649785       -0.18337008795184
H           64.57758011158944       -7.51979775595830        2.25604955883595
H           64.78075294174810       -5.31125022618154        1.54476614877535
H           62.65863595567697       -4.52953140439914        0.21430556444649
H           60.79689636025610       -2.60802551314196        0.54447057433676
H           60.81850677183790        2.56031796729668       -0.33551624693003
H           62.73981601728547        4.45545514740135       -0.31734929399081
H           63.94278723537254        4.96206945755430        2.01169280640143
H           64.03265227070480        8.51391859971186        2.20251012915259
H           66.01756067173235        9.32105005624326       -0.10044549773014
H           67.39961798219919        7.16694543429320       -1.93339734103757
H           66.71417139432290        5.03828299220165       -1.27987505228316
H           67.84416182700546        4.29987711054902        1.10012857583861
H           69.71105731801887        2.35062011316213        1.01831393732375
C           33.01648309415553       -0.04658580954269        0.09212041105837
C           34.24197552612328       -0.05568732219343        0.11127606453076
C           35.58270266756773       -0.05934108299158        0.12869083993274
C           36.81481645434437       -0.05796807992988        0.13999369106950
C           38.15062217235545       -0.06019796949873        0.14873129151111
C           39.38293481915552       -0.05972084775772        0.15133395092032
C           40.72322586599189       -0.04750675609489        0.14246039360033
C           41.94922416050191       -0.03855802604642        0.12510908332027
C           51.52551188715154       -0.00863038781088        0.21558993806960
C           52.75122211258113       -0.00335553117767        0.24825282172138
C           54.09120253150176        0.00078854526153        0.27242169644114
C           55.32351947300927        0.00529859599776        0.27973895944851
C           56.65919698382135        0.00450958901436        0.27829433080483
C           57.89128648645953        0.00318459192653        0.26419897553870
C           59.23171049481240       -0.00310437504687        0.23795757491627
C           60.45689913539542       -0.01135236216885        0.20223520670904
Co          46.73825841887916       -0.01768723734262        0.07883651267416
C           43.34872788005875       -0.03017625081133        0.09710156341675
C           44.03291550777853        1.13491762665331        0.46167919869344
C           43.38797071971561        2.33273341217040        0.89444608266397
C           44.33704369206241        3.30195559777817        0.90484789065137
C           45.55694181347921        2.68975295718167        0.47517870573870
N           45.36943977051986        1.34369024919647        0.27031441823044
C           46.72812374113264        3.38098244371982        0.18714265368325
C           46.71382668668703        4.85946038139702        0.22397719385992
C           47.59396443056926        5.55648764134807        1.05367170082302
C           47.58562113212827        6.94753109898310        1.09943894125670
O           48.42791028136669        7.63678426129818        1.91161258663366
C           46.69284366694608        7.66305809694121        0.29406339857832
O           46.66650862390776        9.01985195512579        0.30997698097480
C           45.81702840217377        6.95827729284958       -0.53684912613308
O           44.97249713585637        7.71950633847182       -1.30228463824890
C           45.81431047199616        5.57144693350578       -0.57311595713395
C           47.91047750101755        2.71986558528892       -0.11868759809117
C           49.14494843845745        3.36934139377877       -0.44050990540771
C           50.10604205604638        2.41275515208527       -0.42172299567571
N           48.10334583296717        1.36235178487353        0.00167395284206
C           49.45150977646775        1.18197353893568       -0.11366329638393
C           50.12679311774618       -0.01276438107065        0.16355107741233
C           49.43746937942731       -1.21456741293612        0.35861712804832
C           50.07652921566894       -2.46107971060679        0.63661114088874
C           49.12936075036500       -3.42158453744654        0.49827849281017
C           47.91587013896503       -2.75524550740321        0.13484556920315
N           48.10468614472005       -1.39389078562803        0.11773327163532
C           46.75154273662041       -3.39935650441148       -0.26474506270712
C           46.76662366279374       -4.87149907231108       -0.42484991544947
C           47.66981956684463       -5.46412305905978       -1.30888587409950
C           47.67526354999991       -6.84397269796634       -1.47371193750816
O           48.53240752265357       -7.42953172214863       -2.34211971235555
C           46.78336574299511       -7.63425676141598       -0.74509880368121
O           46.82572838091393       -9.00644071500490       -0.93758789476943
C           45.90994925444294       -7.04717076202972        0.16851571453659
O           45.06171992599967       -7.81662177499973        0.90982423507892
C           45.88789409243029       -5.66468350907685        0.31410119653351
C           45.57383133607466       -2.70341699145629       -0.50148074505942
C           44.34544145929387       -3.30586038953494       -0.92322463979464
C           43.38280771844091       -2.35949416487755       -0.79671679252602
C           44.03038060883874       -1.17863799587882       -0.32205944310150
N           45.37700932380565       -1.37302531968892       -0.20916680841270
H           42.34156720202242        2.41046376821177        1.14215080891761
H           44.22999120216912        4.33852154924542        1.18033749254518
H           48.27898246167671        5.01234921122442        1.69402544264338
H           48.99341753129510        7.03896563618328        2.41799751695294
H           45.98481725724053        9.31852735812248       -0.31353813536985
H           44.40475820944516        7.16123082394885       -1.84930503856668
H           45.13514323023836        5.04863997303092       -1.23617130327434
H           49.25459970179390        4.42146923303099       -0.64691285446807
H           51.16483543546954        2.51691613900728       -0.59606880480886
H           51.11885271832728       -2.57237526612605        0.88848298881082
H           49.23318525534768       -4.48641028275287        0.62860745102108
H           48.35009995071281       -4.85831523410695       -1.89331295828016
H           48.38578855290450       -8.38999641240539       -2.31713922377716
H           45.93434646242624       -9.37891538987216       -0.94962236733972
H           45.36527971450041       -8.73519843987270        0.92601295593762
H           45.20671707300852       -5.22028521876459        1.02812560666713
H           44.24095176148882       -4.32386169069984       -1.26129324626508
H           42.32686769345915       -2.44013585146719       -0.99854790887291

          :  Hamiltonian                  GFN1-xTB          :
         :: total energy            -400.069341736567 Eh    ::
         :: gradient norm              0.000902471027 Eh/a0 ::
         :: HOMO-LUMO gap              0.003998241398 eV    ::
         :: SCC energy              -405.732257348676 Eh    ::
         :: repulsion energy           5.838808127790 Eh    ::

    * Orbital Energies and Occupations

         #    Occupation            Energy/Eh            Energy/eV
      -------------------------------------------------------------
         1        2.0000           -0.8148950             -22.1744
       ...           ...                  ...                  ...
       338        2.0000           -0.3951069             -10.7514
       339        2.0000           -0.3950056             -10.7486
       340        2.0000           -0.3945404             -10.7360
       341        1.9999           -0.3921709             -10.6715
       342        1.9998           -0.3919923             -10.6667
       343        1.9998           -0.3917865             -10.6611
       344        1.9998           -0.3917759             -10.6608
       345        1.9998           -0.3917015             -10.6587
       346        1.9998           -0.3916824             -10.6582
       347        1.9981           -0.3895902             -10.6013
       348        1.6653           -0.3844563             -10.4616
       349        1.1363           -0.3831072             -10.4249
       350        1.1358           -0.3831062             -10.4248 (HOMO)
       351        1.0655           -0.3829592             -10.4209 (LUMO)
       352                         -0.3458053              -9.4098
       353                         -0.3360404              -9.1441
       354                         -0.3310068              -9.0072
       355                         -0.3302632              -8.9869
       356                         -0.3278469              -8.9212
       357                         -0.3277742              -8.9192
       358                         -0.3120655              -8.4917
       359                         -0.3062361              -8.3331
       360                         -0.3060271              -8.3274
       361                         -0.2994237              -8.1477
       ...                                ...                  ...
       707                          1.5988196              43.5061
      -------------------------------------------------------------
                  HL-Gap            0.0001469 Eh            0.0040 eV

Wiberg/Mayer (AO) data.
largest (>0.10) Wiberg bond orders for each atom

     #   Z sym  total        # sym  WBO       # sym  WBO       # sym  WBO
 ---------------------------------------------------------------------------
     1  27 Co   3.017 --     7 N    0.636    43 N    0.634    21 N    0.631
                            28 N    0.630
     2   6 C    3.927 --     3 C    1.365    42 C    1.365    44 H    0.970
     3   6 C    3.925 --     2 C    1.365     7 N    1.202     4 C    1.174
     4   6 C    3.960 --     5 C    1.650     3 C    1.174    45 H    0.975
     5   6 C    3.963 --     4 C    1.650     6 C    1.176    46 H    0.972
     6   6 C    3.919 --     8 C    1.320     7 N    1.213     5 C    1.176
     7   7 N    3.345 --     6 C    1.213     3 C    1.202     1 Co   0.636
     8   6 C    3.931 --    18 C    1.336     6 C    1.320     9 C    1.022
     9   6 C    3.988 --    10 C    1.401    17 C    1.388     8 C    1.022
    10   6 C    3.977 --     9 C    1.401    11 C    1.379    47 H    0.970
    11   6 C    3.917 --    10 C    1.379    13 C    1.324    12 O    1.053
    12   8 O    2.049 --    11 C    1.053    48 H    0.847
    13   6 C    3.905 --    15 C    1.341    11 C    1.324    14 O    1.021
    14   8 O    2.021 --    13 C    1.021    49 H    0.846
    15   6 C    3.905 --    17 C    1.383    13 C    1.341    16 O    1.014
    16   8 O    2.025 --    15 C    1.014    50 H    0.861
    17   6 C    3.973 --     9 C    1.388    15 C    1.383    51 H    0.970
    18   6 C    3.916 --     8 C    1.336    21 N    1.192    19 C    1.181
    19   6 C    3.958 --    20 C    1.638    18 C    1.181    52 H    0.973
    20   6 C    3.961 --    19 C    1.638    22 C    1.189    53 H    0.973
    21   7 N    3.346 --    22 C    1.234    18 C    1.192     1 Co   0.631
    22   6 C    3.903 --    23 C    1.256    21 N    1.234    20 C    1.189
    23   6 C    3.932 --    22 C    1.256    24 C    1.256   125 C    1.197
    24   6 C    3.903 --    23 C    1.256    28 N    1.235    25 C    1.189
    25   6 C    3.961 --    26 C    1.638    24 C    1.189    54 H    0.973
    26   6 C    3.958 --    25 C    1.638    27 C    1.180    55 H    0.973
    27   6 C    3.917 --    29 C    1.337    28 N    1.191    26 C    1.180
    28   7 N    3.346 --    24 C    1.235    27 C    1.191     1 Co   0.630
    29   6 C    3.932 --    27 C    1.337    39 C    1.314    30 C    1.028
    30   6 C    3.988 --    31 C    1.398    38 C    1.385    29 C    1.028
    31   6 C    3.977 --    30 C    1.398    32 C    1.380    56 H    0.970
    32   6 C    3.918 --    31 C    1.380    34 C    1.324    33 O    1.053
    33   8 O    2.049 --    32 C    1.053    57 H    0.847
    34   6 C    3.904 --    36 C    1.340    32 C    1.324    35 O    1.021
    35   8 O    2.021 --    34 C    1.021    58 H    0.846
    36   6 C    3.905 --    38 C    1.385    34 C    1.340    37 O    1.014
    37   8 O    2.025 --    36 C    1.014    59 H    0.861
    38   6 C    3.973 --    36 C    1.385    30 C    1.385    60 H    0.969
    39   6 C    3.919 --    29 C    1.314    43 N    1.216    40 C    1.178
    40   6 C    3.963 --    41 C    1.646    39 C    1.178    61 H    0.973
    41   6 C    3.959 --    40 C    1.646    42 C    1.176    62 H    0.975
    42   6 C    3.925 --     2 C    1.365    43 N    1.200    41 C    1.176
    43   7 N    3.345 --    39 C    1.216    42 C    1.200     1 Co   0.634
    44   1 H    1.000 --     2 C    0.970
    45   1 H    0.998 --     4 C    0.975
    46   1 H    1.005 --     5 C    0.972
    47   1 H    0.999 --    10 C    0.970
    48   1 H    0.877 --    12 O    0.847
    49   1 H    0.876 --    14 O    0.846
    50   1 H    0.881 --    16 O    0.861
    51   1 H    1.000 --    17 C    0.970
    52   1 H    1.005 --    19 C    0.973
    53   1 H    1.001 --    20 C    0.973
    54   1 H    1.001 --    25 C    0.973
    55   1 H    1.005 --    26 C    0.973
    56   1 H    1.000 --    31 C    0.970
    57   1 H    0.878 --    33 O    0.847
    58   1 H    0.876 --    35 O    0.846
    59   1 H    0.881 --    37 O    0.861
    60   1 H    1.001 --    38 C    0.969
    61   1 H    1.005 --    40 C    0.973
    62   1 H    0.998 --    41 C    0.975
    63  27 Co   3.018 --    69 N    0.636   105 N    0.634    90 N    0.631
                            83 N    0.630
    64   6 C    3.927 --   104 C    1.366    65 C    1.364   106 H    0.970
    65   6 C    3.925 --    64 C    1.364    69 N    1.202    66 C    1.174
    66   6 C    3.960 --    67 C    1.650    65 C    1.174   107 H    0.975
    67   6 C    3.963 --    66 C    1.650    68 C    1.176   108 H    0.973
    68   6 C    3.919 --    70 C    1.320    69 N    1.213    67 C    1.176
    69   7 N    3.345 --    68 C    1.213    65 C    1.202    63 Co   0.636
    70   6 C    3.931 --    80 C    1.336    68 C    1.320    71 C    1.022
    71   6 C    3.988 --    72 C    1.401    79 C    1.388    70 C    1.022
    72   6 C    3.977 --    71 C    1.401    73 C    1.379   109 H    0.970
    73   6 C    3.917 --    72 C    1.379    75 C    1.324    74 O    1.053
    74   8 O    2.049 --    73 C    1.053   110 H    0.847
    75   6 C    3.904 --    77 C    1.341    73 C    1.324    76 O    1.021
    76   8 O    2.021 --    75 C    1.021   111 H    0.846
    77   6 C    3.905 --    79 C    1.383    75 C    1.341    78 O    1.014
    78   8 O    2.025 --    77 C    1.014   112 H    0.861
    79   6 C    3.973 --    71 C    1.388    77 C    1.383   113 H    0.969
    80   6 C    3.916 --    70 C    1.336    83 N    1.192    81 C    1.182
    81   6 C    3.958 --    82 C    1.638    80 C    1.182   114 H    0.973
    82   6 C    3.961 --    81 C    1.638    84 C    1.189   115 H    0.973
    83   7 N    3.346 --    84 C    1.234    80 C    1.192    63 Co   0.630
    84   6 C    3.902 --    85 C    1.256    83 N    1.234    82 C    1.189
    85   6 C    3.931 --    84 C    1.256    86 C    1.254   140 C    1.198
    86   6 C    3.903 --    85 C    1.254    90 N    1.236    87 C    1.189
    87   6 C    3.961 --    88 C    1.638    86 C    1.189   116 H    0.973
    88   6 C    3.958 --    87 C    1.638    89 C    1.180   117 H    0.973
    89   6 C    3.916 --    91 C    1.338    90 N    1.190    88 C    1.180
    90   7 N    3.345 --    86 C    1.236    89 C    1.190    63 Co   0.631
    91   6 C    3.931 --    89 C    1.338   101 C    1.313    92 C    1.028
    92   6 C    3.988 --    93 C    1.398   100 C    1.385    91 C    1.028
    93   6 C    3.977 --    92 C    1.398    94 C    1.380   118 H    0.970
    94   6 C    3.918 --    93 C    1.380    96 C    1.324    95 O    1.053
    95   8 O    2.049 --    94 C    1.053   119 H    0.847
    96   6 C    3.904 --    98 C    1.339    94 C    1.324    97 O    1.022
    97   8 O    2.021 --    96 C    1.022   120 H    0.846
    98   6 C    3.905 --   100 C    1.385    96 C    1.339    99 O    1.014
    99   8 O    2.025 --    98 C    1.014   121 H    0.861
   100   6 C    3.973 --    98 C    1.385    92 C    1.385   122 H    0.969
   101   6 C    3.919 --    91 C    1.313   105 N    1.217   102 C    1.178
   102   6 C    3.963 --   103 C    1.646   101 C    1.178   123 H    0.973
   103   6 C    3.959 --   102 C    1.646   104 C    1.176   124 H    0.975
   104   6 C    3.925 --    64 C    1.366   105 N    1.199   103 C    1.176
   105   7 N    3.345 --   101 C    1.217   104 C    1.199    63 Co   0.634
   106   1 H    1.000 --    64 C    0.970
   107   1 H    0.998 --    66 C    0.975
   108   1 H    1.005 --    67 C    0.973
   109   1 H    0.999 --    72 C    0.970
   110   1 H    0.877 --    74 O    0.847
   111   1 H    0.876 --    76 O    0.846
   112   1 H    0.881 --    78 O    0.861
   113   1 H    1.000 --    79 C    0.969
   114   1 H    1.005 --    81 C    0.973
   115   1 H    1.001 --    82 C    0.973
   116   1 H    1.001 --    87 C    0.973
   117   1 H    1.005 --    88 C    0.973
   118   1 H    1.000 --    93 C    0.970
   119   1 H    0.877 --    95 O    0.847
   120   1 H    0.876 --    97 O    0.846
   121   1 H    0.881 --    99 O    0.861
   122   1 H    1.001 --   100 C    0.969
   123   1 H    1.005 --   102 C    0.973
   124   1 H    0.998 --   103 C    0.975
   125   6 C    3.868 --   126 C    2.425    23 C    1.197   128 C    0.184
   126   6 C    3.931 --   125 C    2.425   127 C    1.355
   127   6 C    3.884 --   128 C    2.317   126 C    1.355   130 C    0.179
   128   6 C    3.920 --   127 C    2.317   129 C    1.382   125 C    0.184
   129   6 C    3.917 --   130 C    2.315   128 C    1.382   132 C    0.184
   130   6 C    3.886 --   129 C    2.315   131 C    1.358   127 C    0.179
   131   6 C    3.925 --   132 C    2.418   130 C    1.358
   132   6 C    3.870 --   131 C    2.418   142 C    1.205   129 C    0.184
   133   6 C    3.869 --   134 C    2.418   163 C    1.205   136 C    0.183
   134   6 C    3.924 --   133 C    2.418   135 C    1.358
   135   6 C    3.885 --   136 C    2.314   134 C    1.358   138 C    0.179
   136   6 C    3.916 --   135 C    2.314   137 C    1.383   133 C    0.183
   137   6 C    3.919 --   138 C    2.316   136 C    1.383   140 C    0.184
   138   6 C    3.884 --   137 C    2.316   139 C    1.356   135 C    0.179
   139   6 C    3.930 --   140 C    2.424   138 C    1.356
   140   6 C    3.868 --   139 C    2.424    85 C    1.198   137 C    0.184
   141  27 Co   3.025 --   183 N    0.628   161 N    0.627   168 N    0.625
                           147 N    0.624
   142   6 C    3.917 --   143 C    1.250   182 C    1.249   132 C    1.205
   143   6 C    3.903 --   142 C    1.250   147 N    1.232   144 C    1.195
   144   6 C    3.958 --   145 C    1.629   143 C    1.195   184 H    0.974
   145   6 C    3.959 --   144 C    1.629   146 C    1.188   185 H    0.973
   146   6 C    3.914 --   148 C    1.316   147 N    1.200   145 C    1.188
   147   7 N    3.336 --   143 C    1.232   146 C    1.200   141 Co   0.624
   148   6 C    3.924 --   158 C    1.324   146 C    1.316   149 C    1.037
   149   6 C    3.987 --   150 C    1.388   157 C    1.380   148 C    1.037
   150   6 C    3.972 --   149 C    1.388   151 C    1.382   186 H    0.969
   151   6 C    3.915 --   150 C    1.382   153 C    1.319   152 O    1.045
   152   8 O    2.053 --   151 C    1.045   187 H    0.866
   153   6 C    3.913 --   155 C    1.325   151 C    1.319   154 O    1.054
   154   8 O    2.049 --   153 C    1.054   188 H    0.849
   155   6 C    3.904 --   157 C    1.393   153 C    1.325   156 O    1.014
   156   8 O    2.027 --   155 C    1.014   189 H    0.860
   157   6 C    3.972 --   155 C    1.393   149 C    1.380   190 H    0.969
   158   6 C    3.914 --   148 C    1.324   161 N    1.194   159 C    1.185
   159   6 C    3.959 --   160 C    1.631   158 C    1.185   191 H    0.973
   160   6 C    3.958 --   159 C    1.631   162 C    1.195   192 H    0.974
   161   7 N    3.336 --   162 C    1.237   158 C    1.194   141 Co   0.627
   162   6 C    3.903 --   163 C    1.247   161 N    1.237   160 C    1.195
   163   6 C    3.917 --   164 C    1.252   162 C    1.247   133 C    1.205
   164   6 C    3.903 --   163 C    1.252   168 N    1.232   165 C    1.193
   165   6 C    3.960 --   166 C    1.632   164 C    1.193   193 H    0.974
   166   6 C    3.959 --   165 C    1.632   167 C    1.185   194 H    0.973
   167   6 C    3.914 --   169 C    1.319   168 N    1.199   166 C    1.185
   168   7 N    3.337 --   164 C    1.232   167 C    1.199   141 Co   0.625
   169   6 C    3.923 --   179 C    1.326   167 C    1.319   170 C    1.033
   170   6 C    3.988 --   178 C    1.394   171 C    1.394   169 C    1.033
   171   6 C    3.974 --   170 C    1.394   172 C    1.379   195 H    0.970
   172   6 C    3.917 --   171 C    1.379   174 C    1.330   173 O    1.057
   173   8 O    2.052 --   172 C    1.057   196 H    0.847
   174   6 C    3.888 --   176 C    1.346   172 C    1.330   175 O    0.982
   175   8 O    1.986 --   174 C    0.982   197 H    0.863
   176   6 C    3.910 --   178 C    1.380   174 C    1.346   177 O    1.027
   177   8 O    2.030 --   176 C    1.027   198 H    0.862
   178   6 C    3.975 --   170 C    1.394   176 C    1.380   199 H    0.969
   179   6 C    3.914 --   169 C    1.326   183 N    1.194   180 C    1.184
   180   6 C    3.959 --   181 C    1.633   179 C    1.184   200 H    0.973
   181   6 C    3.959 --   180 C    1.633   182 C    1.193   201 H    0.974
   182   6 C    3.903 --   142 C    1.249   183 N    1.236   181 C    1.193
   183   7 N    3.336 --   182 C    1.236   179 C    1.194   141 Co   0.628
   184   1 H    1.001 --   144 C    0.974
   185   1 H    1.005 --   145 C    0.973
   186   1 H    1.001 --   150 C    0.969
   187   1 H    0.886 --   152 O    0.866
   188   1 H    0.880 --   154 O    0.849
   189   1 H    0.881 --   156 O    0.860
   190   1 H    1.001 --   157 C    0.969
   191   1 H    1.005 --   159 C    0.973
   192   1 H    1.001 --   160 C    0.974
   193   1 H    1.001 --   165 C    0.974
   194   1 H    1.004 --   166 C    0.973
   195   1 H    1.000 --   171 C    0.970
   196   1 H    0.880 --   173 O    0.847
   197   1 H    0.883 --   175 O    0.863
   198   1 H    0.885 --   177 O    0.862
   199   1 H    1.000 --   178 C    0.969
   200   1 H    1.005 --   180 C    0.973
   201   1 H    1.001 --   181 C    0.974
 ---------------------------------------------------------------------------

           -------------------------------------------------
          | TOTAL ENERGY             -400.069341736567 Eh   |
          | GRADIENT NORM               0.000902471027 Eh/α |
          | HOMO-LUMO GAP               0.003998241398 eV   |
           -------------------------------------------------

 * finished run on 2022/07/30 at 04:25:32.930
