   * xtb version 6.5.1 (b24c23e) compiled by 'conda@728c89f4b128' on 2022-07-12
          program call               : xtb Zn_Ph_C2_3.xyz --gfn 1 --opt -T 48

   ID    Z sym.   atoms
    1   30 Zn     1, 57, 117
    2    6 C      2-6, 8-11, 13-29, 32-37, 58-62, 64-67, 69-85, 88-93,
                  113-116, 118-122, 124-127, 129-145, 148-153
    3    7 N      7, 12, 30, 31, 63, 68, 86, 87, 123, 128, 146, 147
    4    1 H      38-56, 94-112, 154-171

          :  Hamiltonian                  GFN1-xTB          :
 * total energy  :  -281.6777830 Eh     change       -0.3096261E-09 Eh
 * total energy  :  -281.8500433 Eh     change       -0.1722602E+00 Eh
 * total energy  :  -281.9681873 Eh     change       -0.1181441E+00 Eh
 * total energy  :  -282.0277204 Eh     change       -0.5953308E-01 Eh
 * total energy  :  -282.0526855 Eh     change       -0.2496508E-01 Eh
 * total energy  :  -282.0700387 Eh     change       -0.1735316E-01 Eh
 * total energy  :  -282.0836922 Eh     change       -0.1365354E-01 Eh
 * total energy  :  -282.0947753 Eh     change       -0.1108313E-01 Eh
 * total energy  :  -282.1034248 Eh     change       -0.8649471E-02 Eh
 * total energy  :  -282.1101667 Eh     change       -0.6741914E-02 Eh
 * total energy  :  -282.1463483 Eh     change       -0.1676336E-04 Eh
 * total energy  :  -282.1463613 Eh     change       -0.1305922E-04 Eh
 * total energy  :  -282.1463725 Eh     change       -0.1123524E-04 Eh
 * total energy  :  -282.1463822 Eh     change       -0.9689578E-05 Eh
 * total energy  :  -282.1463897 Eh     change       -0.7458188E-05 Eh
 * total energy  :  -282.1463958 Eh     change       -0.6073629E-05 Eh
 * total energy  :  -282.1464015 Eh     change       -0.5746764E-05 Eh
 * total energy  :  -282.1464066 Eh     change       -0.5110591E-05 Eh
 * total energy  :  -282.1464089 Eh     change       -0.2276304E-05 Eh
   *** GEOMETRY OPTIMIZATION CONVERGED AFTER 68 ITERATIONS ***

 final structure:
================
171
 xtb: 6.5.1 (b24c23e)
Zn          31.37304673584595       -0.01028253004107       -0.00621434289230
C           27.95906364802353       -0.03553080039270        0.00094163273859
C           28.58810904028445       -1.27349420214891       -0.05757327063472
C           27.91420833357674       -2.54169697234978       -0.06988510200201
C           28.87248403212986       -3.50005114462875       -0.12957336577553
C           30.14428324612572       -2.82775723824193       -0.16613438544290
N           29.93660381415794       -1.48048950559146       -0.10846096825548
C           31.39466527080172       -3.45242465841094       -0.24082048406782
C           32.63363893345251       -2.80141960355279       -0.23991105100250
C           33.90490992093229       -3.44833465543003       -0.40530673702897
C           34.85507560819967       -2.48077644639019       -0.34621202761700
N           32.83612537616722       -1.45388368835265       -0.10137905002793
C           34.17874442603812       -1.23416798611173       -0.14460916345765
C           34.81924256893915        0.01527572500014       -0.00651367025524
C           34.16218407463737        1.25648863592588        0.12522374875361
C           34.82340645140886        2.52154930423419        0.24606040260063
C           33.85956305778164        3.47555810581985        0.29899002184382
C           32.59400224077125        2.80075105735376        0.22755174742973
C           31.34488091017915        3.43082732792404        0.22743943030617
C           31.33275912021461        4.91364884197414        0.32057602810123
C           30.83579746099236        5.68115426375509       -0.73351904827168
C           30.82919349476021        7.06553986861824       -0.65128208780148
C           31.31280356145992        7.69958790680040        0.48514943493023
C           31.80474994435201        6.94287045361800        1.53996064662403
C           31.81747929179614        5.55832298339629        1.45902657275481
C           30.10438395887273        2.78801156234520        0.14770485128202
C           28.82184915644597        3.43876420933995        0.19635278772789
C           27.87705789624344        2.46735695118364        0.13384343451284
C           28.56972066529145        1.21177595214854        0.05255875240566
N           29.91586404919076        1.43954513951623        0.06199489909091
N           32.81527048252105        1.45281400675535        0.12271081167725
C           31.41027298635647       -4.93452125921548       -0.32544831974041
C           30.81053237283850       -5.59357752821463       -1.39941246101875
C           30.82734617590627       -6.97856262713329       -1.47069854675901
C           31.43808941420433       -7.72227061149306       -0.47009470157592
C           32.03620320937718       -7.07446647773268        0.60235982804147
C           32.02544502136808       -5.68974372952605        0.67437628496297
H           26.87358137044886       -0.04440027926556        0.01832158707608
H           26.84379815090305       -2.67047042675084       -0.02992286770049
H           28.73524214296372       -4.56956488874015       -0.13684186528142
H           34.04996061842494       -4.50457412282771       -0.56545909341294
H           35.92139524860645       -2.59616298436122       -0.44712002241451
H           35.89103412914595        2.65979458353191        0.28361196480718
H           33.99362429918636        4.54280303303855        0.37132859738132
H           30.46820276182735        5.18757798543349       -1.62642629785919
H           30.44599098082318        7.65206824493656       -1.47906978898991
H           31.30616100946197        8.78187369147468        0.54856295095444
H           32.18020355951960        7.43316579765295        2.43142110465815
H           32.19163757211114        4.96856607694126        2.28856518160316
H           28.66928190431793        4.50293634825010        0.28054209097809
H           26.80405820583809        2.57889137585978        0.14758296863204
H           30.34456849725450       -5.01454525249422       -2.18907754579573
H           30.36213787172795       -7.47959490729763       -2.31249451986010
H           31.44842213491560       -8.80493034098123       -0.52610228189032
H           32.51280072270768       -7.65056233396642        1.38789047872209
H           32.48265087346839       -5.18566233505673        1.51871384815678
Zn          53.24495017276826        0.06223045820860        0.01289964679399
C           56.65899624684958        0.09726740930766        0.01482442105364
C           56.02624667477733        1.33470734294946        0.00962001694980
C           56.69646608920580        2.60433672425229        0.04781631772947
C           55.73529100663949        3.56149176219008        0.03030333259785
C           54.46533377672200        2.88747913754527       -0.03026487116596
N           54.67700314298125        1.53960403236824       -0.02891907962511
C           53.21304004194154        3.51106326976871       -0.07555585971784
C           51.97587108463784        2.85707280815612       -0.09862141122048
C           50.70243572406254        3.50675747252075       -0.23371270712327
C           49.75515307978790        2.53479330295642       -0.21433656947996
N           51.77746438993658        1.50428390453203       -0.01707669738641
C           50.43537916906671        1.28270284668806       -0.06738032532994
C           49.79900855693780        0.02643464856081        0.01735181423216
C           50.46007915819153       -1.21732172543665        0.09348356827479
C           49.80254492226263       -2.48841113880562        0.15847633644024
C           50.76910149664433       -3.44109811431947        0.16710520271259
C           52.03266098021550       -2.76016822710127        0.12404528134013
C           53.28357918604213       -3.38584585095379        0.09336504804241
C           53.30091468640248       -4.87131867970311        0.11671078817017
C           53.80029587305901       -5.58573674627338       -0.97300981422369
C           53.81336735432077       -6.97238768245489       -0.95656543546552
C           53.33375279231473       -7.66178898622347        0.14891281886233
C           52.83900990531018       -6.95819783112396        1.23860855387315
C           52.81983967230073       -5.57141724855125        1.22349470497851
C           54.52208611156426       -2.73629440252998        0.04146400014185
C           55.80656624688488       -3.38478017844479        0.05997988980859
C           56.74845920016240       -2.40878198308773        0.03950259340916
C           56.05203481831791       -1.15290392750079        0.01418625367410
N           54.70658423619285       -1.38483629723739        0.01543370466143
N           51.80749234660411       -1.40948504530156        0.08026498402537
C           53.19278516097355        4.99534363336177       -0.10054241582714
C           53.78579365303447        5.69822338513750       -1.15016436986428
C           53.76299967219968        7.08485058485515       -1.16744421545042
C           53.15299372603304        7.78642136392522       -0.13642386554328
C           52.56209968812927        7.09483855662653        0.91244827217579
C           52.57882840278408        5.70841303694666        0.93048861021041
H           57.74448218260620        0.10858265237601        0.03028790385580
H           57.76662238194162        2.73455684486384        0.08978031132055
H           55.86942688923420        4.63081212608505        0.06656551554126
H           50.55405055155567        4.56845163100750       -0.34815231115826
H           48.68836740006899        2.65136755262097       -0.30848243646123
H           48.73533419298017       -2.63108036171014        0.19133029170471
H           50.63811688474041       -4.51088704058714        0.19179293307490
H           54.16484667250526       -5.04857944122858       -1.84168744619303
H           54.19866821101241       -7.51718565610213       -1.81144818041634
H           53.34581342307187       -8.74581510344594        0.16111490582567
H           52.46653441082493       -7.49198354193055        2.10601401476271
H           52.44368883205970       -5.02344422553150        2.08032998829756
H           55.96229211684545       -4.45117528710815        0.09702452970314
H           57.82179208164362       -2.51762362427329        0.04723703804040
H           54.25091140441253        5.15227853208478       -1.96353940812958
H           54.22260270693396        7.62020883326720       -1.99098551801722
H           53.13758478952720        8.87038125886414       -0.15042577406354
H           52.08640923702431        7.63795075184868        1.72166713126184
H           52.12711411103387        5.16988919560404        1.75631078096156
C           36.22936534886903        0.02277670754099       -0.00756658328867
C           37.44791605436242        0.02499384985657        0.00156296971984
C           47.17043181422844        0.00943265486723        0.02682939198081
C           48.38893591050994        0.01430076861896        0.01609499689937
Zn          42.30935858519575        0.01560543242008        0.02537929516580
C           38.85733991929505        0.02294377637948        0.00991364374367
C           39.50672332115441       -1.22661873817178        0.09671657999851
C           38.84277257770574       -2.48579574506622        0.25181812477039
C           39.79963935969055       -3.44907654873316        0.23377566552030
C           41.06111230377919       -2.78575681367521        0.06478622126271
N           40.84905588798693       -1.43405725555323        0.00909888590186
C           42.30255270757387       -3.42358203801709       -0.03728341247742
C           43.54638780091778       -2.78720969866627       -0.11820697304195
C           44.80509506023139       -3.44937943077700       -0.31080681538799
C           45.76559263139114       -2.48970630626177       -0.29725717757588
N           43.76378959270072       -1.43921684787264       -0.01624771715659
C           45.10690104489354       -1.23399780311653       -0.09880244880108
C           45.76101672113367        0.00897547721280        0.03221954743081
C           45.11058345277543        1.25368299710328        0.16853341652850
C           45.77309188453238        2.50497691626641        0.38238157052395
C           44.81616271932860        3.46828050708198        0.39834971268906
C           43.55631099788833        2.81288099381908        0.19146704090579
C           42.31572243654325        3.45455049261994        0.10590702450574
C           42.31765491973882        4.93812914306132        0.14415366214352
C           41.63439367178592        5.62092902047575        1.15184335153517
C           41.63835773872334        7.00712895681015        1.18787943261743
C           42.31896280115690        7.72894711056880        0.21664023566529
C           42.99914717350664        7.05778987438726       -0.79054616883131
C           43.00187569564423        5.67152958374415       -0.82656565908563
C           41.07281713813837        2.82238692431758       -0.01165693157851
C           39.81555136175982        3.49216021259822       -0.18609598404465
C           38.85505673751342        2.53293113786735       -0.21834025242911
C           39.51250323441160        1.27002720970700       -0.06656629447621
N           40.85486467236763        1.47131311277548        0.03333608377198
N           43.76898835476897        1.46469628208048        0.07999159078992
C           42.30033110249670       -4.90737654835073       -0.06165416304989
C           41.62039019370823       -5.59878924150223       -1.06574207476751
C           41.62188499943439       -6.98528322619310       -1.08816628194375
C           42.29705006919646       -7.69894882541343       -0.10714483789723
C           42.97387433675781       -7.01927853505858        0.89655969970051
C           42.97862140652421       -5.63276688217368        0.91929139178490
H           37.78027210119492       -2.61306571203842        0.37623382132562
H           39.66450129269255       -4.51314039282242        0.34231002846754
H           44.93609238389477       -4.50968182943877       -0.45520912858384
H           46.82771736169592       -2.61719704860368       -0.42435125662225
H           46.83448205640669        2.62661452752103        0.52090561850795
H           44.95010279153215        4.52673660837050        0.55337042758412
H           41.11264679977142        5.05882156284290        1.91852589789462
H           41.10825610202046        7.52631058538437        1.97877221574420
H           42.31923481407017        8.81274395913457        0.24461460402474
H           43.52956754744208        7.61687595383672       -1.55351885612069
H           43.52303551713177        5.14955923264598       -1.62149911502908
H           39.68565431446778        4.55751647747852       -0.28816620181891
H           37.79391781117027        2.66562963571194       -0.34813896823315
H           41.10345170504429       -5.04332657107618       -1.84047252023334
H           41.09435070448612       -7.51125337650495       -1.87627518178897
H           42.29571269757071       -8.78296154209617       -0.12482984741339
H           43.50035889824261       -7.57179512104423        1.66702108390789
H           43.49717342888357       -5.10414521579805        1.71155280372193

          :  Hamiltonian                  GFN1-xTB          :
         :: total energy            -282.146408902978 Eh    ::
         :: gradient norm              0.000338468672 Eh/a0 ::
         :: HOMO-LUMO gap              0.877249892377 eV    ::
         :: SCC energy              -286.767073097673 Eh    ::
         :: repulsion energy           4.780612596949 Eh    ::

    * Orbital Energies and Occupations

         #    Occupation            Energy/Eh            Energy/eV
      -------------------------------------------------------------
         1        2.0000           -0.7572829             -20.6067
       ...           ...                  ...                  ...
       249        2.0000           -0.4181431             -11.3783
       250        2.0000           -0.4180975             -11.3770
       251        2.0000           -0.4180053             -11.3745
       252        2.0000           -0.4178914             -11.3714
       253        2.0000           -0.4178371             -11.3699
       254        2.0000           -0.4177205             -11.3668
       255        2.0000           -0.4152303             -11.2990
       256        2.0000           -0.3909182             -10.6374
       257        2.0000           -0.3906693             -10.6307
       258        2.0000           -0.3906671             -10.6306
       259        2.0000           -0.3899261             -10.6104
       260        2.0000           -0.3806031             -10.3567
       261        2.0000           -0.3697605             -10.0617 (HOMO)
       262                         -0.3375221              -9.1844 (LUMO)
       263                         -0.3256178              -8.8605
       264                         -0.3236915              -8.8081
       265                         -0.3233343              -8.7984
       266                         -0.3233340              -8.7984
       267                         -0.3140768              -8.5465
       268                         -0.2950676              -8.0292
       269                         -0.2867725              -7.8035
       270                         -0.2823129              -7.6821
       271                         -0.2617608              -7.1229
       272                         -0.2617598              -7.1228
       ...                                ...                  ...
       572                          1.3364183              36.3658
      -------------------------------------------------------------
                  HL-Gap            0.0322383 Eh            0.8772 eV

Wiberg/Mayer (AO) data.
largest (>0.10) Wiberg bond orders for each atom

     #   Z sym  total        # sym  WBO       # sym  WBO       # sym  WBO
 ---------------------------------------------------------------------------
     1  30 Zn   1.998 --    30 N    0.460     7 N    0.459    31 N    0.457
                            12 N    0.457
     2   6 C    3.926 --    29 C    1.357     3 C    1.356    38 H    0.971
     3   6 C    3.922 --     2 C    1.356     7 N    1.234     4 C    1.171
     4   6 C    3.960 --     5 C    1.658     3 C    1.171    39 H    0.976
     5   6 C    3.963 --     4 C    1.658     6 C    1.172    40 H    0.973
     6   6 C    3.919 --     8 C    1.315     7 N    1.243     5 C    1.172
     7   7 N    3.292 --     6 C    1.243     3 C    1.234     1 Zn   0.459
     8   6 C    3.933 --     9 C    1.321     6 C    1.315    32 C    1.028
     9   6 C    3.914 --     8 C    1.321    12 N    1.226    10 C    1.181
    10   6 C    3.959 --    11 C    1.643     9 C    1.181    41 H    0.973
    11   6 C    3.962 --    10 C    1.643    13 C    1.189    42 H    0.967
    12   7 N    3.296 --    13 C    1.261     9 C    1.226     1 Zn   0.457
    13   6 C    3.906 --    12 N    1.261    14 C    1.255    11 C    1.189
    14   6 C    3.938 --    15 C    1.256    13 C    1.255   113 C    1.185
    15   6 C    3.906 --    31 N    1.262    14 C    1.256    16 C    1.188
    16   6 C    3.962 --    17 C    1.644    15 C    1.188    43 H    0.966
    17   6 C    3.959 --    16 C    1.644    18 C    1.180    44 H    0.973
    18   6 C    3.914 --    19 C    1.323    31 N    1.225    17 C    1.180
    19   6 C    3.932 --    18 C    1.323    26 C    1.316    20 C    1.024
    20   6 C    3.988 --    25 C    1.397    21 C    1.396    19 C    1.024
                            23 C    0.108
    21   6 C    3.988 --    22 C    1.447    20 C    1.396    45 H    0.973
                            24 C    0.110
    22   6 C    3.995 --    21 C    1.447    23 C    1.438    46 H    0.973
                            25 C    0.110
    23   6 C    3.990 --    24 C    1.438    22 C    1.438    47 H    0.974
                            20 C    0.108
    24   6 C    3.995 --    25 C    1.447    23 C    1.438    48 H    0.973
                            21 C    0.110
    25   6 C    3.988 --    24 C    1.447    20 C    1.397    49 H    0.973
                            22 C    0.110
    26   6 C    3.918 --    19 C    1.316    30 N    1.243    27 C    1.172
    27   6 C    3.963 --    28 C    1.659    26 C    1.172    50 H    0.974
    28   6 C    3.960 --    27 C    1.659    29 C    1.171    51 H    0.976
    29   6 C    3.922 --     2 C    1.357    30 N    1.233    28 C    1.171
    30   7 N    3.292 --    26 C    1.243    29 C    1.233     1 Zn   0.460
    31   7 N    3.296 --    15 C    1.262    18 C    1.225     1 Zn   0.457
    32   6 C    3.988 --    33 C    1.395    37 C    1.394     8 C    1.028
                            35 C    0.108
    33   6 C    3.987 --    34 C    1.447    32 C    1.395    52 H    0.973
                            36 C    0.109
    34   6 C    3.995 --    33 C    1.447    35 C    1.438    53 H    0.973
                            37 C    0.109
    35   6 C    3.990 --    34 C    1.438    36 C    1.437    54 H    0.974
                            32 C    0.108
    36   6 C    3.995 --    37 C    1.448    35 C    1.437    55 H    0.973
                            33 C    0.109
    37   6 C    3.988 --    36 C    1.448    32 C    1.394    56 H    0.973
                            34 C    0.109
    38   1 H    1.002 --     2 C    0.971
    39   1 H    0.998 --     4 C    0.976
    40   1 H    1.005 --     5 C    0.973
    41   1 H    1.005 --    10 C    0.973
    42   1 H    1.007 --    11 C    0.967
    43   1 H    1.008 --    16 C    0.966
    44   1 H    1.005 --    17 C    0.973
    45   1 H    1.005 --    21 C    0.973
    46   1 H    1.003 --    22 C    0.973
    47   1 H    1.003 --    23 C    0.974
    48   1 H    1.003 --    24 C    0.973
    49   1 H    1.005 --    25 C    0.973
    50   1 H    1.005 --    27 C    0.974
    51   1 H    0.998 --    28 C    0.976
    52   1 H    1.005 --    33 C    0.973
    53   1 H    1.003 --    34 C    0.973
    54   1 H    1.003 --    35 C    0.974
    55   1 H    1.003 --    36 C    0.973
    56   1 H    1.005 --    37 C    0.973
    57  30 Zn   1.998 --    86 N    0.460    63 N    0.459    87 N    0.457
                            68 N    0.457
    58   6 C    3.926 --    85 C    1.357    59 C    1.356    94 H    0.971
    59   6 C    3.922 --    58 C    1.356    63 N    1.234    60 C    1.171
    60   6 C    3.960 --    61 C    1.658    59 C    1.171    95 H    0.976
    61   6 C    3.964 --    60 C    1.658    62 C    1.173    96 H    0.973
    62   6 C    3.919 --    64 C    1.315    63 N    1.243    61 C    1.173
    63   7 N    3.292 --    62 C    1.243    59 C    1.234    57 Zn   0.459
    64   6 C    3.932 --    65 C    1.321    62 C    1.315    88 C    1.028
    65   6 C    3.914 --    64 C    1.321    68 N    1.226    66 C    1.181
    66   6 C    3.959 --    67 C    1.643    65 C    1.181    97 H    0.973
    67   6 C    3.962 --    66 C    1.643    69 C    1.189    98 H    0.967
    68   7 N    3.296 --    69 C    1.261    65 C    1.226    57 Zn   0.457
    69   6 C    3.906 --    68 N    1.261    70 C    1.255    67 C    1.189
    70   6 C    3.938 --    71 C    1.256    69 C    1.255   116 C    1.185
    71   6 C    3.906 --    87 N    1.262    70 C    1.256    72 C    1.188
    72   6 C    3.962 --    73 C    1.644    71 C    1.188    99 H    0.966
    73   6 C    3.959 --    72 C    1.644    74 C    1.180   100 H    0.973
    74   6 C    3.914 --    75 C    1.323    87 N    1.225    73 C    1.180
    75   6 C    3.932 --    74 C    1.323    82 C    1.316    76 C    1.024
    76   6 C    3.988 --    81 C    1.397    77 C    1.396    75 C    1.024
                            79 C    0.108
    77   6 C    3.988 --    78 C    1.447    76 C    1.396   101 H    0.973
                            80 C    0.110
    78   6 C    3.995 --    77 C    1.447    79 C    1.438   102 H    0.973
                            81 C    0.110
    79   6 C    3.990 --    80 C    1.438    78 C    1.438   103 H    0.974
                            76 C    0.108
    80   6 C    3.995 --    81 C    1.447    79 C    1.438   104 H    0.973
                            77 C    0.110
    81   6 C    3.988 --    80 C    1.447    76 C    1.397   105 H    0.973
                            78 C    0.110
    82   6 C    3.918 --    75 C    1.316    86 N    1.243    83 C    1.172
    83   6 C    3.963 --    84 C    1.659    82 C    1.172   106 H    0.974
    84   6 C    3.960 --    83 C    1.659    85 C    1.171   107 H    0.976
    85   6 C    3.922 --    58 C    1.357    86 N    1.233    84 C    1.171
    86   7 N    3.292 --    82 C    1.243    85 C    1.233    57 Zn   0.460
    87   7 N    3.296 --    71 C    1.262    74 C    1.225    57 Zn   0.457
    88   6 C    3.988 --    89 C    1.395    93 C    1.394    64 C    1.028
                            91 C    0.108
    89   6 C    3.987 --    90 C    1.447    88 C    1.395   108 H    0.973
                            92 C    0.109
    90   6 C    3.995 --    89 C    1.447    91 C    1.438   109 H    0.973
                            93 C    0.109
    91   6 C    3.990 --    90 C    1.438    92 C    1.437   110 H    0.974
                            88 C    0.108
    92   6 C    3.995 --    93 C    1.448    91 C    1.437   111 H    0.973
                            89 C    0.109
    93   6 C    3.988 --    92 C    1.448    88 C    1.394   112 H    0.973
                            90 C    0.109
    94   1 H    1.002 --    58 C    0.971
    95   1 H    0.998 --    60 C    0.976
    96   1 H    1.005 --    61 C    0.973
    97   1 H    1.005 --    66 C    0.973
    98   1 H    1.007 --    67 C    0.967
    99   1 H    1.008 --    72 C    0.966
   100   1 H    1.005 --    73 C    0.973
   101   1 H    1.005 --    77 C    0.973
   102   1 H    1.003 --    78 C    0.973
   103   1 H    1.003 --    79 C    0.974
   104   1 H    1.003 --    80 C    0.973
   105   1 H    1.005 --    81 C    0.973
   106   1 H    1.005 --    83 C    0.974
   107   1 H    0.998 --    84 C    0.976
   108   1 H    1.005 --    89 C    0.973
   109   1 H    1.003 --    90 C    0.973
   110   1 H    1.003 --    91 C    0.974
   111   1 H    1.003 --    92 C    0.973
   112   1 H    1.005 --    93 C    0.973
   113   6 C    3.931 --   114 C    2.570    14 C    1.185
   114   6 C    3.934 --   113 C    2.570   118 C    1.186
   115   6 C    3.934 --   116 C    2.570   130 C    1.186
   116   6 C    3.931 --   115 C    2.570    70 C    1.185
   117  30 Zn   1.996 --   128 N    0.456   123 N    0.456   147 N    0.456
                           146 N    0.456
   118   6 C    3.926 --   145 C    1.253   119 C    1.253   114 C    1.186
   119   6 C    3.907 --   123 N    1.262   118 C    1.253   120 C    1.191
   120   6 C    3.960 --   121 C    1.639   119 C    1.191   154 H    0.967
   121   6 C    3.960 --   120 C    1.639   122 C    1.184   155 H    0.973
   122   6 C    3.912 --   124 C    1.317   123 N    1.225   121 C    1.184
   123   7 N    3.289 --   119 C    1.262   122 C    1.225   117 Zn   0.456
   124   6 C    3.927 --   122 C    1.317   125 C    1.317   148 C    1.030
   125   6 C    3.912 --   124 C    1.317   128 N    1.226   126 C    1.183
   126   6 C    3.960 --   127 C    1.639   125 C    1.183   156 H    0.973
   127   6 C    3.960 --   126 C    1.639   129 C    1.191   157 H    0.966
   128   7 N    3.289 --   129 C    1.261   125 C    1.226   117 Zn   0.456
   129   6 C    3.907 --   128 N    1.261   130 C    1.253   127 C    1.191
   130   6 C    3.926 --   129 C    1.253   131 C    1.252   115 C    1.186
   131   6 C    3.907 --   147 N    1.262   130 C    1.252   132 C    1.191
   132   6 C    3.960 --   133 C    1.639   131 C    1.191   158 H    0.967
   133   6 C    3.960 --   132 C    1.639   134 C    1.184   159 H    0.973
   134   6 C    3.912 --   135 C    1.317   147 N    1.225   133 C    1.184
   135   6 C    3.927 --   134 C    1.317   142 C    1.317   136 C    1.030
   136   6 C    3.988 --   141 C    1.394   137 C    1.394   135 C    1.030
                           139 C    0.107
   137   6 C    3.987 --   138 C    1.448   136 C    1.394   160 H    0.973
                           140 C    0.109
   138   6 C    3.995 --   137 C    1.448   139 C    1.437   161 H    0.973
                           141 C    0.109
   139   6 C    3.989 --   140 C    1.437   138 C    1.437   162 H    0.974
                           136 C    0.107
   140   6 C    3.995 --   141 C    1.448   139 C    1.437   163 H    0.973
                           137 C    0.109
   141   6 C    3.987 --   140 C    1.448   136 C    1.394   164 H    0.973
                           138 C    0.109
   142   6 C    3.912 --   135 C    1.317   146 N    1.225   143 C    1.184
   143   6 C    3.960 --   144 C    1.639   142 C    1.184   165 H    0.973
   144   6 C    3.960 --   143 C    1.639   145 C    1.191   166 H    0.966
   145   6 C    3.907 --   146 N    1.261   118 C    1.253   144 C    1.191
   146   7 N    3.289 --   145 C    1.261   142 C    1.225   117 Zn   0.456
   147   7 N    3.289 --   131 C    1.262   134 C    1.225   117 Zn   0.456
   148   6 C    3.988 --   153 C    1.394   149 C    1.394   124 C    1.030
                           151 C    0.107
   149   6 C    3.987 --   150 C    1.448   148 C    1.394   167 H    0.973
                           152 C    0.109
   150   6 C    3.995 --   149 C    1.448   151 C    1.437   168 H    0.973
                           153 C    0.109
   151   6 C    3.989 --   152 C    1.437   150 C    1.437   169 H    0.974
                           148 C    0.107
   152   6 C    3.995 --   153 C    1.448   151 C    1.437   170 H    0.973
                           149 C    0.109
   153   6 C    3.987 --   152 C    1.448   148 C    1.394   171 H    0.973
                           150 C    0.109
   154   1 H    1.007 --   120 C    0.967
   155   1 H    1.005 --   121 C    0.973
   156   1 H    1.005 --   126 C    0.973
   157   1 H    1.007 --   127 C    0.966
   158   1 H    1.007 --   132 C    0.967
   159   1 H    1.005 --   133 C    0.973
   160   1 H    1.005 --   137 C    0.973
   161   1 H    1.003 --   138 C    0.973
   162   1 H    1.003 --   139 C    0.974
   163   1 H    1.003 --   140 C    0.973
   164   1 H    1.005 --   141 C    0.973
   165   1 H    1.005 --   143 C    0.973
   166   1 H    1.007 --   144 C    0.966
   167   1 H    1.005 --   149 C    0.973
   168   1 H    1.003 --   150 C    0.973
   169   1 H    1.003 --   151 C    0.974
   170   1 H    1.003 --   152 C    0.973
   171   1 H    1.005 --   153 C    0.973
 ---------------------------------------------------------------------------

           -------------------------------------------------
          | TOTAL ENERGY             -282.146408902978 Eh   |
          | GRADIENT NORM               0.000338468672 Eh/α |
          | HOMO-LUMO GAP               0.877249892377 eV   |
           -------------------------------------------------

 * finished run on 2022/07/30 at 11:18:41.294
