   * xtb version 6.5.1 (b24c23e) compiled by 'conda@728c89f4b128' on 2022-07-12
          program call               : xtb Cu_PhNO2_C6_3.xyz --gfn 1 --opt -T 48

   ID    Z sym.   atoms
    1   29 Cu     1, 61, 133
    2    6 C      2-6, 8-12, 16-20, 22-27, 29-33, 37-42, 62-66, 68-72, 76-80,
                  82-87, 89-93, 97-102, 121-132, 134-138, 140-144, 148-152,
                  154-159, 161-165, 169-174
    3    7 N      7, 13, 21, 28, 34, 43, 67, 73, 81, 88, 94, 103, 139, 145,
                  153, 160, 166, 175
    4    8 O      14, 15, 35, 36, 74, 75, 95, 96, 146, 147, 167, 168
    5    1 H      44-60, 104-120, 176-191

          :  Hamiltonian                  GFN1-xTB          :
 * total energy  :  -380.8755939 Eh     change       -0.1689813E-07 Eh
 * total energy  :  -381.1243002 Eh     change       -0.2487063E+00 Eh
 * total energy  :  -381.2599345 Eh     change       -0.1356343E+00 Eh
 * total energy  :  -381.3129288 Eh     change       -0.5299433E-01 Eh
 * total energy  :  -381.3739068 Eh     change       -0.6097799E-01 Eh
 * total energy  :  -381.4319356 Eh     change       -0.5802882E-01 Eh
 * total energy  :  -381.4670270 Eh     change       -0.3509135E-01 Eh
 * total energy  :  -381.4913533 Eh     change       -0.2432630E-01 Eh
 * total energy  :  -381.5099086 Eh     change       -0.1855535E-01 Eh
 * total energy  :  -381.5253775 Eh     change       -0.1546883E-01 Eh
 * total energy  :  -381.6533245 Eh     change       -0.4593959E-04 Eh
 * total energy  :  -381.6533149 Eh     change        0.9604891E-05 Eh
 * total energy  :  -381.6533187 Eh     change       -0.3772463E-05 Eh
 * total energy  :  -381.6533383 Eh     change       -0.1957226E-04 Eh
 * total energy  :  -381.6533236 Eh     change        0.1463224E-04 Eh
 * total energy  :  -381.6533481 Eh     change       -0.2449808E-04 Eh
 * total energy  :  -381.6533549 Eh     change       -0.6782251E-05 Eh
 * total energy  :  -381.6533604 Eh     change       -0.5532831E-05 Eh
 * total energy  :  -381.6533648 Eh     change       -0.4394525E-05 Eh
   *** GEOMETRY OPTIMIZATION CONVERGED AFTER 79 ITERATIONS ***

 final structure:
================
191
 xtb: 6.5.1 (b24c23e)
Cu          29.70856298126093       -0.00985888698246       -0.04296544213345
C           26.30125989923847       -0.03561781154003       -0.09338735489132
C           26.93773702215404       -1.25178438632275       -0.28722803219054
C           26.26344455242068       -2.50619794430645       -0.46317929198705
C           27.22269049171097       -3.45134400281177       -0.61804366794527
C           28.49273007430423       -2.77932792540107       -0.55078953483100
N           28.28886645613390       -1.44656494101474       -0.34134550535412
C           29.73937478753461       -3.40213720942419       -0.65434889540642
C           29.74668958454696       -4.86186456188122       -0.91194705229648
C           30.31128124018084       -5.74127648932595        0.01677076789662
C           30.30006795442334       -7.10555911141145       -0.20980992181522
C           29.72468938622469       -7.59503062485021       -1.37905134786574
N           29.70452093591316       -9.02689706170567       -1.61931771899151
O           29.19112582063311       -9.41430412338174       -2.63765365556370
O           30.20060918520293       -9.73957673601612       -0.78476065220128
C           29.16492356782296       -6.73602065759937       -2.32061206079156
C           29.17642447593194       -5.37405053444238       -2.08150847419050
C           30.97361484079576       -2.75956123830473       -0.53229020815045
C           32.25070649075404       -3.39247053619961       -0.70416322478848
C           33.19595856496754       -2.43524527306102       -0.52607874441940
N           31.16061427449140       -1.42955914797572       -0.26487014607386
C           32.50439728569294       -1.21140418274705       -0.25216884124456
C           33.14005440699226        0.01866739405115       -0.00618247453942
C           32.47908058811227        1.23686029521256        0.23145608701932
C           33.14429917787574        2.47025122310783        0.52670194849747
C           32.17967699741767        3.41058466783030        0.69051367442758
C           30.91723581553666        2.75808540749743        0.48643858430028
N           31.13189979568490        1.43269049894180        0.21682123300240
C           29.67011888934512        3.38034409396387        0.57961536659696
C           29.64632088552284        4.83823368683898        0.84616383684664
C           29.03284460653250        5.33273190001080        2.00144860613437
C           28.99088967679171        6.69259364601667        2.24882936313328
C           29.56381061342855        7.56740608404583        1.32999315947937
N           29.51194147668908        8.99701980997087        1.57868578848948
O           28.96059185686929        9.36871338770343        2.58294616102117
O           30.02020489212931        9.72377257256408        0.76382242629958
C           30.18206544759633        7.09576039193973        0.17540218675038
C           30.22322073006459        5.73345885111018       -0.05958713079707
C           28.43672172124629        2.73891998971720        0.43726735638221
C           27.15530305683353        3.39178098616346        0.46762531148648
C           26.21550054897068        2.43323452953297        0.27954106155973
C           26.91346605502473        1.18949956639817        0.12106988184137
N           28.25928513314529        1.40410977486317        0.21725628528869
H           25.21643028910044       -0.04357526327224       -0.11021987777542
H           25.19264327321621       -2.63415179426399       -0.45603219829842
H           27.08868267435248       -4.51245490556729       -0.75295384283270
H           30.74327148100477       -5.34877005575917        0.92994030894963
H           30.72629056356077       -7.79556210262338        0.50846172868903
H           28.72821563769531       -7.14170273912103       -3.22526435931310
H           28.75225179220172       -4.69394950127799       -2.81097585842986
H           32.40088931464202       -4.43217389740085       -0.94584828390537
H           34.26782593642105       -2.53778037209251       -0.58058367085127
H           34.21293652887986        2.58975537758496        0.60516783859908
H           32.30747783108925        4.45099514639988        0.94182796806536
H           28.59862736810658        4.64053618373998        2.71342512474038
H           28.52035352987104        7.08457164014925        3.14249388146806
H           30.61763617755242        7.79780893598234       -0.52537596833532
H           30.68849428964675        5.35476488839477       -0.96217277745047
H           27.00138381924257        4.45030003115855        0.60163370392114
H           25.14366463807786        2.54543134629280        0.23935360307673
Cu          61.80785892405469        0.04878195198325       -0.01640970884147
C           65.21462180431236        0.09064690059740       -0.08063510104475
C           64.58067580617966        1.29102414776886        0.20036436691526
C           65.25760551040172        2.51966045751760        0.50268788347370
C           64.30025824415939        3.45471663438641        0.71855435969326
C           63.02868349467278        2.80734034012105        0.53653839352640
N           63.22984471303094        1.49271774655905        0.23154357978280
C           61.78324331692553        3.42513572117639        0.67771624054385
C           61.77855709255306        4.87537028361944        0.98423519424073
C           61.21841452824715        5.34405614467661        2.17640432211520
C           61.23295256545624        6.69387853063247        2.47715196324801
C           61.80703134167857        7.58457017578941        1.57444589679740
N           61.83113339021045        9.00210295070847        1.88810902495545
O           62.34406421941843        9.74172938830946        1.08781984849108
O           61.33926086717447        9.35113123339619        2.93061583150475
C           62.36192480235937        7.13969073160798        0.37780224738004
C           62.34720051531250        5.78728488811005        0.08955780618790
C           60.54787414429968        2.78468527024637        0.55577353898768
C           59.27180754808749        3.43776557679246        0.63444163900956
C           58.32482272120728        2.48369457784849        0.44864067345911
N           60.35856968646478        1.45045149125272        0.31227881360736
C           59.01430408368103        1.24448594491080        0.24863202103789
C           58.37660083801537        0.01012623626125        0.03121220886719
C           59.03563575890003       -1.21096084632105       -0.19710390520988
C           58.36900958696232       -2.46659583827215       -0.36996473185014
C           59.33183024223148       -3.40065702846735       -0.57520225384900
C           60.59444608558451       -2.71833929077099       -0.53832353941644
N           60.38193297295877       -1.38726855769860       -0.29653848501587
C           61.84002086248884       -3.33002052904314       -0.69865172528137
C           61.86061144358045       -4.78173288675172       -0.99690422660687
C           62.48757369932999       -5.67264393062025       -0.12011611924260
C           62.52694215031877       -7.02603597035186       -0.40120641317787
C           61.93767861490020       -7.49322917598896       -1.57265910821080
N           61.98764704968331       -8.91154709593090       -1.87947312489868
O           62.55185688862876       -9.63202765878430       -1.09638405487559
O           61.46248542892113       -9.28063839381476       -2.89858399299732
C           61.30529326759659       -6.62385684672661       -2.45700388773965
C           61.26706209582056       -5.27287962260338       -2.16362427493739
C           63.07427605562795       -2.68110587929154       -0.60628663038861
C           64.35354506748588       -3.29745952624027       -0.83599903383182
C           65.29495813133852       -2.33795263078618       -0.66132658400943
C           64.60001176532353       -1.12545908742312       -0.33569125272116
N           63.25438759995491       -1.36070264548103       -0.31345554721764
H           66.29931536114371        0.10406845931002       -0.10210578279642
H           66.32878870835714        2.63493096134392        0.55083081672605
H           64.43661267169864        4.48909852824936        0.98980416053422
H           60.78744511305388        4.63889241090315        2.87752689615818
H           60.81045024764102        7.06543502465416        3.40296003774933
H           62.79752294339237        7.85387879440757       -0.31058627740338
H           62.76763898644725        5.42912033793358       -0.84292680152401
H           59.12347536607187        4.49328188915147        0.79520355015688
H           57.25303587160194        2.60027634535041        0.43963638161997
H           57.30081535078301       -2.60709216004696       -0.32947852232990
H           59.20283566790984       -4.46047640090662       -0.72384463341517
H           62.93451518429871       -5.29745026175903        0.79315095165984
H           63.00810523132948       -7.72393679545354        0.27340927750890
H           60.85692238700485       -7.01245486615221       -3.36344436140650
H           60.79109334517926       -4.58393339397492       -2.85164067430843
H           64.50499760615675       -4.32913796915864       -1.10950786543918
H           66.36594427198452       -2.42670686246322       -0.75158481263918
C           38.34389707425429        0.04357843349911       -0.00108794970044
C           37.11565555269283        0.04122782507118        0.00475484007989
C           35.77046613699864        0.03650603596542        0.00490126304437
C           34.54662491186543        0.03081563031079        0.00181261253909
C           39.68891267233096        0.04092058266914       -0.00224625188232
C           40.91290982341981        0.03689296954205       -0.00501523422301
C           54.40119528837455       -0.01721889869648        0.04315113905340
C           53.17281454752624       -0.01925871377887        0.04013905868547
C           51.82783639363916       -0.02226118701954        0.03008677430583
C           50.60382131531178       -0.01782143662837        0.02371547225424
C           55.74633241948256       -0.01152511905929        0.04246277065407
C           56.97013230103540       -0.00329088446052        0.04056949816587
Cu          45.75836234605129        0.00931811779347       -0.00471195261612
C           42.31885508931719        0.02941973544807       -0.00811589297392
C           42.96112593782992       -1.22035206529365        0.05834641723453
C           42.27678133593114       -2.47339204126103        0.17026341929027
C           43.22747438113727       -3.44146415972246        0.19928918625927
C           44.49970942153582       -2.78415613834010        0.09626090942983
N           44.30482907948184       -1.43143545698961        0.02013316071894
C           45.73843246526268       -3.43028369836930        0.10234321804601
C           45.72907789303073       -4.91217238905606        0.14797243201248
C           46.30731840511198       -5.58904666530012        1.22608048542672
C           46.29733816837846       -6.97106359951102        1.27563199241461
C           45.70896258674448       -7.68341832754477        0.23443786265991
N           45.69811107754853       -9.13475615381967        0.27998721389345
O           45.17444444713885       -9.71752839932703       -0.63468802227884
O           46.21116889366621       -9.66668392957202        1.23099183923043
C           45.13069501208621       -7.02894213144267       -0.84953840066860
C           45.14090083330606       -5.64652802887853       -0.88627106080538
C           46.98471803658383       -2.79969960689561        0.07069347189400
C           48.24943849980188       -3.47673146164639        0.01272125802950
C           49.21140785051769       -2.51971873163806       -0.01273664098598
N           47.19523645725980       -1.44719059799214        0.06440919053771
C           48.54144474241453       -1.25439710571383        0.01931828453933
C           49.19797430519009       -0.01034647626778        0.01330555577560
C           48.55556747861905        1.24104349242312       -0.00352733300469
C           49.23934091722439        2.49894962035892        0.02918326353419
C           48.28866060286983        3.46653345953586       -0.01413172553500
C           47.01706450014665        2.80342508511939       -0.08158792232701
N           47.21217518386366        1.44874210804245       -0.06477058927427
C           45.77853551267545        3.44831278140370       -0.12825230378816
C           45.78828433347764        4.92964057496655       -0.18913702310132
C           46.38288962650279        5.58631529634738       -1.27089998653632
C           46.39172367588579        6.96762128616211       -1.33651663318228
C           45.80565582979153        7.69971691088517       -0.30777725108103
N           45.81363511477548        9.15041492618981       -0.37067869591854
O           46.34236318783567        9.66437837398911       -1.32299481132179
O           45.29281645712102        9.75076998247870        0.53418771392699
C           45.21173105643732        7.06555885419700        0.77979755192750
C           45.20323207194957        5.68361033771040        0.83262126003506
C           44.53223131722186        2.81698462587427       -0.12357384115416
C           43.26789339044944        3.48831330480850       -0.23340955455802
C           42.30589537406215        2.53164077642844       -0.19860401279868
C           42.97548249863753        1.27145133529902       -0.07825675074893
N           44.32148193190186        1.46707629807727       -0.03958873411748
H           41.20622208681764       -2.58763976911072        0.22714906464785
H           43.08320723273630       -4.50517292680781        0.29716857403726
H           46.75193569019765       -5.02248848659871        2.03594705905750
H           46.73689527309710       -7.50425755231085        2.10999998673309
H           44.68294359861310       -7.60668053220482       -1.64917348776827
H           44.70400829395352       -5.12512099243809       -1.72996284340347
H           48.38142565253295       -4.54603474094251       -0.01970197326897
H           50.28077497822756       -2.64943422701611       -0.05795936029177
H           50.30949780470952        2.61705223175443        0.08576836685453
H           48.43233388089194        4.53448427831798        0.01272882861463
H           46.82560831816173        5.00444585278802       -2.07089802118498
H           46.84402536170621        7.48517582636716       -2.17391310803541
H           44.76644447158747        7.65846411252219        1.56964939318604
H           44.75409217212243        5.17799640354385        1.67948198977693
H           43.13610731640642        4.55293747025020       -0.33862752586167
H           41.23679547612576        2.65782848220592       -0.25784000590290

          :  Hamiltonian                  GFN1-xTB          :
         :: total energy            -381.653364832232 Eh    ::
         :: gradient norm              0.000964190112 Eh/a0 ::
         :: HOMO-LUMO gap              0.001034904546 eV    ::
         :: SCC energy              -387.021331883597 Eh    ::
         :: repulsion energy           5.540204603956 Eh    ::

    * Orbital Energies and Occupations

         #    Occupation            Energy/Eh            Energy/eV
      -------------------------------------------------------------
         1        2.0000           -0.9231406             -25.1199
       ...           ...                  ...                  ...
       327        2.0000           -0.4326215             -11.7722
       328        2.0000           -0.4326048             -11.7718
       329        2.0000           -0.4318860             -11.7522
       330        2.0000           -0.4318806             -11.7521
       331        2.0000           -0.4315763             -11.7438
       332        2.0000           -0.4206637             -11.4468
       333        2.0000           -0.4206502             -11.4465
       334        2.0000           -0.4206310             -11.4460
       335        2.0000           -0.4177075             -11.3664
       336        2.0000           -0.4114856             -11.1971
       337        2.0000           -0.4035799             -10.9820
       338        1.0371           -0.3804777             -10.3533
       339        0.9903           -0.3803777             -10.3506 (HOMO)
       340        0.9726           -0.3803397             -10.3496 (LUMO)
       341        0.0000           -0.3657537              -9.9527
       342                         -0.3590698              -9.7708
       343                         -0.3590330              -9.7698
       344                         -0.3587384              -9.7618
       345                         -0.3576468              -9.7321
       346                         -0.3506061              -9.5405
       347                         -0.3499531              -9.5227
       348                         -0.3498439              -9.5197
       349                         -0.3496682              -9.5150
       350                         -0.3436833              -9.3521
       ...                                ...                  ...
       679                          1.5569057              42.3656
      -------------------------------------------------------------
                  HL-Gap            0.0000380 Eh            0.0010 eV

Wiberg/Mayer (AO) data.
largest (>0.10) Wiberg bond orders for each atom

     #   Z sym  total        # sym  WBO       # sym  WBO       # sym  WBO
 ---------------------------------------------------------------------------
     1  29 Cu   2.186 --    43 N    0.505     7 N    0.505    21 N    0.502
                            28 N    0.502
     2   6 C    3.931 --    42 C    1.363     3 C    1.363    44 H    0.971
     3   6 C    3.914 --     2 C    1.363     7 N    1.228     4 C    1.169
     4   6 C    3.955 --     5 C    1.658     3 C    1.169    45 H    0.975
     5   6 C    3.958 --     4 C    1.658     6 C    1.170    46 H    0.973
     6   6 C    3.914 --     8 C    1.317     7 N    1.241     5 C    1.170
     7   7 N    3.243 --     6 C    1.241     3 C    1.228     1 Cu   0.505
     8   6 C    3.932 --    18 C    1.323     6 C    1.317     9 C    1.033
     9   6 C    3.984 --    10 C    1.384    17 C    1.383     8 C    1.033
    10   6 C    3.987 --    11 C    1.464     9 C    1.384    47 H    0.971
                            16 C    0.101
    11   6 C    3.987 --    10 C    1.464    12 C    1.387    48 H    0.965
                            17 C    0.101
    12   6 C    3.941 --    11 C    1.387    16 C    1.387    13 N    0.921
    13   7 N    3.865 --    15 O    1.454    14 O    1.454    12 C    0.921
    14   8 O    1.828 --    13 N    1.454    15 O    0.251
    15   8 O    1.829 --    13 N    1.454    14 O    0.251
    16   6 C    3.987 --    17 C    1.464    12 C    1.387    49 H    0.965
                            10 C    0.101
    17   6 C    3.987 --    16 C    1.464     9 C    1.383    50 H    0.971
                            11 C    0.101
    18   6 C    3.908 --     8 C    1.323    21 N    1.224    19 C    1.178
    19   6 C    3.954 --    20 C    1.643    18 C    1.178    51 H    0.973
    20   6 C    3.956 --    19 C    1.643    22 C    1.186    52 H    0.973
    21   7 N    3.247 --    22 C    1.255    18 C    1.224     1 Cu   0.502
    22   6 C    3.895 --    23 C    1.260    21 N    1.255    20 C    1.186
    23   6 C    3.940 --    24 C    1.260    22 C    1.260   124 C    1.187
    24   6 C    3.895 --    23 C    1.260    28 N    1.255    25 C    1.186
    25   6 C    3.956 --    26 C    1.643    24 C    1.186    53 H    0.973
    26   6 C    3.954 --    25 C    1.643    27 C    1.178    54 H    0.973
    27   6 C    3.908 --    29 C    1.323    28 N    1.224    26 C    1.178
    28   7 N    3.247 --    24 C    1.255    27 C    1.224     1 Cu   0.502
    29   6 C    3.932 --    27 C    1.323    39 C    1.317    30 C    1.033
    30   6 C    3.984 --    38 C    1.384    31 C    1.383    29 C    1.033
    31   6 C    3.986 --    32 C    1.464    30 C    1.383    55 H    0.971
                            37 C    0.101
    32   6 C    3.987 --    31 C    1.464    33 C    1.386    56 H    0.965
                            38 C    0.101
    33   6 C    3.941 --    37 C    1.387    32 C    1.386    34 N    0.921
    34   7 N    3.865 --    36 O    1.454    35 O    1.454    33 C    0.921
    35   8 O    1.828 --    34 N    1.454    36 O    0.251
    36   8 O    1.829 --    34 N    1.454    35 O    0.251
    37   6 C    3.987 --    38 C    1.464    33 C    1.387    57 H    0.965
                            31 C    0.101
    38   6 C    3.987 --    37 C    1.464    30 C    1.384    58 H    0.971
                            32 C    0.101
    39   6 C    3.914 --    29 C    1.317    43 N    1.241    40 C    1.170
    40   6 C    3.958 --    41 C    1.658    39 C    1.170    59 H    0.973
    41   6 C    3.955 --    40 C    1.658    42 C    1.169    60 H    0.975
    42   6 C    3.914 --     2 C    1.363    43 N    1.228    41 C    1.169
    43   7 N    3.244 --    39 C    1.241    42 C    1.228     1 Cu   0.505
    44   1 H    1.001 --     2 C    0.971
    45   1 H    0.997 --     4 C    0.975
    46   1 H    1.003 --     5 C    0.973
    47   1 H    1.003 --    10 C    0.971
    48   1 H    1.006 --    11 C    0.965
    49   1 H    1.006 --    16 C    0.965
    50   1 H    1.003 --    17 C    0.971
    51   1 H    1.003 --    19 C    0.973
    52   1 H    1.001 --    20 C    0.973
    53   1 H    1.001 --    25 C    0.973
    54   1 H    1.003 --    26 C    0.973
    55   1 H    1.003 --    31 C    0.971
    56   1 H    1.006 --    32 C    0.965
    57   1 H    1.006 --    37 C    0.965
    58   1 H    1.003 --    38 C    0.971
    59   1 H    1.003 --    40 C    0.973
    60   1 H    0.997 --    41 C    0.975
    61  29 Cu   2.186 --   103 N    0.505    67 N    0.505    81 N    0.502
                            88 N    0.502
    62   6 C    3.931 --   102 C    1.363    63 C    1.362   104 H    0.971
    63   6 C    3.914 --    62 C    1.362    67 N    1.228    64 C    1.169
    64   6 C    3.955 --    65 C    1.658    63 C    1.169   105 H    0.975
    65   6 C    3.958 --    64 C    1.658    66 C    1.170   106 H    0.973
    66   6 C    3.914 --    68 C    1.317    67 N    1.241    65 C    1.170
    67   7 N    3.243 --    66 C    1.241    63 C    1.228    61 Cu   0.505
    68   6 C    3.931 --    78 C    1.323    66 C    1.317    69 C    1.033
    69   6 C    3.984 --    70 C    1.384    77 C    1.383    68 C    1.033
    70   6 C    3.987 --    71 C    1.464    69 C    1.384   107 H    0.971
                            76 C    0.101
    71   6 C    3.987 --    70 C    1.464    72 C    1.387   108 H    0.965
                            77 C    0.101
    72   6 C    3.941 --    71 C    1.387    76 C    1.387    73 N    0.921
    73   7 N    3.865 --    75 O    1.454    74 O    1.454    72 C    0.921
    74   8 O    1.828 --    73 N    1.454    75 O    0.251
    75   8 O    1.828 --    73 N    1.454    74 O    0.251
    76   6 C    3.987 --    77 C    1.464    72 C    1.387   109 H    0.965
                            70 C    0.101
    77   6 C    3.987 --    76 C    1.464    69 C    1.383   110 H    0.971
                            71 C    0.101
    78   6 C    3.908 --    68 C    1.323    81 N    1.224    79 C    1.178
    79   6 C    3.954 --    80 C    1.643    78 C    1.178   111 H    0.973
    80   6 C    3.956 --    79 C    1.643    82 C    1.186   112 H    0.973
    81   7 N    3.247 --    82 C    1.255    78 C    1.224    61 Cu   0.502
    82   6 C    3.895 --    83 C    1.260    81 N    1.255    80 C    1.186
    83   6 C    3.940 --    82 C    1.260    84 C    1.260   132 C    1.188
    84   6 C    3.895 --    83 C    1.260    88 N    1.255    85 C    1.186
    85   6 C    3.956 --    86 C    1.643    84 C    1.186   113 H    0.973
    86   6 C    3.954 --    85 C    1.643    87 C    1.178   114 H    0.973
    87   6 C    3.908 --    89 C    1.323    88 N    1.224    86 C    1.178
    88   7 N    3.247 --    84 C    1.255    87 C    1.224    61 Cu   0.502
    89   6 C    3.932 --    87 C    1.323    99 C    1.317    90 C    1.033
    90   6 C    3.984 --    98 C    1.384    91 C    1.383    89 C    1.033
    91   6 C    3.986 --    92 C    1.464    90 C    1.383   115 H    0.971
                            97 C    0.101
    92   6 C    3.987 --    91 C    1.464    93 C    1.386   116 H    0.965
                            98 C    0.101
    93   6 C    3.941 --    97 C    1.387    92 C    1.386    94 N    0.921
    94   7 N    3.865 --    96 O    1.454    95 O    1.454    93 C    0.921
    95   8 O    1.828 --    94 N    1.454    96 O    0.251
    96   8 O    1.828 --    94 N    1.454    95 O    0.251
    97   6 C    3.987 --    98 C    1.464    93 C    1.387   117 H    0.965
                            91 C    0.101
    98   6 C    3.987 --    97 C    1.464    90 C    1.384   118 H    0.971
                            92 C    0.101
    99   6 C    3.914 --    89 C    1.317   103 N    1.241   100 C    1.170
   100   6 C    3.958 --   101 C    1.658    99 C    1.170   119 H    0.973
   101   6 C    3.955 --   100 C    1.658   102 C    1.169   120 H    0.975
   102   6 C    3.914 --    62 C    1.363   103 N    1.228   101 C    1.169
   103   7 N    3.243 --    99 C    1.241   102 C    1.228    61 Cu   0.505
   104   1 H    1.001 --    62 C    0.971
   105   1 H    0.997 --    64 C    0.975
   106   1 H    1.003 --    65 C    0.973
   107   1 H    1.003 --    70 C    0.971
   108   1 H    1.006 --    71 C    0.965
   109   1 H    1.006 --    76 C    0.965
   110   1 H    1.003 --    77 C    0.971
   111   1 H    1.003 --    79 C    0.973
   112   1 H    1.001 --    80 C    0.973
   113   1 H    1.001 --    85 C    0.973
   114   1 H    1.003 --    86 C    0.973
   115   1 H    1.003 --    91 C    0.971
   116   1 H    1.006 --    92 C    0.965
   117   1 H    1.006 --    97 C    0.965
   118   1 H    1.003 --    98 C    0.971
   119   1 H    1.003 --   100 C    0.973
   120   1 H    0.997 --   101 C    0.975
   121   6 C    3.927 --   122 C    2.372   125 C    1.333   124 C    0.191
   122   6 C    3.926 --   121 C    2.372   123 C    1.332   126 C    0.190
   123   6 C    3.936 --   124 C    2.454   122 C    1.332
   124   6 C    3.891 --   123 C    2.454    23 C    1.187   121 C    0.191
   125   6 C    3.933 --   126 C    2.451   121 C    1.333
   126   6 C    3.892 --   125 C    2.451   134 C    1.190   122 C    0.190
   127   6 C    3.926 --   128 C    2.371   131 C    1.333   130 C    0.190
   128   6 C    3.927 --   127 C    2.371   129 C    1.333   132 C    0.191
   129   6 C    3.933 --   130 C    2.451   128 C    1.333
   130   6 C    3.892 --   129 C    2.451   155 C    1.190   127 C    0.190
   131   6 C    3.936 --   132 C    2.454   127 C    1.333
   132   6 C    3.891 --   131 C    2.454    83 C    1.188   128 C    0.191
   133  29 Cu   2.149 --   139 N    0.495   160 N    0.495   175 N    0.495
                           153 N    0.495
   134   6 C    3.930 --   174 C    1.258   135 C    1.258   126 C    1.190
   135   6 C    3.895 --   139 N    1.258   134 C    1.258   136 C    1.186
   136   6 C    3.955 --   137 C    1.643   135 C    1.186   176 H    0.973
   137   6 C    3.955 --   136 C    1.643   138 C    1.179   177 H    0.973
   138   6 C    3.906 --   140 C    1.320   139 N    1.225   137 C    1.179
   139   7 N    3.240 --   135 C    1.258   138 C    1.225   133 Cu   0.495
   140   6 C    3.928 --   150 C    1.320   138 C    1.320   141 C    1.032
   141   6 C    3.984 --   142 C    1.384   149 C    1.384   140 C    1.032
   142   6 C    3.987 --   143 C    1.464   141 C    1.384   178 H    0.971
                           148 C    0.102
   143   6 C    3.987 --   142 C    1.464   144 C    1.387   179 H    0.965
                           149 C    0.102
   144   6 C    3.941 --   143 C    1.387   148 C    1.387   145 N    0.921
   145   7 N    3.865 --   146 O    1.454   147 O    1.454   144 C    0.921
   146   8 O    1.829 --   145 N    1.454   147 O    0.251
   147   8 O    1.828 --   145 N    1.454   146 O    0.251
   148   6 C    3.987 --   149 C    1.464   144 C    1.387   180 H    0.965
                           142 C    0.102
   149   6 C    3.987 --   148 C    1.464   141 C    1.384   181 H    0.971
                           143 C    0.102
   150   6 C    3.906 --   140 C    1.320   153 N    1.225   151 C    1.179
   151   6 C    3.955 --   152 C    1.643   150 C    1.179   182 H    0.973
   152   6 C    3.955 --   151 C    1.643   154 C    1.186   183 H    0.974
   153   7 N    3.240 --   154 C    1.259   150 C    1.225   133 Cu   0.495
   154   6 C    3.895 --   153 N    1.259   155 C    1.257   152 C    1.186
   155   6 C    3.930 --   154 C    1.257   156 C    1.257   130 C    1.190
   156   6 C    3.895 --   160 N    1.258   155 C    1.257   157 C    1.186
   157   6 C    3.955 --   158 C    1.643   156 C    1.186   184 H    0.974
   158   6 C    3.955 --   157 C    1.643   159 C    1.179   185 H    0.973
   159   6 C    3.906 --   161 C    1.320   160 N    1.226   158 C    1.179
   160   7 N    3.240 --   156 C    1.258   159 C    1.226   133 Cu   0.495
   161   6 C    3.928 --   171 C    1.321   159 C    1.320   162 C    1.032
   162   6 C    3.984 --   170 C    1.384   163 C    1.384   161 C    1.032
   163   6 C    3.987 --   164 C    1.464   162 C    1.384   186 H    0.971
                           169 C    0.102
   164   6 C    3.987 --   163 C    1.464   165 C    1.387   187 H    0.965
                           170 C    0.102
   165   6 C    3.941 --   169 C    1.387   164 C    1.387   166 N    0.921
   166   7 N    3.865 --   168 O    1.454   167 O    1.454   165 C    0.921
   167   8 O    1.828 --   166 N    1.454   168 O    0.251
   168   8 O    1.829 --   166 N    1.454   167 O    0.251
   169   6 C    3.987 --   170 C    1.464   165 C    1.387   188 H    0.965
                           163 C    0.102
   170   6 C    3.987 --   169 C    1.464   162 C    1.384   189 H    0.971
                           164 C    0.102
   171   6 C    3.906 --   161 C    1.321   175 N    1.225   172 C    1.179
   172   6 C    3.955 --   173 C    1.643   171 C    1.179   190 H    0.973
   173   6 C    3.955 --   172 C    1.643   174 C    1.186   191 H    0.974
   174   6 C    3.896 --   175 N    1.259   134 C    1.258   173 C    1.186
   175   7 N    3.240 --   174 C    1.259   171 C    1.225   133 Cu   0.495
   176   1 H    1.001 --   136 C    0.973
   177   1 H    1.003 --   137 C    0.973
   178   1 H    1.003 --   142 C    0.971
   179   1 H    1.006 --   143 C    0.965
   180   1 H    1.006 --   148 C    0.965
   181   1 H    1.003 --   149 C    0.971
   182   1 H    1.003 --   151 C    0.973
   183   1 H    1.001 --   152 C    0.974
   184   1 H    1.001 --   157 C    0.974
   185   1 H    1.003 --   158 C    0.973
   186   1 H    1.003 --   163 C    0.971
   187   1 H    1.006 --   164 C    0.965
   188   1 H    1.006 --   169 C    0.965
   189   1 H    1.003 --   170 C    0.971
   190   1 H    1.003 --   172 C    0.973
   191   1 H    1.001 --   173 C    0.974
 ---------------------------------------------------------------------------

           -------------------------------------------------
          | TOTAL ENERGY             -381.653364832232 Eh   |
          | GRADIENT NORM               0.000964190112 Eh/α |
          | HOMO-LUMO GAP               0.001034904546 eV   |
           -------------------------------------------------

 * finished run on 2022/07/30 at 08:17:32.471
