   * xtb version 6.5.1 (b24c23e) compiled by 'conda@728c89f4b128' on 2022-07-12
          program call               : xtb Fe_C2Py_C8_2.xyz --gfn 1 --opt -T 48

   ID    Z sym.   atoms
    1   26 Fe     1, 59
    2    6 C      2-6, 8-13, 15-19, 21-26, 28-33, 35-40, 60-64, 66-71, 73-77,
                  79-84, 86-91, 93-98, 117-124
    3    7 N      7, 14, 20, 27, 34, 41, 65, 72, 78, 85, 92, 99
    4    1 H      42-58, 100-116
########################################################################
[WARNING] Please study the warnings concerning your input carefully
-1- prog_main_parseArguments: Unknown option '-T' provided
########################################################################

          :  Hamiltonian                  GFN1-xTB          :
 * total energy  :  -222.4353321 Eh     change       -0.1288848E-07 Eh
 * total energy  :  -222.6855915 Eh     change       -0.2502593E+00 Eh
 * total energy  :  -222.7560415 Eh     change       -0.7045005E-01 Eh
 * total energy  :  -222.7828479 Eh     change       -0.2680639E-01 Eh
 * total energy  :  -222.7924141 Eh     change       -0.9566156E-02 Eh
 * total energy  :  -222.7970354 Eh     change       -0.4621362E-02 Eh
 * total energy  :  -222.7996884 Eh     change       -0.2653010E-02 Eh
 * total energy  :  -222.8006513 Eh     change       -0.9628849E-03 Eh
 * total energy  :  -222.8007291 Eh     change       -0.7777805E-04 Eh
 * total energy  :  -222.8016282 Eh     change       -0.8991005E-03 Eh
 * total energy  :  -222.8028132 Eh     change       -0.1725968E-04 Eh
 * total energy  :  -222.8028289 Eh     change       -0.1571548E-04 Eh
 * total energy  :  -222.8028498 Eh     change       -0.2082154E-04 Eh
 * total energy  :  -222.8028783 Eh     change       -0.2850926E-04 Eh
 * total energy  :  -222.8028936 Eh     change       -0.1532151E-04 Eh
 * total energy  :  -222.8029049 Eh     change       -0.1132412E-04 Eh
 * total energy  :  -222.8029141 Eh     change       -0.9146803E-05 Eh
 * total energy  :  -222.8029209 Eh     change       -0.6830310E-05 Eh
 * total energy  :  -222.8029243 Eh     change       -0.3393116E-05 Eh
   *** GEOMETRY OPTIMIZATION CONVERGED AFTER 39 ITERATIONS ***

 final structure:
================
124
 xtb: 6.5.1 (b24c23e)
Fe          13.61036930464629        0.04654927268047        0.00359597151194
C           10.20946273486213        0.10578964441661        0.00092117485348
C           10.86511168369008        0.89547224487356        0.92241805674876
C           10.19453558961067        1.72833557450220        1.87488741965850
C           11.15973010407182        2.38790641430523        2.55917523746385
C           12.41338923423376        1.95620293180031        2.01891565965797
N           12.22580421335938        1.03218051681542        1.03415836572458
C           13.64649979388789        2.47211090250310        2.42639555822907
C           13.66370517841320        3.47333455884290        3.42116941859106
C           13.68652983508468        4.33663001372840        4.27377001469730
C           13.72352129385889        5.34437606854147        5.26451353706185
C           14.93336007486474        5.93488424050382        5.64869574677300
C           14.91972954391715        6.91917007936010        6.62071935340443
N           13.80570280293978        7.33751873268620        7.21620483218936
C           12.65184101594165        6.78064085528609        6.85719589640177
C           12.55654211241381        5.79014439784205        5.89575602642595
C           14.86248889309908        2.05031703986530        1.88885465646644
C           16.12641555816237        2.58853696627114        2.28516435090673
C           17.07237300863235        1.90236916030639        1.59827537344568
N           15.02860472067114        1.05742944938941        0.96043758859055
C           16.37870032056732        0.94935493319902        0.78968230415245
C           17.03240929411266        0.00659712238345       -0.01318414611790
C           16.35084791243161       -0.92688631810187       -0.80318963908837
C           17.01449341510958       -1.89935855148283       -1.61328168151395
C           16.04540505122988       -2.57713076406431       -2.27615563768356
C           14.79783496787280       -2.01169663469447       -1.86643577500027
N           14.99631287484922       -1.01289140705086       -0.95071569414808
C           13.56680843822825       -2.40993803305032       -2.38716145088705
C           13.54555784952601       -3.42441685943544       -3.36838223607309
C           13.52341104669484       -4.29961255265646       -4.20880420913224
C           13.49641765414864       -5.31750375348987       -5.18947768032051
C           14.66756120203692       -5.97032330135626       -5.59145494828843
C           14.58575696950056       -6.95991166139661       -6.55486358471202
N           13.44100460652455       -7.32659704846329       -7.12548701889344
C           12.32330713667267       -6.71062631174026       -6.74897613988908
C           12.29643049177438       -5.70975695964289       -5.79420688866031
C           12.35149120189095       -1.84915952448363       -1.98489865314461
C           11.08467074947006       -2.23912786526406       -2.52638319441185
C           10.14259394118369       -1.53071094068826       -1.85903361673894
C           10.83991007715131       -0.71355028006330       -0.91220305960613
N           12.19481566072696       -0.90651158185365       -1.01246055409008
H            9.12538211361744        0.12754773278003       -0.00332114418393
H            9.12370750573666        1.78885698609709        1.98718357950658
H           11.05154088568479        3.10769202267597        3.35470914921849
H           15.86363636524506        5.62379321883105        5.18887213408697
H           15.84350621078260        7.39495691192890        6.93717843860111
H           11.76265292298961        7.14550441507059        7.36327422130986
H           11.59558129066198        5.36414502064861        5.63370458161267
H           16.25726197638740        3.38543444463935        2.99943588099040
H           18.14396163738660        2.01567405068435        1.62947230464110
H           18.08340195890287       -2.03092519606296       -1.66153067144962
H           16.15019816126796       -3.38313071577489       -2.98444335397989
H           15.62105352230174       -5.70264244608429       -5.15242740633018
H           15.47818186678854       -7.48341820811360       -6.88547940430315
H           11.40747911927816       -7.03441720901238       -7.23501758535247
H           11.36347545598694       -5.23414312094036       -5.51685327347610
H           10.95290974737292       -2.96510308027999       -3.31267275118402
H            9.07097201985979       -1.54933482665609       -1.97837595840257
Fe          32.18756718188200       -0.03038282738173       -0.03912012048998
C           35.58837107510923       -0.05663234754317       -0.09244526499612
C           34.93360227883143       -1.25373301017772       -0.29453905373646
C           35.60478936814472       -2.49882071001540       -0.51768457388867
C           34.64007841321635       -3.42552305214049       -0.73095652344480
C           33.38609927673176       -2.74059485853886       -0.63980346160086
N           33.57299838234403       -1.42060331052093       -0.35457571835017
C           32.15321408402452       -3.35535795879338       -0.87404682352004
C           32.13581191631540       -4.72304115214956       -1.22252199006173
C           32.11473344388973       -5.89818126473842       -1.52475710381703
C           32.07831652690641       -7.26492447732876       -1.88432272763025
C           30.86903137258616       -7.89811396962878       -2.19521407626104
C           30.88381528080878       -9.23702695499575       -2.54310092565190
N           31.99836810202115       -9.96191303134208       -2.59729829532002
C           33.15168047503755       -9.36762368602051       -2.30216387161957
C           33.24581298172122       -8.03463029508463       -1.94348112061610
C           30.93719942478835       -2.67744273321019       -0.78969060276043
C           29.67363159180354       -3.29448679421918       -1.04838792335649
C           28.72725572472351       -2.35284461437130       -0.81377508133233
N           30.77046504233577       -1.37063678255267       -0.41560228222178
C           29.42029769325033       -1.16905770700435       -0.41169075715567
C           28.76557323515087        0.00405276044069       -0.01707354273373
C           29.44598149843004        1.16193314639374        0.37833196069664
C           28.78178678503283        2.35656813081954        0.79541806117624
C           29.75051277847678        3.27384405125045        1.03655314590320
C           30.99842884781343        2.63201804174297        0.76294784140378
N           30.80049341725357        1.33318246007378        0.37693916055282
C           32.22934827109312        3.28357298297273        0.83764773127767
C           32.25056836736066        4.64633610648563        1.20483489698052
C           32.27314130908974        5.81647441204464        1.52581444454822
C           32.30134875163321        7.17998383399455        1.89815666825534
C           31.13081137549583        7.86058860911247        2.25313568374914
C           31.21384707074956        9.19466952996651        2.61010231933211
N           32.35925067458786        9.87149909458749        2.63302291939705
C           33.47633217267915        9.23171981019320        2.29659839876498
C           33.50198902598633        7.89915341375591        1.92552989776796
C           33.44482099658850        2.65069910728230        0.56304874212402
C           34.71130282725844        3.31638065935435        0.61826240548141
C           35.65378637443956        2.38033082479202        0.35322759632272
C           34.95710658969416        1.14758466412648        0.13994677341835
N           33.60214704024622        1.33204755488662        0.25437688088411
H           36.67246076766326       -0.06328087308148       -0.11344571632061
H           36.67567884719891       -2.62576287593214       -0.51141633191911
H           34.74887763298062       -4.47809786712481       -0.93813135164243
H           29.93819787701154       -7.34471269382670       -2.16361063368561
H           29.96049422308268       -9.75311607930756       -2.79011953203550
H           34.04133117736988       -9.98848142181423       -2.35610966390758
H           34.20624133546611       -7.59067634897610       -1.71110320221354
H           29.54347382333705       -4.31691146568947       -1.36474155282981
H           27.65572311528142       -2.43806974299185       -0.89535336967367
H           27.71282165932288        2.46551957107429        0.88315548188187
H           29.64530241899632        4.29579907074100        1.36333985833591
H           30.17688393023850        7.34721625969192        2.24789013120592
H           30.32196992307884        9.74748594599631        2.89070205047632
H           34.39273485130335        9.81410025336150        2.32604518137381
H           34.43450999330809        7.41657422597179        1.65895630431805
H           34.84261062444704        4.36417435566617        0.83629327860834
H           36.72530799919215        2.49292653423378        0.30705214342540
C           18.43312639390464       -0.00371186133835       -0.02074753745189
C           19.65937813585999       -0.00431529282828       -0.02349586073744
C           20.99886105648724       -0.00198704717754       -0.02387454742605
C           22.23151943141290        0.00346463282556       -0.02122673749419
C           23.56622261083681        0.00933104169888       -0.01853581975844
C           24.79890154002758        0.01653191001287       -0.01607074191973
C           26.13845371423950        0.01769299610873       -0.01490630048659
C           27.36479055401356        0.01476234466732       -0.01424669344012

          :  Hamiltonian                  GFN1-xTB          :
         :: total energy            -222.802924294995 Eh    ::
         :: gradient norm              0.000752114091 Eh/a0 ::
         :: HOMO-LUMO gap              0.070096841116 eV    ::
         :: SCC energy              -226.719488150256 Eh    ::
         :: repulsion energy           4.018986197316 Eh    ::

    * Orbital Energies and Occupations

         #    Occupation            Energy/Eh            Energy/eV
      -------------------------------------------------------------
         1        2.0000           -0.7770116             -21.1436
       ...           ...                  ...                  ...
       195        2.0000           -0.4224678             -11.4959
       196        2.0000           -0.4224641             -11.4958
       197        2.0000           -0.4187834             -11.3957
       198        2.0000           -0.4046459             -11.0110
       199        2.0000           -0.4046428             -11.0109
       200        1.9997           -0.3992510             -10.8642
       201        1.9921           -0.3962830             -10.7834
       202        1.9920           -0.3962723             -10.7831
       203        1.9541           -0.3945942             -10.7375
       204        1.9536           -0.3945823             -10.7371
       205        1.9463           -0.3944408             -10.7333
       206        1.9462           -0.3944384             -10.7332
       207        1.5209           -0.3921272             -10.6703 (HOMO)
       208        0.3484           -0.3895512             -10.6002 (LUMO)
       209        0.3467           -0.3895456             -10.6001
       210                         -0.3478827              -9.4664
       211                         -0.3447019              -9.3798
       212                         -0.3447007              -9.3798
       213                         -0.3367039              -9.1622
       214                         -0.3188587              -8.6766
       215                         -0.3163664              -8.6088
       216                         -0.3113587              -8.4725
       217                         -0.3100008              -8.4356
       218                         -0.3099348              -8.4338
       ...                                ...                  ...
       438                          1.5919122              43.3181
      -------------------------------------------------------------
                  HL-Gap            0.0025760 Eh            0.0701 eV

Wiberg/Mayer (AO) data.
largest (>0.10) Wiberg bond orders for each atom

     #   Z sym  total        # sym  WBO       # sym  WBO       # sym  WBO
 ---------------------------------------------------------------------------
     1  26 Fe   3.066 --    41 N    0.658     7 N    0.657    27 N    0.652
                            20 N    0.652
     2   6 C    3.920 --    40 C    1.365     3 C    1.365    42 H    0.970
     3   6 C    3.916 --     2 C    1.365     7 N    1.202     4 C    1.174
     4   6 C    3.958 --     5 C    1.645     3 C    1.174    43 H    0.975
     5   6 C    3.961 --     4 C    1.645     6 C    1.182    44 H    0.974
     6   6 C    3.912 --     8 C    1.265     7 N    1.244     5 C    1.182
     7   7 N    3.376 --     6 C    1.244     3 C    1.202     1 Fe   0.657
     8   6 C    3.919 --    17 C    1.281     6 C    1.265     9 C    1.160
     9   6 C    3.956 --    10 C    2.622     8 C    1.160
    10   6 C    3.928 --     9 C    2.622    11 C    1.141
    11   6 C    3.987 --    16 C    1.351    12 C    1.350    10 C    1.141
    12   6 C    3.973 --    13 C    1.457    11 C    1.350    45 H    0.974
                            15 C    0.104
    13   6 C    3.972 --    12 C    1.457    14 N    1.407    46 H    0.972
                            16 C    0.104
    14   7 N    2.994 --    15 C    1.408    13 C    1.407
    15   6 C    3.972 --    16 C    1.456    14 N    1.408    47 H    0.972
                            12 C    0.104
    16   6 C    3.973 --    15 C    1.456    11 C    1.351    48 H    0.974
                            13 C    0.104
    17   6 C    3.906 --     8 C    1.281    20 N    1.219    18 C    1.188
    18   6 C    3.956 --    19 C    1.632    17 C    1.188    49 H    0.973
    19   6 C    3.958 --    18 C    1.632    21 C    1.190    50 H    0.973
    20   7 N    3.376 --    21 C    1.237    17 C    1.219     1 Fe   0.652
    21   6 C    3.893 --    22 C    1.251    20 N    1.237    19 C    1.190
    22   6 C    3.918 --    23 C    1.252    21 C    1.251   117 C    1.204
    23   6 C    3.894 --    22 C    1.252    27 N    1.237    24 C    1.191
    24   6 C    3.959 --    25 C    1.632    23 C    1.191    51 H    0.973
    25   6 C    3.956 --    24 C    1.632    26 C    1.188    52 H    0.973
    26   6 C    3.906 --    28 C    1.282    27 N    1.219    25 C    1.188
    27   7 N    3.375 --    23 C    1.237    26 C    1.219     1 Fe   0.652
    28   6 C    3.919 --    26 C    1.282    37 C    1.264    29 C    1.160
    29   6 C    3.956 --    30 C    2.622    28 C    1.160
    30   6 C    3.928 --    29 C    2.622    31 C    1.141
    31   6 C    3.987 --    32 C    1.350    36 C    1.350    30 C    1.141
    32   6 C    3.973 --    33 C    1.456    31 C    1.350    53 H    0.974
                            35 C    0.104
    33   6 C    3.972 --    32 C    1.456    34 N    1.407    54 H    0.972
                            36 C    0.104
    34   7 N    2.994 --    33 C    1.407    35 C    1.407
    35   6 C    3.972 --    36 C    1.457    34 N    1.407    55 H    0.972
                            32 C    0.104
    36   6 C    3.972 --    35 C    1.457    31 C    1.350    56 H    0.974
                            33 C    0.104
    37   6 C    3.911 --    28 C    1.264    41 N    1.244    38 C    1.182
    38   6 C    3.961 --    39 C    1.645    37 C    1.182    57 H    0.973
    39   6 C    3.958 --    38 C    1.645    40 C    1.174    58 H    0.975
    40   6 C    3.916 --     2 C    1.365    41 N    1.202    39 C    1.174
    41   7 N    3.376 --    37 C    1.244    40 C    1.202     1 Fe   0.658
    42   1 H    1.000 --     2 C    0.970
    43   1 H    0.997 --     4 C    0.975
    44   1 H    1.002 --     5 C    0.974
    45   1 H    1.002 --    12 C    0.974
    46   1 H    1.013 --    13 C    0.972
    47   1 H    1.013 --    15 C    0.972
    48   1 H    1.002 --    16 C    0.974
    49   1 H    1.003 --    18 C    0.973
    50   1 H    1.001 --    19 C    0.973
    51   1 H    1.001 --    24 C    0.973
    52   1 H    1.002 --    25 C    0.973
    53   1 H    1.002 --    32 C    0.974
    54   1 H    1.013 --    33 C    0.972
    55   1 H    1.013 --    35 C    0.972
    56   1 H    1.002 --    36 C    0.974
    57   1 H    1.002 --    38 C    0.973
    58   1 H    0.997 --    39 C    0.975
    59  26 Fe   3.065 --    99 N    0.658    65 N    0.657    78 N    0.652
                            85 N    0.651
    60   6 C    3.920 --    98 C    1.365    61 C    1.365   100 H    0.970
    61   6 C    3.916 --    60 C    1.365    65 N    1.202    62 C    1.174
    62   6 C    3.958 --    63 C    1.645    61 C    1.174   101 H    0.975
    63   6 C    3.961 --    62 C    1.645    64 C    1.182   102 H    0.974
    64   6 C    3.911 --    66 C    1.265    65 N    1.244    63 C    1.182
    65   7 N    3.376 --    64 C    1.244    61 C    1.202    59 Fe   0.657
    66   6 C    3.919 --    75 C    1.281    64 C    1.265    67 C    1.160
    67   6 C    3.956 --    68 C    2.622    66 C    1.160
    68   6 C    3.928 --    67 C    2.622    69 C    1.141
    69   6 C    3.987 --    74 C    1.351    70 C    1.350    68 C    1.141
    70   6 C    3.973 --    71 C    1.457    69 C    1.350   103 H    0.974
                            73 C    0.104
    71   6 C    3.972 --    70 C    1.457    72 N    1.407   104 H    0.972
                            74 C    0.104
    72   7 N    2.994 --    73 C    1.408    71 C    1.407
    73   6 C    3.972 --    74 C    1.456    72 N    1.408   105 H    0.972
                            70 C    0.104
    74   6 C    3.973 --    73 C    1.456    69 C    1.351   106 H    0.974
                            71 C    0.104
    75   6 C    3.906 --    66 C    1.281    78 N    1.219    76 C    1.188
    76   6 C    3.956 --    77 C    1.632    75 C    1.188   107 H    0.973
    77   6 C    3.958 --    76 C    1.632    79 C    1.190   108 H    0.973
    78   7 N    3.376 --    79 C    1.237    75 C    1.219    59 Fe   0.652
    79   6 C    3.893 --    80 C    1.251    78 N    1.237    77 C    1.190
    80   6 C    3.918 --    81 C    1.252    79 C    1.251   124 C    1.204
    81   6 C    3.894 --    80 C    1.252    85 N    1.237    82 C    1.191
    82   6 C    3.959 --    83 C    1.632    81 C    1.191   109 H    0.973
    83   6 C    3.956 --    82 C    1.632    84 C    1.188   110 H    0.973
    84   6 C    3.906 --    86 C    1.282    85 N    1.219    83 C    1.188
    85   7 N    3.375 --    81 C    1.237    84 C    1.219    59 Fe   0.651
    86   6 C    3.919 --    84 C    1.282    95 C    1.264    87 C    1.160
    87   6 C    3.956 --    88 C    2.622    86 C    1.160
    88   6 C    3.928 --    87 C    2.622    89 C    1.141
    89   6 C    3.987 --    90 C    1.350    94 C    1.350    88 C    1.141
    90   6 C    3.973 --    91 C    1.457    89 C    1.350   111 H    0.974
                            93 C    0.104
    91   6 C    3.972 --    90 C    1.457    92 N    1.407   112 H    0.972
                            94 C    0.104
    92   7 N    2.994 --    93 C    1.407    91 C    1.407
    93   6 C    3.972 --    94 C    1.457    92 N    1.407   113 H    0.972
                            90 C    0.104
    94   6 C    3.972 --    93 C    1.457    89 C    1.350   114 H    0.974
                            91 C    0.104
    95   6 C    3.911 --    86 C    1.264    99 N    1.244    96 C    1.182
    96   6 C    3.961 --    97 C    1.645    95 C    1.182   115 H    0.973
    97   6 C    3.958 --    96 C    1.645    98 C    1.174   116 H    0.975
    98   6 C    3.916 --    60 C    1.365    99 N    1.202    97 C    1.174
    99   7 N    3.376 --    95 C    1.244    98 C    1.202    59 Fe   0.658
   100   1 H    1.000 --    60 C    0.970
   101   1 H    0.997 --    62 C    0.975
   102   1 H    1.002 --    63 C    0.974
   103   1 H    1.002 --    70 C    0.974
   104   1 H    1.013 --    71 C    0.972
   105   1 H    1.013 --    73 C    0.972
   106   1 H    1.002 --    74 C    0.974
   107   1 H    1.003 --    76 C    0.973
   108   1 H    1.001 --    77 C    0.973
   109   1 H    1.001 --    82 C    0.973
   110   1 H    1.002 --    83 C    0.973
   111   1 H    1.002 --    90 C    0.974
   112   1 H    1.013 --    91 C    0.972
   113   1 H    1.013 --    93 C    0.972
   114   1 H    1.002 --    94 C    0.974
   115   1 H    1.002 --    96 C    0.973
   116   1 H    0.997 --    97 C    0.975
   117   6 C    3.864 --   118 C    2.414    22 C    1.204   120 C    0.183
   118   6 C    3.925 --   117 C    2.414   119 C    1.361
   119   6 C    3.881 --   120 C    2.308   118 C    1.361   122 C    0.178
   120   6 C    3.915 --   119 C    2.308   121 C    1.387   117 C    0.183
   121   6 C    3.915 --   122 C    2.308   120 C    1.387   124 C    0.183
   122   6 C    3.881 --   121 C    2.308   123 C    1.361   119 C    0.178
   123   6 C    3.925 --   124 C    2.414   122 C    1.361
   124   6 C    3.864 --   123 C    2.414    80 C    1.204   121 C    0.183
 ---------------------------------------------------------------------------

           -------------------------------------------------
          | TOTAL ENERGY             -222.802924294995 Eh   |
          | GRADIENT NORM               0.000752114091 Eh/α |
          | HOMO-LUMO GAP               0.070096841116 eV   |
           -------------------------------------------------

 * finished run on 2022/07/29 at 18:24:08.500
