   * xtb version 6.5.1 (b24c23e) compiled by 'conda@728c89f4b128' on 2022-07-12
          program call               : xtb Cu_PhOH_C8_2.xyz --gfn 1 --opt -T 48

   ID    Z sym.   atoms
    1   29 Cu     1, 59
    2    6 C      2-6, 8-12, 14-18, 20-25, 27-31, 33-38, 60-64, 66-70, 72-76,
                  78-83, 85-89, 91-96, 117-124
    3    7 N      7, 19, 26, 39, 65, 77, 84, 97
    4    8 O      13, 32, 71, 90
    5    1 H      40-58, 98-116
########################################################################
[WARNING] Please study the warnings concerning your input carefully
-1- prog_main_parseArguments: Unknown option '-T' provided
########################################################################

          :  Hamiltonian                  GFN1-xTB          :
 * total energy  :  -224.9412230 Eh     change       -0.4892229E-09 Eh
 * total energy  :  -225.6165418 Eh     change       -0.6753188E+00 Eh
 * total energy  :  -225.7412779 Eh     change       -0.1247361E+00 Eh
 * total energy  :  -225.7926333 Eh     change       -0.5135543E-01 Eh
 * total energy  :  -225.8110327 Eh     change       -0.1839937E-01 Eh
 * total energy  :  -225.8203966 Eh     change       -0.9363864E-02 Eh
 * total energy  :  -225.8271265 Eh     change       -0.6729990E-02 Eh
 * total energy  :  -225.8329728 Eh     change       -0.5846214E-02 Eh
 * total energy  :  -225.8371958 Eh     change       -0.4223031E-02 Eh
 * total energy  :  -225.8402391 Eh     change       -0.3043286E-02 Eh
 * total energy  :  -225.8509095 Eh     change       -0.7377770E-05 Eh
 * total energy  :  -225.8509207 Eh     change       -0.1116329E-04 Eh
 * total energy  :  -225.8509315 Eh     change       -0.1084236E-04 Eh
 * total energy  :  -225.8509376 Eh     change       -0.6063804E-05 Eh
 * total energy  :  -225.8509364 Eh     change        0.1204541E-05 Eh
 * total energy  :  -225.8509426 Eh     change       -0.6214002E-05 Eh
 * total energy  :  -225.8509381 Eh     change        0.4455238E-05 Eh
 * total energy  :  -225.8509473 Eh     change       -0.9188884E-05 Eh
 * total energy  :  -225.8509492 Eh     change       -0.1899313E-05 Eh
   *** GEOMETRY OPTIMIZATION CONVERGED AFTER 49 ITERATIONS ***

 final structure:
================
124
 xtb: 6.5.1 (b24c23e)
Cu          12.99895547177315       -0.02792428250093       -0.01225564686972
C            9.59402863122935       -0.07481178271223       -0.09478836025805
C           10.23303850902328       -1.30360719322296       -0.02404134293797
C            9.56157865162607       -2.56902195137450        0.05656222267683
C           10.52322607663881       -3.52162631025465        0.14111009872903
C           11.79207782555059       -2.84684310441917        0.10156079843589
N           11.58422686724310       -1.50086207596450        0.00699515116495
C           13.03826421140717       -3.47383602773948        0.17878477867794
C           13.05624054213584       -4.95554649263886        0.27392577804994
C           12.54989399497243       -5.74009812948016       -0.76231398865795
C           12.56801217283591       -7.12384936274767       -0.67695321509316
C           13.08990415547352       -7.73941812078450        0.45829090335646
O           13.12343843732145       -9.09140499079773        0.58487744585025
C           13.59540876936529       -6.96709197132418        1.50232832932550
C           13.58014369863187       -5.58695440982381        1.40437086256640
C           14.26832999838441       -2.81371977328259        0.17418639320870
C           15.54818253309373       -3.46341359843351        0.19746760445358
C           16.49110906303963       -2.48810811727814        0.15825841405376
N           14.45287428677849       -1.45737553614606        0.11139897000630
C           15.79554642498243       -1.23742970975817        0.10490157641007
C           16.42791615798001        0.01734521710141        0.04091702631418
C           15.76533675473130        1.25574154694281       -0.03055480665242
C           16.42952147787581        2.52115871476894       -0.11889681548902
C           15.46253018796427        3.47202151405887       -0.17438342809481
C           14.19914150309743        2.79302581700527       -0.11367415285630
N           14.41742569841978        1.44254874985758       -0.03545370546345
C           12.95241649846155        3.42043790912367       -0.15778446063640
C           12.93198151179622        4.90402448707066       -0.20461647479919
C           13.46917029960429        5.65377113947604        0.84463062958579
C           13.44517374826851        7.03683906639091        0.81292473577262
C           12.88506792080432        7.69332026326718       -0.28135798080140
O           12.87929962035802        9.05156131642624       -0.28157655437988
C           12.35011066196149        6.95932047116218       -1.33735469360706
C           12.37260492689784        5.57373655788410       -1.29311443125375
C           11.72182444954211        2.75815963602505       -0.15842717118468
C           10.43606822270953        3.40156773679174       -0.16404218675088
C            9.49877013210149        2.42136831472128       -0.15567689749374
C           10.20206059513737        1.17111866996123       -0.13213052411602
N           11.54791589966172        1.40431695051974       -0.13036226846665
H            8.50895586206960       -0.08886368327066       -0.10583842059790
H            8.49048616070199       -2.69708764378792        0.05670342317182
H           10.39169344695141       -4.58764533885532        0.23489457842963
H           12.15393929258938       -5.26224602826403       -1.65155988801207
H           12.17972133738135       -7.72921345412643       -1.48906702892568
H           12.74956690172609       -9.52693473611832       -0.19293727473715
H           13.99447659812959       -7.45905171193747        2.38072707187206
H           13.96377442109195       -4.98579059602869        2.22113481296406
H           15.70167522993555       -4.53005840205489        0.22530723356650
H           17.56390915245850       -2.59652757733100        0.15890801019920
H           17.49930620486019        2.65465904557093       -0.14129114006749
H           15.58976312384230        4.53873057054382       -0.26386621697010
H           13.89356284026714        5.14327287488840        1.70194340266402
H           13.85446382774298        7.62008049459243        1.62852722903748
H           12.46647108526133        9.40156043019658       -1.08242467013123
H           11.91945507334324        7.47455965109663       -2.18931528204417
H           11.96675014784610        5.00389706980926       -2.12164868670172
H           10.27678906603592        4.46789510384473       -0.16088416259857
H            8.42475756698666        2.52210970931730       -0.15553843325730
Cu          31.60195187060678        0.02310303000767       -0.01618781050948
C           35.00685068034493        0.05972304965048       -0.10421665171283
C           34.36707549449524        1.28563762722199       -0.20961175815872
C           35.03777821259440        2.55003916324242       -0.30990826769129
C           34.07554611952201        3.50432896622003       -0.36298335454604
C           32.80709116758337        2.82998711535602       -0.30680900184375
N           33.01574324877899        1.48443109415672       -0.20790564366185
C           31.56048025631214        3.46072303721798       -0.32151937411940
C           31.54151743029429        4.94073104870517       -0.43983337917299
C           32.04959981324872        5.56920102282837       -1.57673544007875
C           32.02994649011940        6.95086852683882       -1.69078184866409
C           31.50487932505230        7.72228742456528       -0.65675651384724
O           31.46973757329192        9.07838899383001       -0.72547541574510
C           30.99790069643390        7.10706805216657        0.48626626890370
C           31.01462483453608        5.72716411012813        0.58729366861669
C           30.33076497752966        2.80588452794995       -0.23246650766333
C           29.05052105605612        3.45131672617637       -0.30391912467346
C           28.10814045460933        2.47996291458505       -0.20265454606973
N           30.14700265588582        1.45453969445745       -0.09936501581076
C           28.80440275126370        1.23509628387699       -0.07481835181339
C           28.17301426085291       -0.01625392170962        0.04260970692820
C           28.83658416831861       -1.25153165269405        0.15039350847081
C           28.17307151008498       -2.51683918844148        0.24536624518197
C           29.14056902313901       -3.46530353373341        0.32683458859823
C           30.40357553150992       -2.78396294927381        0.28867193522554
N           30.18454801163999       -1.43636987566885        0.17206041829769
C           31.65062703536339       -3.41054394439688        0.33434690096412
C           31.67199830449117       -4.88547232712492        0.50101343491170
C           31.13683719369754       -5.47694020879682        1.64790613667802
C           31.16206261355736       -6.85018019531412        1.81533583935838
C           31.72129333140205       -7.65674788262015        0.82596943623141
O           31.72849232930543       -9.00089621075613        1.02111321919149
C           32.25398285581878       -7.08184235163611       -0.32545865047045
C           32.23036435616557       -5.70430211401310       -0.48080548095378
C           32.88078025449872       -2.75447277326939        0.23809347717367
C           34.16690447862049       -3.39136994469780        0.32420676288660
C           35.10362840964632       -2.41952761730350        0.19202914299757
C           34.39960454796889       -1.17916375717031        0.03666337964354
N           33.05387893663446       -1.41048086411459        0.07199701015260
H           36.09191773459993        0.07274963105351       -0.11698039637934
H           36.10880658230160        2.67747669808855       -0.32713646124369
H           34.20648343904021        4.57290338995921       -0.42214061609410
H           32.44770149306891        4.96929392071537       -2.38759712266340
H           32.41944401062613        7.43397200096852       -2.58053949659674
H           31.84357932407450        9.39831917595596       -1.55734937218103
H           30.59646735399500        7.71938584367221        1.28425806321563
H           30.62974757067629        5.24888489650170        1.48106412964991
H           28.89641263481192        4.51071484850708       -0.43036283159781
H           27.03527785624482        2.58663265819047       -0.21826267600622
H           27.10335261523067       -2.65268602603120        0.24283734520017
H           29.01395271492164       -4.53385835500595        0.39178592309572
H           30.71310911382064       -4.84874562294190        2.42349119375462
H           30.75446886107653       -7.31042311164842        2.70692857720298
H           32.14053505506875       -9.46209312065526        0.27828038168878
H           32.68380709838105       -7.71393544470811       -1.09518587728143
H           32.63454446038424       -5.25916296501139       -1.38324173621043
H           34.32674073102281       -4.44620056320315        0.47983171215131
H           36.17769605650749       -2.51865733526631        0.20635150193315
C           17.83339138289232        0.03035838333029        0.04279005171404
C           19.05796444019423        0.02911612360298        0.04451391861642
C           20.40086474132953        0.02234982227641        0.04411096425367
C           21.63145053417722        0.00792738640289        0.04469132386309
C           22.96951156416438       -0.00694936539842        0.04551420611469
C           24.20009822431566       -0.02135442112097        0.04716442983960
C           25.54299617492507       -0.02754821434224        0.04711208746050
C           26.76755704279154       -0.03038224646759        0.04640866278323

          :  Hamiltonian                  GFN1-xTB          :
         :: total energy            -225.850949209066 Eh    ::
         :: gradient norm              0.000376355953 Eh/a0 ::
         :: HOMO-LUMO gap              0.000028254236 eV    ::
         :: SCC energy              -229.350647448243 Eh    ::
         :: repulsion energy           3.608011270238 Eh    ::

    * Orbital Energies and Occupations

         #    Occupation            Energy/Eh            Energy/eV
      -------------------------------------------------------------
         1        2.0000           -0.8044099             -21.8891
       ...           ...                  ...                  ...
       194        2.0000           -0.4106692             -11.1749
       195        2.0000           -0.4075199             -11.0892
       196        2.0000           -0.4075176             -11.0891
       197        2.0000           -0.4072300             -11.0813
       198        2.0000           -0.4072192             -11.0810
       199        2.0000           -0.4072184             -11.0810
       200        2.0000           -0.4070107             -11.0753
       201        2.0000           -0.4040530             -10.9948
       202        2.0000           -0.3944336             -10.7331
       203        2.0000           -0.3944332             -10.7331
       204        2.0000           -0.3877745             -10.5519
       205        2.0000           -0.3789287             -10.3112
       206        1.0003           -0.3547702              -9.6538 (HOMO)
       207        0.9997           -0.3547692              -9.6538 (LUMO)
       208                         -0.3368845              -9.1671
       209                         -0.3268203              -8.8932
       210                         -0.3260506              -8.8723
       211                         -0.3260500              -8.8723
       212                         -0.2995355              -8.1508
       213                         -0.2967391              -8.0747
       214                         -0.2909537              -7.9173
       215                         -0.2715045              -7.3880
       216                         -0.2663698              -7.2483
       217                         -0.2663652              -7.2482
       ...                                ...                  ...
       430                          1.6088044              43.7778
      -------------------------------------------------------------
                  HL-Gap            0.0000010 Eh            0.0000 eV

Wiberg/Mayer (AO) data.
largest (>0.10) Wiberg bond orders for each atom

     #   Z sym  total        # sym  WBO       # sym  WBO       # sym  WBO
 ---------------------------------------------------------------------------
     1  29 Cu   2.186 --    39 N    0.505     7 N    0.505    19 N    0.503
                            26 N    0.503
     2   6 C    3.928 --     3 C    1.361    38 C    1.361    40 H    0.971
     3   6 C    3.918 --     2 C    1.361     7 N    1.229     4 C    1.171
     4   6 C    3.955 --     5 C    1.654     3 C    1.171    41 H    0.976
     5   6 C    3.958 --     4 C    1.654     6 C    1.173    42 H    0.973
     6   6 C    3.912 --     8 C    1.319     7 N    1.239     5 C    1.173
     7   7 N    3.244 --     6 C    1.239     3 C    1.229     1 Cu   0.505
     8   6 C    3.935 --    16 C    1.328     6 C    1.319     9 C    1.026
     9   6 C    3.989 --    10 C    1.395    15 C    1.385     8 C    1.026
    10   6 C    3.988 --    11 C    1.451     9 C    1.395    43 H    0.973
                            14 C    0.105
    11   6 C    3.988 --    10 C    1.451    12 C    1.372    44 H    0.970
                            15 C    0.103
    12   6 C    3.901 --    11 C    1.372    14 C    1.365    13 O    1.040
    13   8 O    2.043 --    12 C    1.040    45 H    0.865
    14   6 C    3.990 --    15 C    1.466    12 C    1.365    46 H    0.971
                            10 C    0.105
    15   6 C    3.988 --    14 C    1.466     9 C    1.385    47 H    0.973
                            11 C    0.103
    16   6 C    3.908 --     8 C    1.328    19 N    1.220    17 C    1.180
    17   6 C    3.954 --    18 C    1.642    16 C    1.180    48 H    0.973
    18   6 C    3.956 --    17 C    1.642    20 C    1.187    49 H    0.974
    19   7 N    3.248 --    20 C    1.258    16 C    1.220     1 Cu   0.503
    20   6 C    3.897 --    19 N    1.258    21 C    1.257    18 C    1.187
    21   6 C    3.939 --    22 C    1.258    20 C    1.257   117 C    1.190
    22   6 C    3.897 --    21 C    1.258    26 N    1.257    23 C    1.187
    23   6 C    3.956 --    24 C    1.642    22 C    1.187    50 H    0.974
    24   6 C    3.954 --    23 C    1.642    25 C    1.180    51 H    0.973
    25   6 C    3.908 --    27 C    1.327    26 N    1.221    24 C    1.180
    26   7 N    3.248 --    22 C    1.257    25 C    1.221     1 Cu   0.503
    27   6 C    3.935 --    25 C    1.327    35 C    1.318    28 C    1.028
    28   6 C    3.989 --    34 C    1.394    29 C    1.384    27 C    1.028
    29   6 C    3.988 --    30 C    1.466    28 C    1.384    52 H    0.973
                            33 C    0.102
    30   6 C    3.990 --    29 C    1.466    31 C    1.364    53 H    0.971
                            34 C    0.105
    31   6 C    3.901 --    33 C    1.372    30 C    1.364    32 O    1.040
    32   8 O    2.043 --    31 C    1.040    54 H    0.865
    33   6 C    3.988 --    34 C    1.452    31 C    1.372    55 H    0.970
                            29 C    0.102
    34   6 C    3.988 --    33 C    1.452    28 C    1.394    56 H    0.973
                            30 C    0.105
    35   6 C    3.912 --    27 C    1.318    39 N    1.239    36 C    1.173
    36   6 C    3.958 --    37 C    1.654    35 C    1.173    57 H    0.973
    37   6 C    3.955 --    36 C    1.654    38 C    1.172    58 H    0.976
    38   6 C    3.918 --     2 C    1.361    39 N    1.229    37 C    1.172
    39   7 N    3.244 --    35 C    1.239    38 C    1.229     1 Cu   0.505
    40   1 H    1.002 --     2 C    0.971
    41   1 H    0.998 --     4 C    0.976
    42   1 H    1.005 --     5 C    0.973
    43   1 H    1.005 --    10 C    0.973
    44   1 H    0.999 --    11 C    0.970
    45   1 H    0.887 --    13 O    0.865
    46   1 H    0.999 --    14 C    0.971
    47   1 H    1.005 --    15 C    0.973
    48   1 H    1.005 --    17 C    0.973
    49   1 H    1.002 --    18 C    0.974
    50   1 H    1.002 --    23 C    0.974
    51   1 H    1.005 --    24 C    0.973
    52   1 H    1.005 --    29 C    0.973
    53   1 H    0.999 --    30 C    0.971
    54   1 H    0.887 --    32 O    0.865
    55   1 H    0.999 --    33 C    0.970
    56   1 H    1.005 --    34 C    0.973
    57   1 H    1.005 --    36 C    0.973
    58   1 H    0.998 --    37 C    0.976
    59  29 Cu   2.186 --    97 N    0.505    65 N    0.505    77 N    0.503
                            84 N    0.503
    60   6 C    3.928 --    61 C    1.361    96 C    1.361    98 H    0.971
    61   6 C    3.918 --    60 C    1.361    65 N    1.229    62 C    1.171
    62   6 C    3.955 --    63 C    1.654    61 C    1.171    99 H    0.976
    63   6 C    3.958 --    62 C    1.654    64 C    1.173   100 H    0.973
    64   6 C    3.912 --    66 C    1.319    65 N    1.239    63 C    1.173
    65   7 N    3.244 --    64 C    1.239    61 C    1.229    59 Cu   0.505
    66   6 C    3.935 --    74 C    1.328    64 C    1.319    67 C    1.026
    67   6 C    3.989 --    68 C    1.395    73 C    1.385    66 C    1.026
    68   6 C    3.988 --    69 C    1.451    67 C    1.395   101 H    0.973
                            72 C    0.105
    69   6 C    3.988 --    68 C    1.451    70 C    1.372   102 H    0.970
                            73 C    0.103
    70   6 C    3.901 --    69 C    1.372    72 C    1.365    71 O    1.040
    71   8 O    2.043 --    70 C    1.040   103 H    0.865
    72   6 C    3.990 --    73 C    1.466    70 C    1.365   104 H    0.971
                            68 C    0.105
    73   6 C    3.988 --    72 C    1.466    67 C    1.385   105 H    0.973
                            69 C    0.103
    74   6 C    3.908 --    66 C    1.328    77 N    1.220    75 C    1.180
    75   6 C    3.954 --    76 C    1.642    74 C    1.180   106 H    0.973
    76   6 C    3.956 --    75 C    1.642    78 C    1.187   107 H    0.974
    77   7 N    3.248 --    78 C    1.258    74 C    1.220    59 Cu   0.503
    78   6 C    3.897 --    77 N    1.258    79 C    1.257    76 C    1.187
    79   6 C    3.939 --    80 C    1.258    78 C    1.257   124 C    1.190
    80   6 C    3.897 --    79 C    1.258    84 N    1.257    81 C    1.187
    81   6 C    3.956 --    82 C    1.642    80 C    1.187   108 H    0.974
    82   6 C    3.954 --    81 C    1.642    83 C    1.180   109 H    0.973
    83   6 C    3.908 --    85 C    1.327    84 N    1.221    82 C    1.180
    84   7 N    3.248 --    80 C    1.257    83 C    1.221    59 Cu   0.503
    85   6 C    3.935 --    83 C    1.327    93 C    1.318    86 C    1.028
    86   6 C    3.989 --    92 C    1.394    87 C    1.384    85 C    1.028
    87   6 C    3.988 --    88 C    1.466    86 C    1.384   110 H    0.973
                            91 C    0.102
    88   6 C    3.990 --    87 C    1.466    89 C    1.364   111 H    0.971
                            92 C    0.105
    89   6 C    3.901 --    91 C    1.372    88 C    1.364    90 O    1.040
    90   8 O    2.043 --    89 C    1.040   112 H    0.865
    91   6 C    3.988 --    92 C    1.452    89 C    1.372   113 H    0.970
                            87 C    0.102
    92   6 C    3.988 --    91 C    1.452    86 C    1.394   114 H    0.973
                            88 C    0.105
    93   6 C    3.912 --    85 C    1.318    97 N    1.239    94 C    1.173
    94   6 C    3.958 --    95 C    1.654    93 C    1.173   115 H    0.973
    95   6 C    3.955 --    94 C    1.654    96 C    1.172   116 H    0.976
    96   6 C    3.918 --    60 C    1.361    97 N    1.229    95 C    1.172
    97   7 N    3.244 --    93 C    1.239    96 C    1.229    59 Cu   0.505
    98   1 H    1.002 --    60 C    0.971
    99   1 H    0.998 --    62 C    0.976
   100   1 H    1.005 --    63 C    0.973
   101   1 H    1.005 --    68 C    0.973
   102   1 H    0.999 --    69 C    0.970
   103   1 H    0.887 --    71 O    0.865
   104   1 H    0.999 --    72 C    0.971
   105   1 H    1.005 --    73 C    0.973
   106   1 H    1.005 --    75 C    0.973
   107   1 H    1.002 --    76 C    0.974
   108   1 H    1.002 --    81 C    0.974
   109   1 H    1.005 --    82 C    0.973
   110   1 H    1.005 --    87 C    0.973
   111   1 H    0.999 --    88 C    0.971
   112   1 H    0.887 --    90 O    0.865
   113   1 H    0.999 --    91 C    0.970
   114   1 H    1.005 --    92 C    0.973
   115   1 H    1.005 --    94 C    0.973
   116   1 H    0.998 --    95 C    0.976
   117   6 C    3.878 --   118 C    2.441    21 C    1.190   120 C    0.187
   118   6 C    3.936 --   117 C    2.441   119 C    1.343
   119   6 C    3.894 --   120 C    2.338   118 C    1.343   122 C    0.183
   120   6 C    3.926 --   119 C    2.338   121 C    1.368   117 C    0.187
   121   6 C    3.926 --   122 C    2.338   120 C    1.368   124 C    0.187
   122   6 C    3.894 --   121 C    2.338   123 C    1.343   119 C    0.183
   123   6 C    3.936 --   124 C    2.441   122 C    1.343
   124   6 C    3.878 --   123 C    2.441    79 C    1.190   121 C    0.187
 ---------------------------------------------------------------------------

           -------------------------------------------------
          | TOTAL ENERGY             -225.850949209066 Eh   |
          | GRADIENT NORM               0.000376355953 Eh/α |
          | HOMO-LUMO GAP               0.000028254236 eV   |
           -------------------------------------------------

 * finished run on 2022/07/30 at 09:12:49.558
