   * xtb version 6.5.1 (b24c23e) compiled by 'conda@728c89f4b128' on 2022-07-12
          program call               : xtb Cu_NMA_C2_3.xyz --gfn 1 --opt -T 48

   ID    Z sym.   atoms
    1   29 Cu     1, 67, 137
    2    6 C      2-6, 8-12, 14-19, 21-26, 28-32, 34-40, 68-72, 74-78, 80-85,
                  87-92, 94-98, 100-106, 133-136, 138-142, 144-148, 150-155,
                  157-162, 164-168, 170-176
    3    7 N      7, 13, 20, 27, 33, 41, 73, 79, 86, 93, 99, 107, 143, 149,
                  156, 163, 169, 177
    4    1 H      42-66, 108-132, 178-201
########################################################################
[WARNING] Please study the warnings concerning your input carefully
-1- prog_main_parseArguments: Unknown option '-T' provided
########################################################################

          :  Hamiltonian                  GFN1-xTB          :
 * total energy  :  -310.7446506 Eh     change       -0.4707260E-08 Eh
 * total energy  :  -328.3240116 Eh     change       -0.1757936E+02 Eh
 * total energy  :  -330.5789815 Eh     change       -0.2254970E+01 Eh
 * total energy  :  -332.0921955 Eh     change       -0.1513214E+01 Eh
 * total energy  :  -332.8885337 Eh     change       -0.7963382E+00 Eh
 * total energy  :  -333.3605850 Eh     change       -0.4720513E+00 Eh
 * total energy  :  -333.6635111 Eh     change       -0.3029260E+00 Eh
 * total energy  :  -333.8837586 Eh     change       -0.2202476E+00 Eh
 * total energy  :  -334.0645165 Eh     change       -0.1807579E+00 Eh
 * total energy  :  -334.2185080 Eh     change       -0.1539915E+00 Eh
 * total energy  :  -334.9408887 Eh     change       -0.1800867E-04 Eh
 * total energy  :  -334.9409120 Eh     change       -0.2331752E-04 Eh
 * total energy  :  -334.9409217 Eh     change       -0.9681398E-05 Eh
 * total energy  :  -334.9409370 Eh     change       -0.1525316E-04 Eh
 * total energy  :  -334.9409481 Eh     change       -0.1112503E-04 Eh
 * total energy  :  -334.9409551 Eh     change       -0.7019447E-05 Eh
 * total energy  :  -334.9409620 Eh     change       -0.6880166E-05 Eh
 * total energy  :  -334.9409707 Eh     change       -0.8690658E-05 Eh
 * total energy  :  -334.9409748 Eh     change       -0.4073435E-05 Eh
   *** GEOMETRY OPTIMIZATION CONVERGED AFTER 92 ITERATIONS ***

 final structure:
================
201
 xtb: 6.5.1 (b24c23e)
Cu          38.59902502392259        0.06351722406948       -0.04638272032649
C           35.19057427661617        0.13262963875974       -0.07674838252850
C           35.82545114881513        1.03859194290864        0.75997606082524
C           35.15047142428856        1.94986144777487        1.63861219416267
C           36.11003805645633        2.64768369308200        2.29626615520207
C           37.38030837519236        2.17778504910322        1.81444047727723
N           37.17603062247713        1.19912646225294        0.88544411866091
C           38.62569314232803        2.63302331155998        2.25736011857835
C           38.63832153550440        3.74030285947142        3.24338225560838
C           38.07781549138710        4.98085510292210        2.92708918324515
C           38.10074091013330        6.02017951296482        3.83791617060527
C           38.68083930859402        5.84686503504220        5.10031347268116
N           38.63137764458259        6.90210606377717        6.00087459245294
C           39.60964572944319        6.97231586424418        7.07826925864427
C           39.22588556526807        4.60257037955228        5.42889680923703
C           39.20919165250769        3.57056441870122        4.50571196145053
C           39.85852818499932        2.12608875646816        1.83916039108193
C           41.13454046953181        2.63193169455937        2.25717659977294
C           42.08152334309421        1.89644729618070        1.62156499684889
N           40.05118198012286        1.09967514163925        0.95163220552587
C           41.39545526079995        0.94637009005870        0.79997407278089
C           42.03541296612752        0.00938320039536       -0.03283742730517
C           41.37348116054567       -0.91608042663067       -0.86130034811967
C           42.03554130555206       -1.90239805072438       -1.65950270151852
C           41.07058479449725       -2.61757199443124       -2.29155110866707
C           39.80814631550156       -2.06075556201415       -1.89758476091456
N           40.02634080876530       -1.02757460805381       -1.02371327046708
C           38.56283893797857       -2.52626543203271       -2.32702625114066
C           38.54360986066590       -3.65091892590891       -3.29273945349852
C           39.14475981473048       -3.53422224356019       -4.54690984104991
C           39.12850526115542       -4.58457246227463       -5.44935703116411
C           38.51786569706884       -5.79422280946383       -5.10742487561369
N           38.43513526859531       -6.86464141211718       -5.98783291706403
C           39.43860264490714       -7.00983327696845       -7.03438029306719
C           37.90560063281637       -5.91353327005067       -3.85398685172121
C           37.91688766363405       -4.85633934469730       -2.96401157573677
C           37.32948015520291       -2.01407341069263       -1.91275977876792
C           36.05023893429927       -2.43368942220615       -2.41701736189676
C           35.10819018231080       -1.68973419117271       -1.78515389451570
C           35.80334507134943       -0.80159184781562       -0.89869109151435
N           37.14827388908263       -1.01967872429744       -0.99600913739688
H           34.10555370884121        0.15550164103611       -0.08768338598782
H           34.07913895648193        2.02548389366117        1.74039705103011
H           35.97582358561987        3.40404317945501        3.05286331838936
H           37.64123175933951        5.13531540372418        1.94632522888459
H           37.66995586338810        6.98094569361306        3.57602572750523
H           38.50034599992559        7.79668347684711        5.54369851744189
H           40.63430015703386        6.88396172965713        6.69917239132877
H           39.42546683581701        6.17822006638863        7.80295412129831
H           39.49180034362534        7.93403314151581        7.57770785100753
H           39.66251376942198        4.43176919097185        6.40533147308922
H           39.62798097341185        2.60714338538953        4.77586732577953
H           41.28538126151266        3.45452693045338        2.93729636680545
H           43.15225664768446        1.98663341626478        1.69826489236180
H           43.10341040537264       -2.03202564038020       -1.72024871798001
H           41.20051509192248       -3.45799887579820       -2.95404182712711
H           39.61356572729755       -2.59739681788336       -4.82817421472389
H           39.59015852510105       -4.45471372720850       -6.42056772621978
H           38.24734503866974       -7.74073286199946       -5.51475701386110
H           39.31645483834139       -6.22450773860684       -7.78134232931410
H           39.28548250456777       -7.97570541542979       -7.51586073909638
H           40.45516380570304       -6.96499140773598       -6.62688700691213
H           37.42273784687417       -6.84655107039085       -3.58273083279552
H           37.45483279875225       -4.96933284082355       -1.98927883962796
H           35.89904999316513       -3.18946529856806       -3.17096851361836
H           34.03694243065303       -1.72082722578453       -1.90875720766851
Cu          60.42709121419926        0.02873294058004       -0.00552252013682
C           63.83622783910529        0.07399618684464       -0.04329237101070
C           63.21765674996374       -0.94620970078506       -0.75077531648972
C           63.90915395412419       -1.99636428701216       -1.44154130188668
C           62.96228914598415       -2.79792658991278       -1.99026451382499
C           61.68333980008300       -2.23646511053624       -1.64980890027798
N           61.86997715091935       -1.11537502580544       -0.89453316982037
C           60.44647835567672       -2.77885725763511       -2.01113266875995
C           60.45596062750898       -3.97879244970592       -2.88216812315867
C           61.02894638988985       -3.92670596755745       -4.15584584082066
C           61.03021105407014       -5.03848490045294       -4.97694742014345
C           60.46281907742745       -6.24287621196191       -4.54378569084034
N           60.53784968508400       -7.34756091868491       -5.38115462981154
C           59.57439520118585       -8.42969652598634       -5.22939643558001
C           59.90458321770174       -6.30573161968004       -3.26405606260661
C           59.89687993975487       -5.18338862088717       -2.45283900380443
C           59.20451691769571       -2.27434290583885       -1.61768726080775
C           57.93765850583930       -2.80583444572550       -2.03174354000823
C           56.97743337933525       -2.03652612912567       -1.45907233111748
N           58.99308473000458       -1.18796664311300       -0.80938361960615
C           57.64601240544331       -1.02133727411886       -0.70362194518483
C           56.98915107908322       -0.01052217317132        0.02323750339754
C           57.63548301676578        1.00979811455597        0.74647677265248
C           56.95723087831357        2.00015569046160        1.52562278657964
C           57.90924419695819        2.78646650704233        2.08883719071523
C           59.18039414779604        2.29232222944391        1.64300082777105
N           58.97998571551018        1.20794575815983        0.82902749733323
C           60.41692693466868        2.82830794476747        2.01179926566223
C           60.41351731704655        4.02155248368573        2.89154674720067
C           59.79990214920859        5.20956317878359        2.49135889207757
C           59.79085892545967        6.32351754628305        3.31412589134936
C           60.38818280798775        6.26841327070417        4.57629861081479
N           60.44397980849423        7.36583831575261        5.42519465792106
C           59.42506523404982        8.40239475097617        5.32212564038663
C           61.01414896927995        5.08241521662455        4.97844179780776
C           61.02781473980759        3.97905482407160        4.14638477831897
C           61.65948608980763        2.32222246856745        1.61836287097497
C           62.93025170604545        2.91811086783703        1.92980666908770
C           63.88552093106078        2.14411065171545        1.35660361446293
C           63.20696130730654        1.07668960914539        0.67966214483050
N           61.85892652317296        1.20876180421706        0.85519518970996
H           64.92136987682194        0.08873103366660       -0.05608242297232
H           64.98193697608072       -2.10294008555710       -1.48163845579359
H           63.11027416361881       -3.69971218562061       -2.56245052877943
H           61.45675301750318       -2.99554484251124       -4.51122191937994
H           61.47084722587299       -4.98172169433632       -5.96682881491732
H           60.67619571916422       -7.09070511265781       -6.35133960701638
H           58.54391877883505       -8.05615485865710       -5.23473145283795
H           59.75709252644550       -8.96493014986235       -4.29677996246200
H           59.71129443459809       -9.12139346057955       -6.06068163969262
H           59.47712002490002       -7.22932166789734       -2.89323586055871
H           59.46849644016152       -5.24760328461439       -1.45840686368571
H           57.80158563057237       -3.64947226143650       -2.68885627760197
H           55.90842445393137       -2.14175999796838       -1.54021755207727
H           55.88796316258945        2.07681889908570        1.63096180528603
H           57.76468989106960        3.61781359772696        2.75966508884108
H           59.34068940796762        5.26812833417899        1.51042147794009
H           59.31945673625674        7.23448094211196        2.96600038887015
H           60.62415905338499        7.10186013614210        6.38665679829581
H           59.55021778296749        8.95886852016735        4.39246836087426
H           59.55647728526385        9.08808883201398        6.15922167352954
H           58.41456805868513        7.97895527344796        5.35564632588216
H           61.48730776109836        5.03304302728147        5.95360602199511
H           61.49940163582254        3.06075447461358        4.47909125072476
H           63.06727564391507        3.82265870179300        2.50036837656831
H           64.95559131318292        2.28017151131414        1.37222812644376
C           43.44512703525314       -0.00270660957851       -0.03488066216997
C           44.66335246097498       -0.00527858439583       -0.03758229994757
C           54.36080965911427       -0.02365170684276        0.02299130438584
C           55.57922910666709       -0.01953129101471        0.02567792834065
Cu          49.51151854395390       -0.01302112760996       -0.01339022024712
C           46.07170119102322       -0.00640027906090       -0.03489035172291
C           46.73269833506799       -1.08426860097370       -0.65378966265216
C           46.08501382588059       -2.24588452524066       -1.17869213431923
C           47.04571270657443       -3.00727517161413       -1.76439005774010
C           48.28837222545189       -2.31093779895580       -1.60309072035753
N           48.07035937623502       -1.15571926945470       -0.90061313959389
C           49.51979383957057       -2.73211001551369       -2.11517245878084
C           49.52170957969155       -3.89892167598134       -3.02317101684161
C           50.33026693101107       -5.00967472775766       -2.76219932715525
C           50.32859553535928       -6.10136782498068       -3.60893237994873
C           49.52632100747031       -6.11106849199565       -4.75631632477765
N           49.52307136836232       -7.24847765028509       -5.55034301198388
C           49.11934122950840       -7.15157548298515       -6.94667957962213
C           48.71223629584848       -5.00593296341841       -5.02080922572410
C           48.71312175407837       -3.92063234293962       -4.16197499880605
C           50.74841963741422       -2.12742999306843       -1.83074028847177
C           51.99384954080622       -2.45284224171674       -2.46127082689476
C           52.95002477049712       -1.69178478421735       -1.86766736420273
N           50.96044896570617       -1.15761020466370       -0.88713511290720
C           52.29707495124185       -0.89571123004927       -0.87581763022571
C           52.95232894850425       -0.02300182692336        0.01410832298630
C           52.28760947981879        0.85433647851720        0.89246722512166
C           52.92941073226361        1.65162085459128        1.89059589676089
C           51.96892434510177        2.42348819790274        2.46302140072393
C           50.73199192146631        2.10235579799204        1.81405577805285
N           50.95269068624032        1.12478181307820        0.88055741968924
C           49.50343105222971        2.71849770115875        2.07320804451545
C           49.50225607738764        3.89678238592718        2.96637805460208
C           48.68049313655812        3.94102604025728        4.09510898847710
C           48.67999945078689        5.03782494037063        4.93949848789417
C           49.50787937357579        6.13146071559806        4.67000790022308
N           49.50796791512759        7.27857853930895        5.44995801738020
C           49.09434261494446        7.20211964197000        6.84455394475003
C           50.32274511084549        6.09966186602922        3.53145466806761
C           50.32375903374606        4.99691193021134        2.69939120875163
C           48.27735038560798        2.30004513320366        1.54695439778262
C           47.03630325893830        3.00412113503640        1.68444995706975
C           46.08007297598509        2.24211933822974        1.09221643423428
C           46.72910513003406        1.07268739964998        0.58671800292871
N           48.06335576924832        1.13986574540543        0.85106858539426
H           45.03228227968017       -2.45805548013312       -1.09007882148151
H           46.92808423707913       -3.96760476726769       -2.23989125138673
H           50.94916347338417       -5.02228986401245       -1.87156868914946
H           50.95223849694905       -6.96137726024247       -3.38716225728003
H           50.35565822285511       -7.81227791425759       -5.42861482923259
H           48.05119128295692       -6.93990328961667       -7.01310836872914
H           49.67582071573749       -6.36802114499150       -7.47415857121397
H           49.31413160158775       -8.11352793089086       -7.42086065784753
H           48.07522897604562       -4.98661803912781       -5.89651272006912
H           48.09298138011453       -3.06096538323848       -4.39039568534309
H           52.11625645717760       -3.15284511031393       -3.27198364336515
H           54.00264668426108       -1.65394921535103       -2.09399629387518
H           53.97777534198725        1.60837337219416        2.13512266309847
H           52.08324421154875        3.12828983595176        3.27079397387398
H           48.04885345937331        3.09043215567635        4.32747585841931
H           48.03287747708498        5.03638577702885        5.80805326339902
H           50.34596429725356        7.83410468415417        5.32677636955406
H           49.63685308413073        6.41692707246805        7.38346985150805
H           49.29953589994518        8.16620603549963        7.30999129669434
H           48.02326325222894        7.00563786498627        6.90683833397215
H           50.95589549242063        6.95119182260913        3.30524531557231
H           50.95192887056031        4.99188406535740        1.81530884058212
H           46.91708373738899        3.96939144899746        2.14942588474074
H           45.03046062259956        2.46043276307104        0.98463600574418

          :  Hamiltonian                  GFN1-xTB          :
         :: total energy            -334.940974751511 Eh    ::
         :: gradient norm              0.000827410568 Eh/a0 ::
         :: HOMO-LUMO gap              0.010552822386 eV    ::
         :: SCC energy              -339.995300321170 Eh    ::
         :: repulsion energy           5.233015812900 Eh    ::

    * Orbital Energies and Occupations

         #    Occupation            Energy/Eh            Energy/eV
      -------------------------------------------------------------
         1        2.0000           -0.7784223             -21.1819
       ...           ...                  ...                  ...
       299        2.0000           -0.3921192             -10.6701
       300        2.0000           -0.3915997             -10.6560
       301        2.0000           -0.3907260             -10.6322
       302        2.0000           -0.3891497             -10.5893
       303        2.0000           -0.3887468             -10.5783
       304        2.0000           -0.3856551             -10.4942
       305        2.0000           -0.3848410             -10.4721
       306        2.0000           -0.3847408             -10.4693
       307        2.0000           -0.3811095             -10.3705
       308        2.0000           -0.3742413             -10.1836
       309        2.0000           -0.3657662              -9.9530
       310        1.1070           -0.3451995              -9.3934
       311        1.0365           -0.3450477              -9.3892 (HOMO)
       312        0.8565           -0.3446598              -9.3787 (LUMO)
       313        0.0000           -0.3318712              -9.0307
       314                         -0.3195935              -8.6966
       315                         -0.3176446              -8.6435
       316                         -0.3162859              -8.6066
       317                         -0.3161597              -8.6031
       318                         -0.3084312              -8.3928
       319                         -0.2890690              -7.8660
       320                         -0.2798911              -7.6162
       321                         -0.2758581              -7.5065
       322                         -0.2549734              -6.9382
       ...                                ...                  ...
       671                          1.3447282              36.5919
      -------------------------------------------------------------
                  HL-Gap            0.0003878 Eh            0.0106 eV

Wiberg/Mayer (AO) data.
largest (>0.10) Wiberg bond orders for each atom

     #   Z sym  total        # sym  WBO       # sym  WBO       # sym  WBO
 ---------------------------------------------------------------------------
     1  29 Cu   2.176 --    41 N    0.502     7 N    0.502    20 N    0.501
                            27 N    0.500
     2   6 C    3.925 --    40 C    1.360     3 C    1.360    42 H    0.971
     3   6 C    3.919 --     2 C    1.360     7 N    1.230     4 C    1.173
     4   6 C    3.954 --     5 C    1.652     3 C    1.173    43 H    0.976
     5   6 C    3.958 --     4 C    1.652     6 C    1.175    44 H    0.973
     6   6 C    3.912 --     8 C    1.315     7 N    1.241     5 C    1.175
     7   7 N    3.241 --     6 C    1.241     3 C    1.230     1 Cu   0.502
     8   6 C    3.933 --    17 C    1.325     6 C    1.315     9 C    1.032
     9   6 C    3.988 --    16 C    1.386    10 C    1.375     8 C    1.032
    10   6 C    3.988 --    11 C    1.475     9 C    1.375    45 H    0.973
    11   6 C    3.989 --    10 C    1.475    12 C    1.347    46 H    0.971
                            16 C    0.100
    12   6 C    3.952 --    15 C    1.355    11 C    1.347    13 N    1.106
    13   7 N    3.176 --    12 C    1.106    14 C    0.972    47 H    0.932
    14   6 C    3.968 --    50 H    0.990    49 H    0.986    48 H    0.984
                            13 N    0.972
    15   6 C    3.990 --    16 C    1.463    12 C    1.355    51 H    0.970
    16   6 C    3.988 --    15 C    1.463     9 C    1.386    52 H    0.973
                            11 C    0.100
    17   6 C    3.907 --     8 C    1.325    20 N    1.222    18 C    1.182
    18   6 C    3.954 --    19 C    1.639    17 C    1.182    53 H    0.973
    19   6 C    3.956 --    18 C    1.639    21 C    1.189    54 H    0.967
    20   7 N    3.245 --    21 C    1.258    17 C    1.222     1 Cu   0.501
    21   6 C    3.902 --    22 C    1.259    20 N    1.258    19 C    1.189
    22   6 C    3.935 --    21 C    1.259    23 C    1.259   133 C    1.183
    23   6 C    3.902 --    22 C    1.259    27 N    1.258    24 C    1.189
    24   6 C    3.956 --    25 C    1.638    23 C    1.189    55 H    0.968
    25   6 C    3.954 --    24 C    1.638    26 C    1.182    56 H    0.973
    26   6 C    3.907 --    28 C    1.325    27 N    1.222    25 C    1.182
    27   7 N    3.245 --    23 C    1.258    26 C    1.222     1 Cu   0.500
    28   6 C    3.933 --    26 C    1.325    37 C    1.314    29 C    1.033
    29   6 C    3.988 --    30 C    1.386    36 C    1.374    28 C    1.033
    30   6 C    3.988 --    31 C    1.463    29 C    1.386    57 H    0.973
                            35 C    0.100
    31   6 C    3.990 --    30 C    1.463    32 C    1.356    58 H    0.970
    32   6 C    3.952 --    31 C    1.356    35 C    1.346    33 N    1.106
    33   7 N    3.176 --    32 C    1.106    34 C    0.972    59 H    0.932
    34   6 C    3.968 --    61 H    0.990    60 H    0.986    62 H    0.984
                            33 N    0.972
    35   6 C    3.989 --    36 C    1.476    32 C    1.346    63 H    0.971
                            30 C    0.100
    36   6 C    3.988 --    35 C    1.476    29 C    1.374    64 H    0.973
    37   6 C    3.911 --    28 C    1.314    41 N    1.242    38 C    1.175
    38   6 C    3.958 --    39 C    1.652    37 C    1.175    65 H    0.973
    39   6 C    3.954 --    38 C    1.652    40 C    1.173    66 H    0.976
    40   6 C    3.919 --     2 C    1.360    41 N    1.229    39 C    1.173
    41   7 N    3.241 --    37 C    1.242    40 C    1.229     1 Cu   0.502
    42   1 H    1.002 --     2 C    0.971
    43   1 H    0.998 --     4 C    0.976
    44   1 H    1.005 --     5 C    0.973
    45   1 H    1.005 --    10 C    0.973
    46   1 H    0.999 --    11 C    0.971
    47   1 H    0.966 --    13 N    0.932
    48   1 H    1.004 --    14 C    0.984
    49   1 H    1.012 --    14 C    0.986
    50   1 H    1.007 --    14 C    0.990
    51   1 H    1.001 --    15 C    0.970
    52   1 H    1.005 --    16 C    0.973
    53   1 H    1.006 --    18 C    0.973
    54   1 H    1.007 --    19 C    0.967
    55   1 H    1.007 --    24 C    0.968
    56   1 H    1.006 --    25 C    0.973
    57   1 H    1.005 --    30 C    0.973
    58   1 H    1.001 --    31 C    0.970
    59   1 H    0.966 --    33 N    0.932
    60   1 H    1.012 --    34 C    0.986
    61   1 H    1.007 --    34 C    0.990
    62   1 H    1.004 --    34 C    0.984
    63   1 H    0.999 --    35 C    0.971
    64   1 H    1.005 --    36 C    0.973
    65   1 H    1.005 --    38 C    0.973
    66   1 H    0.998 --    39 C    0.976
    67  29 Cu   2.172 --    73 N    0.502   107 N    0.501    93 N    0.500
                            86 N    0.499
    68   6 C    3.925 --    69 C    1.360   106 C    1.360   108 H    0.972
    69   6 C    3.919 --    68 C    1.360    73 N    1.230    70 C    1.172
    70   6 C    3.954 --    71 C    1.652    69 C    1.172   109 H    0.976
    71   6 C    3.958 --    70 C    1.652    72 C    1.174   110 H    0.973
    72   6 C    3.912 --    74 C    1.315    73 N    1.242    71 C    1.174
    73   7 N    3.241 --    72 C    1.242    69 C    1.230    67 Cu   0.502
    74   6 C    3.933 --    83 C    1.325    72 C    1.315    75 C    1.032
    75   6 C    3.988 --    82 C    1.386    76 C    1.375    74 C    1.032
    76   6 C    3.988 --    77 C    1.475    75 C    1.375   111 H    0.973
    77   6 C    3.989 --    76 C    1.475    78 C    1.347   112 H    0.971
                            82 C    0.100
    78   6 C    3.952 --    81 C    1.355    77 C    1.347    79 N    1.106
    79   7 N    3.176 --    78 C    1.106    80 C    0.972   113 H    0.932
    80   6 C    3.968 --   116 H    0.990   115 H    0.986   114 H    0.984
                            79 N    0.972
    81   6 C    3.990 --    82 C    1.463    78 C    1.355   117 H    0.970
    82   6 C    3.988 --    81 C    1.463    75 C    1.386   118 H    0.973
                            77 C    0.100
    83   6 C    3.908 --    74 C    1.325    86 N    1.222    84 C    1.182
    84   6 C    3.954 --    85 C    1.639    83 C    1.182   119 H    0.973
    85   6 C    3.956 --    84 C    1.639    87 C    1.189   120 H    0.967
    86   7 N    3.244 --    87 C    1.258    83 C    1.222    67 Cu   0.499
    87   6 C    3.902 --    88 C    1.259    86 N    1.258    85 C    1.189
    88   6 C    3.935 --    87 C    1.259    89 C    1.259   136 C    1.183
    89   6 C    3.902 --    88 C    1.259    93 N    1.258    90 C    1.189
    90   6 C    3.956 --    91 C    1.638    89 C    1.189   121 H    0.967
    91   6 C    3.954 --    90 C    1.638    92 C    1.182   122 H    0.973
    92   6 C    3.908 --    94 C    1.325    93 N    1.222    91 C    1.182
    93   7 N    3.245 --    89 C    1.258    92 C    1.222    67 Cu   0.500
    94   6 C    3.933 --    92 C    1.325   103 C    1.314    95 C    1.033
    95   6 C    3.988 --    96 C    1.386   102 C    1.375    94 C    1.033
    96   6 C    3.988 --    97 C    1.463    95 C    1.386   123 H    0.973
                           101 C    0.100
    97   6 C    3.990 --    96 C    1.463    98 C    1.356   124 H    0.970
    98   6 C    3.952 --    97 C    1.356   101 C    1.347    99 N    1.105
    99   7 N    3.175 --    98 C    1.105   100 C    0.972   125 H    0.932
   100   6 C    3.968 --   127 H    0.990   126 H    0.986   128 H    0.984
                            99 N    0.972
   101   6 C    3.989 --   102 C    1.475    98 C    1.347   129 H    0.971
                            96 C    0.100
   102   6 C    3.988 --   101 C    1.475    95 C    1.375   130 H    0.973
   103   6 C    3.912 --    94 C    1.314   107 N    1.242   104 C    1.174
   104   6 C    3.958 --   105 C    1.652   103 C    1.174   131 H    0.973
   105   6 C    3.954 --   104 C    1.652   106 C    1.173   132 H    0.976
   106   6 C    3.919 --    68 C    1.360   107 N    1.230   105 C    1.173
   107   7 N    3.241 --   103 C    1.242   106 C    1.230    67 Cu   0.501
   108   1 H    1.002 --    68 C    0.972
   109   1 H    0.998 --    70 C    0.976
   110   1 H    1.005 --    71 C    0.973
   111   1 H    1.005 --    76 C    0.973
   112   1 H    0.999 --    77 C    0.971
   113   1 H    0.966 --    79 N    0.932
   114   1 H    1.004 --    80 C    0.984
   115   1 H    1.012 --    80 C    0.986
   116   1 H    1.007 --    80 C    0.990
   117   1 H    1.001 --    81 C    0.970
   118   1 H    1.005 --    82 C    0.973
   119   1 H    1.006 --    84 C    0.973
   120   1 H    1.007 --    85 C    0.967
   121   1 H    1.007 --    90 C    0.967
   122   1 H    1.006 --    91 C    0.973
   123   1 H    1.005 --    96 C    0.973
   124   1 H    1.001 --    97 C    0.970
   125   1 H    0.967 --    99 N    0.932
   126   1 H    1.012 --   100 C    0.986
   127   1 H    1.007 --   100 C    0.990
   128   1 H    1.004 --   100 C    0.984
   129   1 H    0.999 --   101 C    0.971
   130   1 H    1.005 --   102 C    0.973
   131   1 H    1.005 --   104 C    0.973
   132   1 H    0.998 --   105 C    0.976
   133   6 C    3.930 --   134 C    2.570    22 C    1.183
   134   6 C    3.935 --   133 C    2.570   138 C    1.186
   135   6 C    3.935 --   136 C    2.570   158 C    1.187
   136   6 C    3.930 --   135 C    2.570    88 C    1.183
   137  29 Cu   2.186 --   143 N    0.499   163 N    0.499   177 N    0.499
                           156 N    0.499
   138   6 C    3.921 --   139 C    1.256   176 C    1.254   134 C    1.186
   139   6 C    3.904 --   138 C    1.256   143 N    1.256   140 C    1.195
   140   6 C    3.953 --   141 C    1.631   139 C    1.195   178 H    0.968
   141   6 C    3.955 --   140 C    1.631   142 C    1.187   179 H    0.973
   142   6 C    3.907 --   144 C    1.314   143 N    1.224   141 C    1.187
   143   7 N    3.235 --   139 C    1.256   142 C    1.224   137 Cu   0.499
   144   6 C    3.926 --   142 C    1.314   153 C    1.314   145 C    1.045
   145   6 C    3.988 --   152 C    1.379   146 C    1.369   144 C    1.045
   146   6 C    3.985 --   147 C    1.479   145 C    1.369   180 H    0.972
   147   6 C    3.989 --   146 C    1.479   148 C    1.344   181 H    0.971
   148   6 C    3.950 --   151 C    1.352   147 C    1.344   149 N    1.109
   149   7 N    3.178 --   148 C    1.109   150 C    0.972   182 H    0.931
   150   6 C    3.968 --   185 H    0.990   183 H    0.986   184 H    0.984
                           149 N    0.972
   151   6 C    3.989 --   152 C    1.467   148 C    1.352   186 H    0.970
   152   6 C    3.984 --   151 C    1.467   145 C    1.379   187 H    0.972
   153   6 C    3.907 --   144 C    1.314   156 N    1.224   154 C    1.188
   154   6 C    3.955 --   155 C    1.630   153 C    1.188   188 H    0.973
   155   6 C    3.953 --   154 C    1.630   157 C    1.195   189 H    0.967
   156   7 N    3.235 --   157 C    1.256   153 C    1.224   137 Cu   0.499
   157   6 C    3.904 --   156 N    1.256   158 C    1.255   155 C    1.195
   158   6 C    3.921 --   157 C    1.255   159 C    1.255   135 C    1.187
   159   6 C    3.904 --   163 N    1.256   158 C    1.255   160 C    1.195
   160   6 C    3.953 --   161 C    1.630   159 C    1.195   190 H    0.967
   161   6 C    3.955 --   160 C    1.630   162 C    1.188   191 H    0.974
   162   6 C    3.907 --   164 C    1.313   163 N    1.224   161 C    1.188
   163   7 N    3.235 --   159 C    1.256   162 C    1.224   137 Cu   0.499
   164   6 C    3.926 --   173 C    1.315   162 C    1.313   165 C    1.045
   165   6 C    3.988 --   166 C    1.380   172 C    1.369   164 C    1.045
   166   6 C    3.984 --   167 C    1.466   165 C    1.380   192 H    0.972
   167   6 C    3.989 --   166 C    1.466   168 C    1.353   193 H    0.970
   168   6 C    3.950 --   167 C    1.353   171 C    1.344   169 N    1.109
   169   7 N    3.178 --   168 C    1.109   170 C    0.971   194 H    0.931
   170   6 C    3.968 --   196 H    0.990   197 H    0.986   195 H    0.984
                           169 N    0.971
   171   6 C    3.989 --   172 C    1.479   168 C    1.344   198 H    0.971
   172   6 C    3.985 --   171 C    1.479   165 C    1.369   199 H    0.972
   173   6 C    3.907 --   164 C    1.315   177 N    1.224   174 C    1.187
   174   6 C    3.955 --   175 C    1.630   173 C    1.187   200 H    0.973
   175   6 C    3.953 --   174 C    1.630   176 C    1.195   201 H    0.968
   176   6 C    3.903 --   177 N    1.257   138 C    1.254   175 C    1.195
   177   7 N    3.235 --   176 C    1.257   173 C    1.224   137 Cu   0.499
   178   1 H    1.006 --   140 C    0.968
   179   1 H    1.005 --   141 C    0.973
   180   1 H    1.006 --   146 C    0.972
   181   1 H    0.999 --   147 C    0.971
   182   1 H    0.966 --   149 N    0.931
   183   1 H    1.012 --   150 C    0.986
   184   1 H    1.003 --   150 C    0.984
   185   1 H    1.007 --   150 C    0.990
   186   1 H    1.001 --   151 C    0.970
   187   1 H    1.006 --   152 C    0.972
   188   1 H    1.005 --   154 C    0.973
   189   1 H    1.007 --   155 C    0.967
   190   1 H    1.007 --   160 C    0.967
   191   1 H    1.005 --   161 C    0.974
   192   1 H    1.006 --   166 C    0.972
   193   1 H    1.001 --   167 C    0.970
   194   1 H    0.966 --   169 N    0.931
   195   1 H    1.003 --   170 C    0.984
   196   1 H    1.007 --   170 C    0.990
   197   1 H    1.012 --   170 C    0.986
   198   1 H    0.999 --   171 C    0.971
   199   1 H    1.006 --   172 C    0.972
   200   1 H    1.005 --   174 C    0.973
   201   1 H    1.006 --   175 C    0.968
 ---------------------------------------------------------------------------

           -------------------------------------------------
          | TOTAL ENERGY             -334.940974751511 Eh   |
          | GRADIENT NORM               0.000827410568 Eh/α |
          | HOMO-LUMO GAP               0.010552822386 eV   |
           -------------------------------------------------

 * finished run on 2022/07/30 at 05:43:29.509
