   * xtb version 6.5.1 (b24c23e) compiled by 'conda@728c89f4b128' on 2022-07-12
          program call               : xtb Py_C8_2.xyz --gfn 1 --opt -T 48

   ID    Z sym.   atoms
    1    6 C      1-5, 7-10, 12-16, 18-23, 25-28, 30-35, 56-60, 62-65, 67-71,
                  73-78, 80-83, 85-90, 111-118
    2    7 N      6, 11, 17, 24, 29, 36, 61, 66, 72, 79, 84, 91
    3    1 H      37-55, 92-110
########################################################################
[WARNING] Please study the warnings concerning your input carefully
-1- prog_main_parseArguments: Unknown option '-T' provided
########################################################################

          :  Hamiltonian                  GFN1-xTB          :
 * total energy  :  -201.7855097 Eh     change       -0.1939696E-08 Eh
 * total energy  :  -202.0425942 Eh     change       -0.2570845E+00 Eh
 * total energy  :  -202.1286345 Eh     change       -0.8604033E-01 Eh
 * total energy  :  -202.1578373 Eh     change       -0.2920272E-01 Eh
 * total energy  :  -202.1694178 Eh     change       -0.1158055E-01 Eh
 * total energy  :  -202.1759077 Eh     change       -0.6489921E-02 Eh
 * total energy  :  -202.1770076 Eh     change       -0.1099907E-02 Eh
 * total energy  :  -202.1800936 Eh     change       -0.3085982E-02 Eh
 * total energy  :  -202.1812158 Eh     change       -0.1122206E-02 Eh
 * total energy  :  -202.1828722 Eh     change       -0.1656332E-02 Eh
 * total energy  :  -202.1908962 Eh     change       -0.2144180E-04 Eh
 * total energy  :  -202.1909215 Eh     change       -0.2527671E-04 Eh
 * total energy  :  -202.1909395 Eh     change       -0.1801951E-04 Eh
 * total energy  :  -202.1909571 Eh     change       -0.1756364E-04 Eh
 * total energy  :  -202.1909705 Eh     change       -0.1340787E-04 Eh
 * total energy  :  -202.1909796 Eh     change       -0.9048777E-05 Eh
 * total energy  :  -202.1909879 Eh     change       -0.8380812E-05 Eh
 * total energy  :  -202.1909938 Eh     change       -0.5906177E-05 Eh
 * total energy  :  -202.1909948 Eh     change       -0.1000885E-05 Eh
   *** GEOMETRY OPTIMIZATION CONVERGED AFTER 44 ITERATIONS ***

 final structure:
================
118
 xtb: 6.5.1 (b24c23e)
C            6.53923508947275        0.07991216943482        0.04270942938440
C            7.14871565831056        1.30800871896696        0.26458587216910
C            6.49774019865870        2.55600071901685        0.47525023089112
C            7.46054593050562        3.50591028848506        0.66948339755767
C            8.73101385780345        2.86673416123582        0.59292951619231
N            8.49219321896108        1.54661407333380        0.33652776423585
C            9.99504161036938        3.45197435618917        0.72866923074030
C           10.02715910341810        4.90140843531981        1.03543810748773
C           10.64081010352152        5.81048318218930        0.17404935406277
C           10.64245023771975        7.15707860702652        0.50148594994797
N           10.08464841747202        7.63396872175345        1.60979658301316
C            9.49951544212174        6.77432161936110        2.43749387095590
C            9.44306976765956        5.41089926952208        2.19484665861847
C           11.21064228417801        2.77654359466338        0.59688384972139
C           12.50831821336947        3.39527379468541        0.80031004991358
C           13.42873460965595        2.43482999003437        0.57649408650991
N           11.36453964534807        1.46135272105865        0.27959851605924
C           12.69210071022566        1.22942845551641        0.24865973209928
C           13.32923429611904        0.00974221818924       -0.05983049053826
C           12.69265268507400       -1.21537421041960       -0.33561891803652
C           13.33482796139114       -2.43939846768591       -0.66097575981420
C           12.36766214931964       -3.39059628086076       -0.83306803196307
C           11.10400347907954       -2.77632429963501       -0.61074999864963
N           11.35207772704999       -1.46025137709122       -0.32288375544282
C            9.84177896116194       -3.37380056204442       -0.69345495899453
C            9.80937233481165       -4.82517400464930       -0.98876254119130
C           10.40975007863927       -5.75214437012088       -0.13704681408339
C           10.34963575481443       -7.10001647216500       -0.45411922996586
N            9.74721813448352       -7.56145948205886       -1.54528044910723
C            9.17492520820891       -6.68462785787196       -2.36416288360417
C            9.17723868979746       -5.31878643928358       -2.12977362404683
C            8.62531314940551       -2.70485657471724       -0.52103152461682
C            7.32210820677137       -3.35016972914738       -0.56490184148027
C            6.40844861645375       -2.37972389134494       -0.36311574069663
C            7.15243249916862       -1.14526621791609       -0.18340598750573
N            8.48431087908949       -1.38087880538749       -0.27534488819884
H            5.45394290203960        0.08749370585300        0.05180633677622
H            5.42860203547045        2.69628891100911        0.47076102115674
H            7.31008481308305        4.55926480951899        0.84181179375266
H            9.21696269029602        0.84700803662750        0.21611623429838
H           11.09647329741074        5.46898939030295       -0.74770919547293
H           11.11097400379195        7.88391956248616       -0.15563291575724
H            9.05659160847610        7.19324478903523        3.33635333269244
H            8.96780502381770        4.74653545334953        2.90680779918138
H           12.67130661615064        4.42071373212196        1.08961144739112
H           14.50310770740465        2.50710023624893        0.63102646231805
H           14.40152499547265       -2.56488156746252       -0.75384688340405
H           12.51282459563064       -4.42446498960800       -1.10064013414834
H           10.63136473299724       -0.77123471148327       -0.13455813070034
H           10.90077149087574       -5.42394741103937        0.77142455901673
H           10.80526979015436       -7.84049982986594        0.19683345147553
H            8.69297277887036       -7.09174482438676       -3.24823547622705
H            8.70880621788743       -4.64039592174334       -2.83279318419005
H            7.15466393690656       -4.40418385628866       -0.71739359684632
H            5.33347778606412       -2.46126627192616       -0.32497807848196
C           31.86150325737048       -0.09435706691721        0.00773159131194
C           31.25252614481030       -1.28825929687489       -0.35647539610537
C           31.90437909590419       -2.49471665289255       -0.73761011951238
C           30.94216138370157       -3.42806331028926       -1.00212798813684
C           29.67113489470225       -2.82421623272105       -0.78203346719643
N           29.90914787625360       -1.53312830498142       -0.40525433593006
C           28.40755379074893       -3.40617184790598       -0.93453875553945
C           28.37667739371837       -4.83473028762998       -1.32750908187889
C           27.77010915231857       -5.24614912079273       -2.51399994021656
C           27.76964863561278       -6.59264826233774       -2.84172156393036
N           28.32167980599670       -7.52573999969602       -2.07260121022477
C           28.89966652732292       -7.14277648306605       -0.93872785677801
C           28.95490196350733       -5.82018657599841       -0.52790561669318
C           27.19134435627901       -2.74538589921925       -0.74614037721059
C           25.89391024954795       -3.38805795877503       -0.85467844491139
C           24.97289498543570       -2.43238704905878       -0.61339567298613
N           27.03667007306777       -1.43178619412989       -0.42283881206090
C           25.70887642207689       -1.21150551482492       -0.34730988969936
C           25.07121140783173        0.01305767856408       -0.06023407206295
C           25.70722676567364        1.22815933119829        0.25808492674575
C           25.06422918751174        2.46439092522880        0.53151916017700
C           26.03084973035171        3.38934838944010        0.81409883826696
C           27.29496485392238        2.74260542045158        0.72873803216191
N           27.04769250670441        1.44090237667479        0.38097267854979
C           28.55681914693559        3.31278283448634        0.92766799073464
C           28.58822596034344        4.73881789897918        1.32800811402489
C           27.98952009502939        5.17402025767253        2.51003240795432
C           28.04834144919590        6.51818136851135        2.84284192291025
N           28.64803557741359        7.42756372880011        2.08139001947199
C           29.21890328738537        7.02187352000291        0.95157229955638
C           29.21763044866389        5.69959856497182        0.53684946812267
C           29.77379706020430        2.64009461306343        0.77475203400285
C           31.07656094574853        3.23529013833537        1.03014014788726
C           31.99089294524468        2.28014925477743        0.76749654280113
C           31.24776305766684        1.09912339310761        0.36427977050530
N           29.91572607107166        1.34998668920009        0.38923921001203
H           32.94678281964303       -0.10542843181272        0.01412181868094
H           32.97370287907493       -2.61757535236432       -0.80247163297031
H           31.09321448740404       -4.44374689762846       -1.32993552792363
H           29.18393450673324       -0.85563651740723       -0.19476972700473
H           27.31900267249310       -4.51904755208126       -3.17860829002938
H           27.30657567085380       -6.93619866368825       -3.76212330834261
H           29.33875670176613       -7.92803735711061       -0.33024167359726
H           29.42490298086773       -5.55734662121885        0.41240151980461
H           25.73138135458060       -4.43136809028021       -1.07121747894343
H           23.89845376528674       -2.52150686604372       -0.60178309978586
H           23.99739503290125        2.61762480093426        0.50743587377073
H           25.88498629248787        4.43057706839396        1.05095103014756
H           27.76896220748058        0.74288931615097        0.23202731445742
H           27.50070308044482        4.46676616835801        3.16956597907796
H           27.59389871763941        6.87936200393423        3.76082372742092
H           29.69862745807675        7.78825582423930        0.34980437403337
H           29.68470251469362        5.41730744861191       -0.39911798671630
H           31.24329297133008        4.24303060883285        1.37496600250620
H           33.06581015415041        2.33613399859035        0.83881781728170
C           14.73402125034336        0.00351810717639       -0.09068057200660
C           15.95858405839155        0.00941817782324       -0.11535939223296
C           17.30064168779279        0.01862535197429       -0.13331406323032
C           18.53147887540499        0.03118338090596       -0.14025773008918
C           19.86891689620142        0.04051074805501       -0.13676198657432
C           21.09970926942442        0.04759884622614       -0.12397587799526
C           22.44183594214504        0.04334899699160       -0.10888042675196
C           23.66640931484541        0.03264288012565       -0.08437384170979

          :  Hamiltonian                  GFN1-xTB          :
         :: total energy            -202.190994846147 Eh    ::
         :: gradient norm              0.000516130130 Eh/a0 ::
         :: HOMO-LUMO gap              1.029226691607 eV    ::
         :: SCC energy              -205.606075047703 Eh    ::
         :: repulsion energy           3.513623334743 Eh    ::

    * Orbital Energies and Occupations

         #    Occupation            Energy/Eh            Energy/eV
      -------------------------------------------------------------
         1        2.0000           -0.8100765             -22.0433
       ...           ...                  ...                  ...
       173        2.0000           -0.4231187             -11.5136
       174        2.0000           -0.4216023             -11.4724
       175        2.0000           -0.4214798             -11.4690
       176        2.0000           -0.4209657             -11.4551
       177        2.0000           -0.4209582             -11.4549
       178        2.0000           -0.4203385             -11.4380
       179        2.0000           -0.4202550             -11.4357
       180        2.0000           -0.4178922             -11.3714
       181        2.0000           -0.4115791             -11.1996
       182        2.0000           -0.4048053             -11.0153
       183        2.0000           -0.4045258             -11.0077
       184        2.0000           -0.3928405             -10.6897
       185        2.0000           -0.3847071             -10.4684 (HOMO)
       186                         -0.3468837              -9.4392 (LUMO)
       187                         -0.3386418              -9.2149
       188                         -0.3378646              -9.1938
       189                         -0.3365641              -9.1584
       190                         -0.3100034              -8.4356
       191                         -0.3044269              -8.2839
       192                         -0.3028885              -8.2420
       193                         -0.2857633              -7.7760
       194                         -0.2825506              -7.6886
       195                         -0.2824234              -7.6851
       196                         -0.2799567              -7.6180
       ...                                ...                  ...
       396                          1.6017742              43.5865
      -------------------------------------------------------------
                  HL-Gap            0.0378234 Eh            1.0292 eV

Wiberg/Mayer (AO) data.
largest (>0.10) Wiberg bond orders for each atom

     #   Z sym  total        # sym  WBO       # sym  WBO       # sym  WBO
 ---------------------------------------------------------------------------
     1   6 C    3.926 --    35 C    1.366     2 C    1.347    37 H    0.971
     2   6 C    3.902 --     1 C    1.347     3 C    1.229     6 N    1.169
     3   6 C    3.954 --     4 C    1.596     2 C    1.229    38 H    0.976
     4   6 C    3.959 --     3 C    1.596     5 C    1.234    39 H    0.974
     5   6 C    3.897 --     7 C    1.302     4 C    1.234     6 N    1.178
     6   7 N    3.470 --     5 C    1.178     2 C    1.169    40 H    0.873
     7   6 C    3.939 --    14 C    1.335     5 C    1.302     8 C    1.031
     8   6 C    3.986 --    13 C    1.392     9 C    1.391     7 C    1.031
                            11 N    0.106
     9   6 C    3.987 --    10 C    1.442     8 C    1.391    41 H    0.973
                            12 C    0.108
    10   6 C    3.972 --     9 C    1.442    11 N    1.415    42 H    0.972
                            13 C    0.108
    11   7 N    3.029 --    12 C    1.416    10 C    1.415     8 C    0.106
    12   6 C    3.972 --    13 C    1.442    11 N    1.416    43 H    0.972
                             9 C    0.108
    13   6 C    3.986 --    12 C    1.442     8 C    1.392    44 H    0.973
                            10 C    0.108
    14   6 C    3.915 --     7 C    1.335    17 N    1.285    15 C    1.125
    15   6 C    3.965 --    16 C    1.711    14 C    1.125    45 H    0.973
    16   6 C    3.964 --    15 C    1.711    18 C    1.128    46 H    0.974
    17   7 N    3.022 --    18 C    1.345    14 C    1.285
    18   6 C    3.907 --    17 N    1.345    19 C    1.252    16 C    1.128
    19   6 C    3.938 --    18 C    1.252    20 C    1.251   111 C    1.193
    20   6 C    3.884 --    19 C    1.251    21 C    1.249    24 N    1.189
    21   6 C    3.959 --    22 C    1.584    20 C    1.249    47 H    0.975
    22   6 C    3.954 --    21 C    1.584    23 C    1.240    48 H    0.974
    23   6 C    3.899 --    25 C    1.309    22 C    1.240    24 N    1.166
    24   7 N    3.474 --    20 C    1.189    23 C    1.166    49 H    0.873
    25   6 C    3.925 --    32 C    1.320    23 C    1.309    26 C    1.032
    26   6 C    3.986 --    27 C    1.392    31 C    1.391    25 C    1.032
                            29 N    0.106
    27   6 C    3.985 --    28 C    1.442    26 C    1.392    50 H    0.973
                            30 C    0.108
    28   6 C    3.972 --    27 C    1.442    29 N    1.415    51 H    0.972
                            31 C    0.108
    29   7 N    3.029 --    28 C    1.415    30 C    1.415    26 C    0.106
    30   6 C    3.972 --    31 C    1.443    29 N    1.415    52 H    0.972
                            27 C    0.108
    31   6 C    3.986 --    30 C    1.443    26 C    1.391    53 H    0.973
                            28 C    0.108
    32   6 C    3.929 --    25 C    1.320    36 N    1.318    33 C    1.117
    33   6 C    3.967 --    34 C    1.723    32 C    1.117    54 H    0.973
    34   6 C    3.966 --    33 C    1.723    35 C    1.116    55 H    0.976
    35   6 C    3.928 --     1 C    1.366    36 N    1.300    34 C    1.116
    36   7 N    3.012 --    32 C    1.318    35 C    1.300
    37   1 H    1.002 --     1 C    0.971
    38   1 H    0.997 --     3 C    0.976
    39   1 H    1.004 --     4 C    0.974
    40   1 H    0.986 --     6 N    0.873
    41   1 H    1.004 --     9 C    0.973
    42   1 H    1.013 --    10 C    0.972
    43   1 H    1.013 --    12 C    0.972
    44   1 H    1.004 --    13 C    0.973
    45   1 H    1.004 --    15 C    0.973
    46   1 H    1.003 --    16 C    0.974
    47   1 H    1.002 --    21 C    0.975
    48   1 H    1.004 --    22 C    0.974
    49   1 H    0.987 --    24 N    0.873
    50   1 H    1.004 --    27 C    0.973
    51   1 H    1.013 --    28 C    0.972
    52   1 H    1.013 --    30 C    0.972
    53   1 H    1.004 --    31 C    0.973
    54   1 H    1.005 --    33 C    0.973
    55   1 H    0.998 --    34 C    0.976
    56   6 C    3.926 --    90 C    1.366    57 C    1.347    92 H    0.971
    57   6 C    3.902 --    56 C    1.347    58 C    1.229    61 N    1.169
    58   6 C    3.954 --    59 C    1.596    57 C    1.229    93 H    0.976
    59   6 C    3.959 --    58 C    1.596    60 C    1.234    94 H    0.974
    60   6 C    3.897 --    62 C    1.302    59 C    1.234    61 N    1.178
    61   7 N    3.470 --    60 C    1.178    57 C    1.169    95 H    0.873
    62   6 C    3.939 --    69 C    1.335    60 C    1.302    63 C    1.031
    63   6 C    3.986 --    68 C    1.392    64 C    1.391    62 C    1.031
                            66 N    0.106
    64   6 C    3.987 --    65 C    1.443    63 C    1.391    96 H    0.973
                            67 C    0.108
    65   6 C    3.972 --    64 C    1.443    66 N    1.415    97 H    0.972
                            68 C    0.108
    66   7 N    3.029 --    67 C    1.416    65 C    1.415    63 C    0.106
    67   6 C    3.972 --    68 C    1.442    66 N    1.416    98 H    0.972
                            64 C    0.108
    68   6 C    3.986 --    67 C    1.442    63 C    1.392    99 H    0.973
                            65 C    0.108
    69   6 C    3.915 --    62 C    1.335    72 N    1.285    70 C    1.125
    70   6 C    3.965 --    71 C    1.711    69 C    1.125   100 H    0.973
    71   6 C    3.964 --    70 C    1.711    73 C    1.128   101 H    0.974
    72   7 N    3.022 --    73 C    1.345    69 C    1.285
    73   6 C    3.907 --    72 N    1.345    74 C    1.252    71 C    1.128
    74   6 C    3.938 --    73 C    1.252    75 C    1.251   118 C    1.193
    75   6 C    3.884 --    74 C    1.251    76 C    1.249    79 N    1.189
    76   6 C    3.959 --    77 C    1.584    75 C    1.249   102 H    0.975
    77   6 C    3.954 --    76 C    1.584    78 C    1.240   103 H    0.974
    78   6 C    3.899 --    80 C    1.309    77 C    1.240    79 N    1.165
    79   7 N    3.474 --    75 C    1.189    78 C    1.165   104 H    0.873
    80   6 C    3.925 --    87 C    1.320    78 C    1.309    81 C    1.032
    81   6 C    3.986 --    82 C    1.392    86 C    1.391    80 C    1.032
                            84 N    0.106
    82   6 C    3.985 --    83 C    1.442    81 C    1.392   105 H    0.973
                            85 C    0.108
    83   6 C    3.972 --    82 C    1.442    84 N    1.416   106 H    0.972
                            86 C    0.108
    84   7 N    3.029 --    83 C    1.416    85 C    1.415    81 C    0.106
    85   6 C    3.972 --    86 C    1.443    84 N    1.415   107 H    0.972
                            82 C    0.108
    86   6 C    3.986 --    85 C    1.443    81 C    1.391   108 H    0.973
                            83 C    0.108
    87   6 C    3.929 --    80 C    1.320    91 N    1.318    88 C    1.117
    88   6 C    3.967 --    89 C    1.723    87 C    1.117   109 H    0.973
    89   6 C    3.966 --    88 C    1.723    90 C    1.116   110 H    0.976
    90   6 C    3.928 --    56 C    1.366    91 N    1.300    89 C    1.116
    91   7 N    3.012 --    87 C    1.318    90 C    1.300
    92   1 H    1.002 --    56 C    0.971
    93   1 H    0.997 --    58 C    0.976
    94   1 H    1.004 --    59 C    0.974
    95   1 H    0.986 --    61 N    0.873
    96   1 H    1.004 --    64 C    0.973
    97   1 H    1.013 --    65 C    0.972
    98   1 H    1.013 --    67 C    0.972
    99   1 H    1.004 --    68 C    0.973
   100   1 H    1.004 --    70 C    0.973
   101   1 H    1.003 --    71 C    0.974
   102   1 H    1.002 --    76 C    0.975
   103   1 H    1.004 --    77 C    0.974
   104   1 H    0.987 --    79 N    0.873
   105   1 H    1.004 --    82 C    0.973
   106   1 H    1.013 --    83 C    0.972
   107   1 H    1.013 --    85 C    0.972
   108   1 H    1.004 --    86 C    0.973
   109   1 H    1.005 --    88 C    0.973
   110   1 H    0.998 --    89 C    0.976
   111   6 C    3.877 --   112 C    2.436    19 C    1.193   114 C    0.186
   112   6 C    3.932 --   111 C    2.436   113 C    1.346
   113   6 C    3.892 --   114 C    2.333   112 C    1.346   116 C    0.182
   114   6 C    3.924 --   113 C    2.333   115 C    1.371   111 C    0.186
   115   6 C    3.924 --   116 C    2.333   114 C    1.371   118 C    0.186
   116   6 C    3.892 --   115 C    2.333   117 C    1.346   113 C    0.182
   117   6 C    3.932 --   118 C    2.436   116 C    1.346
   118   6 C    3.877 --   117 C    2.436    74 C    1.193   115 C    0.186
 ---------------------------------------------------------------------------

           -------------------------------------------------
          | TOTAL ENERGY             -202.190994846147 Eh   |
          | GRADIENT NORM               0.000516130130 Eh/α |
          | HOMO-LUMO GAP               1.029226691607 eV   |
           -------------------------------------------------

 * finished run on 2022/07/27 at 10:53:39.101
