   * xtb version 6.5.1 (b24c23e) compiled by 'conda@728c89f4b128' on 2022-07-12
          program call               : xtb Fe_p-CP_C8_3.xyz --gfn 1 --opt -T 48

   ID    Z sym.   atoms
    1   26 Fe     1, 63, 141
    2    6 C      2-6, 8-11, 13-24, 27-32, 35-39, 42, 43, 64-68, 70-73,
                  75-86, 89-94, 97-101, 104, 105, 125-140, 142-146, 148-151,
                  153-164, 167-172, 175-179, 182, 183
    3    7 N      7, 12, 33, 34, 69, 74, 95, 96, 147, 152, 173, 174
    4    8 O      25, 26, 40, 41, 87, 88, 102, 103, 165, 166, 180, 181
    5    1 H      44-62, 106-124, 184-201

          :  Hamiltonian                  GFN1-xTB          :
 * total energy  :  -381.9670644 Eh     change        0.2049597E-07 Eh
 * total energy  :  -382.4328014 Eh     change       -0.4657371E+00 Eh
 * total energy  :  -382.5969919 Eh     change       -0.1641905E+00 Eh
 * total energy  :  -382.6916302 Eh     change       -0.9463831E-01 Eh
 * total energy  :  -382.7733048 Eh     change       -0.8167460E-01 Eh
 * total energy  :  -382.8461147 Eh     change       -0.7280987E-01 Eh
 * total energy  :  -382.8930784 Eh     change       -0.4696368E-01 Eh
 * total energy  :  -382.9229536 Eh     change       -0.2987524E-01 Eh
 * total energy  :  -382.9452722 Eh     change       -0.2231860E-01 Eh
 * total energy  :  -382.9606670 Eh     change       -0.1539472E-01 Eh
 * total energy  :  -383.0308017 Eh     change       -0.4815629E-04 Eh
 * total energy  :  -383.0308673 Eh     change       -0.6559188E-04 Eh
 * total energy  :  -383.0309087 Eh     change       -0.4137809E-04 Eh
 * total energy  :  -383.0309426 Eh     change       -0.3386013E-04 Eh
 * total energy  :  -383.0309737 Eh     change       -0.3112985E-04 Eh
 * total energy  :  -383.0310010 Eh     change       -0.2733220E-04 Eh
 * total energy  :  -383.0310272 Eh     change       -0.2618775E-04 Eh
 * total energy  :  -383.0310511 Eh     change       -0.2383751E-04 Eh
 * total energy  :  -383.0310546 Eh     change       -0.3572444E-05 Eh
   *** GEOMETRY OPTIMIZATION CONVERGED AFTER 68 ITERATIONS ***

 final structure:
================
201
 xtb: 6.5.1 (b24c23e)
Fe          30.88591852427638       -0.06832141705905        0.00237204457232
C           27.49540309028016       -0.09579291321525        0.02978170264343
C           28.15343355601768       -0.27711947393029        1.22854391207510
C           27.48289575118850       -0.49285809534531        2.47501993320689
C           28.43917348872839       -0.50562622628691        3.43266569075487
C           29.69530374378230       -0.30649417574936        2.76820837555006
N           29.50709873171053       -0.18130561035778        1.41806392311611
C           30.90795721217448       -0.14749652239132        3.42917585164380
C           32.10909767525992        0.06064067537464        2.76574174172414
C           33.37280697076205        0.19371437420186        3.42751736968956
C           34.31839656266950        0.24328766600642        2.45903932144146
N           32.28313380446193        0.05602710216677        1.40184413573339
C           33.63212852239066        0.13485929943412        1.20981457800766
C           34.29276491077720        0.03708743582083       -0.01959789386691
C           33.61626771150495       -0.07170719982929       -1.23947058826328
C           34.28308415103375       -0.20562768784609       -2.49652082629396
C           33.32231786417953       -0.17489276511789       -3.45133668205608
C           32.07078857558601       -0.01397883429330       -2.77332222408525
C           30.85083337509285        0.13168802569556       -3.42028344413730
C           30.82865485915434        0.18083300932985       -4.90031624373907
C           30.13272563896652       -0.78979135760077       -5.62620769501361
C           30.09977553710125       -0.73816717011077       -7.00731148615027
C           30.75793558380298        0.28749413266691       -7.68863870891054
C           30.68259905972521        0.30661333615337       -9.16926456863217
O           31.34650761525367        1.32977481201322       -9.72787364384256
O           30.08700988095845       -0.50567216279475       -9.83021515488143
C           31.45650191664309        1.25716980845472       -6.96875138083902
C           31.49286442404140        1.20051089019922       -5.58629322558047
C           29.64219836240899        0.22123276514357       -2.73904852742522
C           28.37189488617207        0.41183056811401       -3.37851827126614
C           27.43085131704455        0.34017988169854       -2.40837768479037
C           28.12715116788668        0.11976266983366       -1.17693847974431
N           29.48185644555173        0.09545793492098       -1.38521812902033
N           32.26536813327169        0.01601605276255       -1.41338708615812
C           30.91245553802990       -0.21062169809783        4.91041362387796
C           30.58107100133176       -1.40006560627243        5.56406830268943
C           30.56962442112481       -1.45628101532566        6.94555100828696
C           30.88559345778088       -0.32354553473116        7.69808801841978
C           30.84751032213465       -0.43110722346431        9.17644248452980
O           31.16597029813927        0.70957156079351        9.80647663650245
O           30.55844267225213       -1.43419017132065        9.77774900270571
C           31.22029035563680        0.86532692578282        7.04934108957576
C           31.23533952968796        0.91842411666768        5.66616586960112
H           26.41159732049484       -0.11999296227484        0.03754435097680
H           26.41599308166963       -0.60555528955627        2.58403837555048
H           28.31539479694199       -0.62352307461333        4.49682163490320
H           33.51014598139179        0.22397905193697        4.49605234456462
H           35.38761466115154        0.33063621139628        2.56555991331711
H           35.34938805354307       -0.30917689359893       -2.61697409053969
H           33.43949738875535       -0.26108772500480       -4.51927014430774
H           29.62928464938208       -1.59219467734557       -5.09908069842619
H           29.56363538513481       -1.48930692758707       -7.57690233849030
H           31.24606074709057        1.27127131622188      -10.69190514956359
H           31.96704711238590        2.05586939991887       -7.49370357078141
H           32.02375260382988        1.96208780787992       -5.02636234279682
H           28.23128913415092        0.58122494157403       -4.43363463649945
H           26.35962539407904        0.42531759895944       -2.49830894026688
H           30.34411859065806       -2.28242501272308        4.98063220089275
H           30.31462749482469       -2.37614344523226        7.46026246883216
H           31.11497412845697        0.55627145472038       10.76396300100228
H           31.46477837085096        1.74700562142728        7.62989859309537
H           31.48182357353985        1.84582161650356        5.16168148886016
Fe          67.99406378884002       -0.05173887063217       -0.03918152343372
C           71.38347817996244       -0.07897574235791       -0.07244094809995
C           70.72445585581799       -0.12734705441767       -1.28346102523199
C           71.39321309443356       -0.20466187060200       -2.54703995816803
C           70.43580814021561       -0.10974715041063       -3.49902803971557
C           69.18087842535452        0.01783100884497       -2.81502397945141
N           69.37070200526939       -0.01048509919847       -1.45969879035959
C           67.96889820211004        0.26015852405334       -3.45201534476681
C           66.77003049892926        0.40129042040783       -2.76723657358445
C           65.50716427591952        0.62478204556712       -3.40594102155037
C           64.56270474837332        0.56682986083536       -2.43670689703833
N           66.59646088628094        0.23487638472924       -1.41340460758618
C           65.24872343642183        0.30178474528629       -1.21097739969607
C           64.58809791952959        0.05312844595207       -0.00254659462142
C           65.26506649129711       -0.21029948534755        1.19375549382984
C           64.59883781924857       -0.49857473337892        2.42498475188232
C           65.56001096677866       -0.58466445625948        3.37605319511564
C           66.81111303841787       -0.33976085494367        2.72270136074843
C           68.03088935313976       -0.26770594455750        3.38209727052435
C           68.05442137244347       -0.39426618464259        4.85740466956601
C           68.75995432627556       -1.43763411632485        5.46324734696853
C           68.79541867521463       -1.54867998131526        6.84079776367343
C           68.13022867610772       -0.61603599133639        7.63893505628107
C           68.21071157934242       -0.76919812525768        9.11157248957525
O           67.53900828342881        0.17502537524672        9.78731967236335
O           68.81603861648310       -1.64750391066992        9.67150081300115
C           67.42128608738508        0.42509030432650        7.03900360448987
C           67.38248733609888        0.53132066844017        5.65953592370217
C           69.23858382186978       -0.09116059519134        2.71561273679548
C           70.50850625548100        0.03130672116439        3.37223696008436
C           71.44889307790740        0.07836736484994        2.39984563594012
C           70.75252874920001       -0.00232501744528        1.15147917062891
N           69.39826923503432       -0.05817040864229        1.35648459060026
N           66.61568500737340       -0.14506908884044        1.37643702491511
C           67.96367976137955        0.36838383424974       -4.93063711885898
C           68.28477642499450       -0.74048161252452       -5.71752218537669
C           68.29634455090141       -0.63687283804400       -7.09627550668102
C           67.99101137566817        0.57799157700671       -7.71281398141762
C           68.03055521197435        0.64212394120296       -9.19365376325684
O           67.72465748271965        1.85133763006333       -9.68733360859647
O           68.31021059420543       -0.28748361557969       -9.90708818527758
C           67.66619542564182        1.68677509130378       -6.93088568903669
C           67.65086670898690        1.57986901344097       -5.55082870944347
H           72.46733159998615       -0.09948177743167       -0.08379653776586
H           72.45979103916787       -0.30627330998134       -2.66931575043058
H           70.55821414442509       -0.10930427096297       -4.56985949272135
H           65.36929234710702        0.78469110345698       -4.46281552791754
H           63.49430209733682        0.67653805871232       -2.52999451266887
H           63.53264453002131       -0.61663209654744        2.53228893659148
H           65.44321215058081       -0.80145319304584        4.42534030673639
H           69.26912986155462       -2.16801789988027        4.84481970174841
H           69.33944265022585       -2.35678098125561        7.31735894951614
H           67.64337612248789        0.00581759114727       10.73776876828968
H           66.90488224927658        1.15182720489590        7.65490101990992
H           66.84397374556477        1.34896839301027        5.19390276890490
H           70.64938069393378        0.07804205564390        4.43980581439178
H           72.51969318369017        0.15882521364671        2.49865313419321
H           68.51385970527679       -1.68636682619498       -5.24010410494350
H           68.54353730220789       -1.49334517409069       -7.71389830857542
H           67.77643912560332        1.80993263786650      -10.65608168809537
H           67.42981283203345        2.63174883118174       -7.40556693726379
H           67.41241096255683        2.44499819847342       -4.94255208056647
C           35.69659146101244        0.03978484209489       -0.02880194416779
C           36.92179699507850        0.03852125073347       -0.03549739891869
C           38.26404649317004        0.03647932599362       -0.03790207936568
C           39.49571107485391        0.02921716152724       -0.04008136614220
C           40.83303439988482        0.02483264018923       -0.03982077391538
C           42.06472321473171        0.01150124348621       -0.03861708603208
C           43.40655947657067        0.00787926381145       -0.03241259231551
C           44.63219837422253        0.00593840679360       -0.02743209871539
C           54.25022603984080        0.01643626314445        0.02498271804764
C           55.47616161574209        0.02411129962729        0.03006323676181
C           56.81735474327292        0.03079014202728        0.03329955670157
C           58.04939000307205        0.04014950879311        0.03395223911058
C           59.38599253828334        0.04776819327640        0.03025578366027
C           60.61793956952391        0.05760248698039        0.02465308065223
C           61.95951414246618        0.05820979141930        0.02010198963912
C           63.18510219974962        0.05880506623420        0.00874885589218
Fe          49.44174074018252        0.00694496718150       -0.05182926172526
C           46.03438985534357        0.00546152662664       -0.01743005671798
C           46.71061012392040       -1.20565704567124       -0.21124038573560
C           46.05587340352447       -2.45000769464608       -0.46501910710958
C           47.01280252099955       -3.40940705293137       -0.41617866759865
C           48.24771471193219       -2.74617562453082       -0.12211674040970
N           48.05273838708010       -1.38931678686548       -0.04968428075942
C           49.44531286413952       -3.39805702702886        0.15068527098105
C           50.64034504495732       -2.72161254017470        0.36673166081624
C           51.87867906263969       -3.35580422336644        0.70745883254429
C           52.83311483210421       -2.39370088761023        0.67145170795040
N           50.82925194614265       -1.37204346198441        0.19556149665622
C           52.17359295073243       -1.17562697703584        0.32005994571637
C           52.84868064524858        0.01391564825322        0.01870624266054
C           52.17496058621143        1.20183702758155       -0.29393437719735
C           52.83337288443091        2.41793370043372       -0.65362792374497
C           51.87649722420751        3.37725778587161       -0.70472112636291
C           50.63799208741517        2.74327424696871       -0.36497279158351
C           49.43783448105975        3.41606497829004       -0.16684699355311
C           49.43282687387472        4.89402352504885       -0.24768290577856
C           50.22632595102708        5.65257934087258        0.61711766605193
C           50.21663831825325        7.03315235404148        0.54190688143524
C           49.41931287840480        7.68082064027773       -0.40357000549986
C           49.44503726469027        9.16306762173439       -0.44676917634778
O           48.64368273485503        9.68637465346506       -1.38641666766156
O           50.11430169535085        9.85253524591914        0.27972661934007
C           48.62861017264076        6.92789012116246       -1.27206987377831
C           48.63420412797122        5.54644689999235       -1.19054895707070
C           48.24080839554816        2.76129589096796        0.10057700935880
C           46.99996279967652        3.42386910791647        0.37048621281037
C           46.04521338673536        2.46237461989085        0.41384215483153
C           46.70703691544425        1.21748631329085        0.18102279320194
N           48.05295720242396        1.40191120722094        0.05239290396625
N           50.83162077065033        1.39879528181472       -0.16500634171640
C           49.44624584914973       -4.87701382884626        0.21038134107844
C           48.63776755138718       -5.54712351060159        1.13262852165788
C           48.63804200719543       -6.92869441721915        1.18606429899068
C           49.44083743844629       -7.66638207029260        0.31403553277963
C           49.40061368159869       -9.14623749557356        0.40501765041915
O           50.20268317692628       -9.75993699623113       -0.47746397140413
O           48.71991423657153       -9.76052582843726        1.18613447058231
C           50.24829723119013       -7.00228803455047       -0.60971984001637
C           50.25215017002098       -5.61916213776668       -0.65684735041777
H           44.99980426860255       -2.56083449798892       -0.65128081526375
H           46.90180098061197       -4.47064018737700       -0.56816041706524
H           51.99378283746242       -4.40140764216148        0.94216844801855
H           53.89108214833276       -2.48680400780518        0.85664611055641
H           53.89163356455357        2.51191798533498       -0.83665792236381
H           51.98976917476445        4.42012016742202       -0.95226847220199
H           50.83662624366215        5.15182607197605        1.36000840790895
H           50.82448954866759        7.62850343628452        1.21433201919055
H           48.71825794463230       10.65388708201462       -1.35055835068134
H           48.01142193612949        7.42636229122162       -2.01011963318862
H           48.02874504960955        4.96088014246882       -1.87312225379865
H           46.88363821671201        4.48648729426713        0.50804428297117
H           44.98577227791831        2.57193955578418        0.58058583095456
H           48.02217078330815       -4.97571586800633        1.81793570873754
H           48.01735647779390       -7.45512313072590        1.90279839699297
H           50.11779429177236      -10.71954175760131       -0.35537011564887
H           50.87068431557469       -7.57107024833454       -1.29034358493463
H           50.86987219622385       -5.10353779872518       -1.38343684347491

          :  Hamiltonian                  GFN1-xTB          :
         :: total energy            -383.031054656157 Eh    ::
         :: gradient norm              0.000927722365 Eh/a0 ::
         :: HOMO-LUMO gap              0.103329506877 eV    ::
         :: SCC energy              -388.920326478558 Eh    ::
         :: repulsion energy           6.067225566840 Eh    ::

    * Orbital Energies and Occupations

         #    Occupation            Energy/Eh            Energy/eV
      -------------------------------------------------------------
         1        2.0000           -0.8356124             -22.7382
       ...           ...                  ...                  ...
       330        2.0000           -0.4065917             -11.0639
       331        1.9978           -0.4017630             -10.9325
       332        1.9928           -0.4006401             -10.9020
       333        1.9923           -0.4005738             -10.9002
       334        1.9922           -0.4005682             -10.9000
       335        1.9834           -0.3998455             -10.8804
       336        1.9455           -0.3986961             -10.8491
       337        1.9360           -0.3985388             -10.8448
       338        1.9314           -0.3984710             -10.8429
       339        1.9278           -0.3984206             -10.8416
       340        1.9239           -0.3983680             -10.8401
       341        1.9204           -0.3983237             -10.8389
       342        1.7804           -0.3972878             -10.8108 (HOMO)
       343        0.2592           -0.3934905             -10.7074 (LUMO)
       344        0.2259           -0.3933417             -10.7034
       345        0.1912           -0.3931647             -10.6986
       346                         -0.3526525              -9.5962
       347                         -0.3451316              -9.3915
       348                         -0.3443157              -9.3693
       349                         -0.3425191              -9.3204
       350                         -0.3394981              -9.2382
       351                         -0.3392694              -9.2320
       352                         -0.3267414              -8.8911
       353                         -0.3173656              -8.6360
       ...                                ...                  ...
       707                          1.5883389              43.2209
      -------------------------------------------------------------
                  HL-Gap            0.0037973 Eh            0.1033 eV

Wiberg/Mayer (AO) data.
largest (>0.10) Wiberg bond orders for each atom

     #   Z sym  total        # sym  WBO       # sym  WBO       # sym  WBO
 ---------------------------------------------------------------------------
     1  26 Fe   3.242 --    33 N    0.686    12 N    0.679     7 N    0.677
                            34 N    0.671
     2   6 C    3.939 --    32 C    1.365     3 C    1.363    44 H    0.970
     3   6 C    3.922 --     2 C    1.363     7 N    1.209     4 C    1.172
     4   6 C    3.959 --     5 C    1.651     3 C    1.172    45 H    0.975
     5   6 C    3.961 --     4 C    1.651     6 C    1.174    46 H    0.972
     6   6 C    3.920 --     8 C    1.317     7 N    1.222     5 C    1.174
     7   7 N    3.390 --     6 C    1.222     3 C    1.209     1 Fe   0.677
     8   6 C    3.940 --     9 C    1.333     6 C    1.317    35 C    1.025
     9   6 C    3.915 --     8 C    1.333    12 N    1.200    10 C    1.179
    10   6 C    3.957 --    11 C    1.640     9 C    1.179    47 H    0.973
    11   6 C    3.959 --    10 C    1.640    13 C    1.187    48 H    0.973
    12   7 N    3.392 --    13 C    1.239     9 C    1.200     1 Fe   0.679
    13   6 C    3.904 --    14 C    1.258    12 N    1.239    11 C    1.187
    14   6 C    3.943 --    13 C    1.258    15 C    1.257   125 C    1.192
    15   6 C    3.904 --    14 C    1.257    34 N    1.238    16 C    1.188
    16   6 C    3.959 --    17 C    1.637    15 C    1.188    49 H    0.973
    17   6 C    3.958 --    16 C    1.637    18 C    1.180    50 H    0.973
    18   6 C    3.916 --    19 C    1.328    34 N    1.202    17 C    1.180
    19   6 C    3.941 --    18 C    1.328    29 C    1.317    20 C    1.031
    20   6 C    3.986 --    28 C    1.387    21 C    1.384    19 C    1.031
    21   6 C    3.986 --    22 C    1.465    20 C    1.384    51 H    0.972
                            27 C    0.103
    22   6 C    3.990 --    21 C    1.465    23 C    1.385    52 H    0.968
                            28 C    0.103
    23   6 C    3.983 --    27 C    1.389    22 C    1.385    24 C    1.009
    24   6 C    3.836 --    26 O    1.690    25 O    1.088    23 C    1.009
    25   8 O    2.097 --    24 C    1.088    53 H    0.838    26 O    0.129
    26   8 O    1.958 --    24 C    1.690    25 O    0.129
    27   6 C    3.991 --    28 C    1.461    23 C    1.389    54 H    0.970
                            21 C    0.103
    28   6 C    3.987 --    27 C    1.461    20 C    1.387    55 H    0.972
                            22 C    0.103
    29   6 C    3.920 --    19 C    1.317    33 N    1.222    30 C    1.174
    30   6 C    3.961 --    31 C    1.651    29 C    1.174    56 H    0.973
    31   6 C    3.959 --    30 C    1.651    32 C    1.172    57 H    0.975
    32   6 C    3.922 --     2 C    1.365    33 N    1.207    31 C    1.172
    33   7 N    3.393 --    29 C    1.222    32 C    1.207     1 Fe   0.686
    34   7 N    3.390 --    15 C    1.238    18 C    1.202     1 Fe   0.671
    35   6 C    3.986 --    43 C    1.389    36 C    1.386     8 C    1.025
    36   6 C    3.987 --    37 C    1.464    35 C    1.386    58 H    0.972
                            42 C    0.103
    37   6 C    3.990 --    36 C    1.464    38 C    1.385    59 H    0.968
                            43 C    0.103
    38   6 C    3.984 --    42 C    1.390    37 C    1.385    39 C    1.009
    39   6 C    3.836 --    41 O    1.690    40 O    1.088    38 C    1.009
    40   8 O    2.097 --    39 C    1.088    60 H    0.838    41 O    0.129
    41   8 O    1.959 --    39 C    1.690    40 O    0.129
    42   6 C    3.991 --    43 C    1.460    38 C    1.390    61 H    0.970
                            36 C    0.103
    43   6 C    3.988 --    42 C    1.460    35 C    1.389    62 H    0.972
                            37 C    0.103
    44   1 H    1.000 --     2 C    0.970
    45   1 H    0.997 --     4 C    0.975
    46   1 H    1.004 --     5 C    0.972
    47   1 H    1.004 --    10 C    0.973
    48   1 H    1.001 --    11 C    0.973
    49   1 H    1.001 --    16 C    0.973
    50   1 H    1.004 --    17 C    0.973
    51   1 H    1.004 --    21 C    0.972
    52   1 H    1.005 --    22 C    0.968
    53   1 H    0.873 --    25 O    0.838
    54   1 H    1.005 --    27 C    0.970
    55   1 H    1.004 --    28 C    0.972
    56   1 H    1.004 --    30 C    0.973
    57   1 H    0.997 --    31 C    0.975
    58   1 H    1.003 --    36 C    0.972
    59   1 H    1.005 --    37 C    0.968
    60   1 H    0.873 --    40 O    0.838
    61   1 H    1.005 --    42 C    0.970
    62   1 H    1.003 --    43 C    0.972
    63  26 Fe   3.212 --    95 N    0.682    74 N    0.675    69 N    0.674
                            96 N    0.668
    64   6 C    3.934 --    94 C    1.365    65 C    1.362   106 H    0.970
    65   6 C    3.922 --    64 C    1.362    69 N    1.209    66 C    1.172
    66   6 C    3.959 --    67 C    1.651    65 C    1.172   107 H    0.975
    67   6 C    3.961 --    66 C    1.651    68 C    1.174   108 H    0.972
    68   6 C    3.920 --    70 C    1.316    69 N    1.222    67 C    1.174
    69   7 N    3.388 --    68 C    1.222    65 C    1.209    63 Fe   0.674
    70   6 C    3.936 --    71 C    1.333    68 C    1.316    97 C    1.025
    71   6 C    3.916 --    70 C    1.333    74 N    1.200    72 C    1.179
    72   6 C    3.957 --    73 C    1.639    71 C    1.179   109 H    0.973
    73   6 C    3.959 --    72 C    1.639    75 C    1.187   110 H    0.973
    74   7 N    3.389 --    75 C    1.240    71 C    1.200    63 Fe   0.675
    75   6 C    3.903 --    76 C    1.256    74 N    1.240    73 C    1.187
    76   6 C    3.937 --    75 C    1.256    77 C    1.255   140 C    1.195
    77   6 C    3.903 --    76 C    1.255    96 N    1.239    78 C    1.188
    78   6 C    3.959 --    79 C    1.637    77 C    1.188   111 H    0.973
    79   6 C    3.957 --    78 C    1.637    80 C    1.180   112 H    0.973
    80   6 C    3.916 --    81 C    1.329    96 N    1.202    79 C    1.180
    81   6 C    3.936 --    80 C    1.329    91 C    1.315    82 C    1.031
    82   6 C    3.986 --    90 C    1.387    83 C    1.383    81 C    1.031
    83   6 C    3.986 --    84 C    1.465    82 C    1.383   113 H    0.972
                            89 C    0.103
    84   6 C    3.990 --    83 C    1.465    85 C    1.385   114 H    0.968
                            90 C    0.103
    85   6 C    3.982 --    89 C    1.389    84 C    1.385    86 C    1.009
    86   6 C    3.836 --    88 O    1.690    87 O    1.089    85 C    1.009
    87   8 O    2.097 --    86 C    1.089   115 H    0.838    88 O    0.129
    88   8 O    1.958 --    86 C    1.690    87 O    0.129
    89   6 C    3.991 --    90 C    1.461    85 C    1.389   116 H    0.969
                            83 C    0.103
    90   6 C    3.987 --    89 C    1.461    82 C    1.387   117 H    0.972
                            84 C    0.103
    91   6 C    3.920 --    81 C    1.315    95 N    1.223    92 C    1.174
    92   6 C    3.961 --    93 C    1.650    91 C    1.174   118 H    0.973
    93   6 C    3.959 --    92 C    1.650    94 C    1.172   119 H    0.975
    94   6 C    3.922 --    64 C    1.365    95 N    1.207    93 C    1.172
    95   7 N    3.390 --    91 C    1.223    94 C    1.207    63 Fe   0.682
    96   7 N    3.387 --    77 C    1.239    80 C    1.202    63 Fe   0.668
    97   6 C    3.986 --   105 C    1.389    98 C    1.386    70 C    1.025
    98   6 C    3.987 --    99 C    1.464    97 C    1.386   120 H    0.972
                           104 C    0.103
    99   6 C    3.990 --    98 C    1.464   100 C    1.385   121 H    0.968
                           105 C    0.103
   100   6 C    3.984 --   104 C    1.390    99 C    1.385   101 C    1.009
   101   6 C    3.836 --   103 O    1.690   102 O    1.088   100 C    1.009
   102   8 O    2.097 --   101 C    1.088   122 H    0.838   103 O    0.129
   103   8 O    1.958 --   101 C    1.690   102 O    0.129
   104   6 C    3.991 --   105 C    1.460   100 C    1.390   123 H    0.970
                            98 C    0.103
   105   6 C    3.988 --   104 C    1.460    97 C    1.389   124 H    0.972
                            99 C    0.103
   106   1 H    1.000 --    64 C    0.970
   107   1 H    0.997 --    66 C    0.975
   108   1 H    1.004 --    67 C    0.972
   109   1 H    1.004 --    72 C    0.973
   110   1 H    1.001 --    73 C    0.973
   111   1 H    1.001 --    78 C    0.973
   112   1 H    1.004 --    79 C    0.973
   113   1 H    1.004 --    83 C    0.972
   114   1 H    1.005 --    84 C    0.968
   115   1 H    0.873 --    87 O    0.838
   116   1 H    1.005 --    89 C    0.969
   117   1 H    1.004 --    90 C    0.972
   118   1 H    1.004 --    92 C    0.973
   119   1 H    0.997 --    93 C    0.975
   120   1 H    1.003 --    98 C    0.972
   121   1 H    1.005 --    99 C    0.968
   122   1 H    0.873 --   102 O    0.838
   123   1 H    1.005 --   104 C    0.970
   124   1 H    1.003 --   105 C    0.972
   125   6 C    3.870 --   126 C    2.431    14 C    1.192   128 C    0.184
   126   6 C    3.928 --   125 C    2.431   127 C    1.348
   127   6 C    3.884 --   128 C    2.325   126 C    1.348   130 C    0.179
   128   6 C    3.918 --   127 C    2.325   129 C    1.374   125 C    0.184
   129   6 C    3.916 --   130 C    2.324   128 C    1.374   132 C    0.183
   130   6 C    3.885 --   129 C    2.324   131 C    1.350   127 C    0.179
   131   6 C    3.924 --   132 C    2.426   130 C    1.350
   132   6 C    3.870 --   131 C    2.426   142 C    1.198   129 C    0.183
   133   6 C    3.869 --   134 C    2.422   154 C    1.201   136 C    0.183
   134   6 C    3.923 --   133 C    2.422   135 C    1.354
   135   6 C    3.883 --   136 C    2.319   134 C    1.354   138 C    0.179
   136   6 C    3.915 --   135 C    2.319   137 C    1.378   133 C    0.183
   137   6 C    3.917 --   138 C    2.320   136 C    1.378   140 C    0.183
   138   6 C    3.882 --   137 C    2.320   139 C    1.352   135 C    0.179
   139   6 C    3.927 --   140 C    2.426   138 C    1.352
   140   6 C    3.868 --   139 C    2.426    76 C    1.195   137 C    0.183
   141  26 Fe   3.209 --   173 N    0.673   152 N    0.672   147 N    0.661
                           174 N    0.660
   142   6 C    3.928 --   172 C    1.254   143 C    1.252   132 C    1.198
   143   6 C    3.904 --   142 C    1.252   147 N    1.239   144 C    1.190
   144   6 C    3.959 --   145 C    1.634   143 C    1.190   184 H    0.973
   145   6 C    3.959 --   144 C    1.634   146 C    1.183   185 H    0.973
   146   6 C    3.914 --   148 C    1.319   147 N    1.205   145 C    1.183
   147   7 N    3.377 --   143 C    1.239   146 C    1.205   141 Fe   0.661
   148   6 C    3.932 --   149 C    1.322   146 C    1.319   175 C    1.034
   149   6 C    3.914 --   148 C    1.322   152 N    1.203   150 C    1.182
   150   6 C    3.958 --   151 C    1.635   149 C    1.182   186 H    0.973
   151   6 C    3.959 --   150 C    1.635   153 C    1.190   187 H    0.973
   152   7 N    3.382 --   153 C    1.240   149 C    1.203   141 Fe   0.672
   153   6 C    3.903 --   154 C    1.253   152 N    1.240   151 C    1.190
   154   6 C    3.927 --   153 C    1.253   155 C    1.250   133 C    1.201
   155   6 C    3.904 --   154 C    1.250   174 N    1.241   156 C    1.190
   156   6 C    3.959 --   157 C    1.634   155 C    1.190   188 H    0.973
   157   6 C    3.959 --   156 C    1.634   158 C    1.182   189 H    0.973
   158   6 C    3.914 --   159 C    1.321   174 N    1.204   157 C    1.182
   159   6 C    3.932 --   158 C    1.321   169 C    1.320   160 C    1.033
   160   6 C    3.986 --   168 C    1.385   161 C    1.384   159 C    1.033
   161   6 C    3.986 --   162 C    1.464   160 C    1.384   190 H    0.972
                           167 C    0.103
   162   6 C    3.990 --   161 C    1.464   163 C    1.386   191 H    0.968
                           168 C    0.103
   163   6 C    3.982 --   167 C    1.389   162 C    1.386   164 C    1.008
   164   6 C    3.836 --   166 O    1.691   165 O    1.089   163 C    1.008
   165   8 O    2.097 --   164 C    1.089   192 H    0.838   166 O    0.129
   166   8 O    1.959 --   164 C    1.691   165 O    0.129
   167   6 C    3.991 --   168 C    1.461   163 C    1.389   193 H    0.969
                           161 C    0.103
   168   6 C    3.987 --   167 C    1.461   160 C    1.385   194 H    0.972
                           162 C    0.103
   169   6 C    3.914 --   159 C    1.320   173 N    1.204   170 C    1.182
   170   6 C    3.958 --   171 C    1.635   169 C    1.182   195 H    0.973
   171   6 C    3.959 --   170 C    1.635   172 C    1.190   196 H    0.973
   172   6 C    3.904 --   142 C    1.254   173 N    1.238   171 C    1.190
   173   7 N    3.383 --   172 C    1.238   169 C    1.204   141 Fe   0.673
   174   7 N    3.377 --   155 C    1.241   158 C    1.204   141 Fe   0.660
   175   6 C    3.986 --   183 C    1.385   176 C    1.383   148 C    1.034
   176   6 C    3.986 --   177 C    1.464   175 C    1.383   197 H    0.972
                           182 C    0.103
   177   6 C    3.990 --   176 C    1.464   178 C    1.385   198 H    0.968
                           183 C    0.103
   178   6 C    3.982 --   182 C    1.389   177 C    1.385   179 C    1.008
   179   6 C    3.836 --   181 O    1.691   180 O    1.089   178 C    1.008
   180   8 O    2.097 --   179 C    1.089   199 H    0.838   181 O    0.129
   181   8 O    1.959 --   179 C    1.691   180 O    0.129
   182   6 C    3.991 --   183 C    1.461   178 C    1.389   200 H    0.969
                           176 C    0.103
   183   6 C    3.986 --   182 C    1.461   175 C    1.385   201 H    0.972
                           177 C    0.103
   184   1 H    1.001 --   144 C    0.973
   185   1 H    1.003 --   145 C    0.973
   186   1 H    1.003 --   150 C    0.973
   187   1 H    1.001 --   151 C    0.973
   188   1 H    1.001 --   156 C    0.973
   189   1 H    1.003 --   157 C    0.973
   190   1 H    1.004 --   161 C    0.972
   191   1 H    1.005 --   162 C    0.968
   192   1 H    0.873 --   165 O    0.838
   193   1 H    1.005 --   167 C    0.969
   194   1 H    1.004 --   168 C    0.972
   195   1 H    1.003 --   170 C    0.973
   196   1 H    1.001 --   171 C    0.973
   197   1 H    1.004 --   176 C    0.972
   198   1 H    1.005 --   177 C    0.968
   199   1 H    0.872 --   180 O    0.838
   200   1 H    1.005 --   182 C    0.969
   201   1 H    1.004 --   183 C    0.972
 ---------------------------------------------------------------------------

           -------------------------------------------------
          | TOTAL ENERGY             -383.031054656157 Eh   |
          | GRADIENT NORM               0.000927722365 Eh/α |
          | HOMO-LUMO GAP               0.103329506877 eV   |
           -------------------------------------------------

 * finished run on 2022/07/29 at 22:33:26.788
