   * xtb version 6.5.1 (b24c23e) compiled by 'conda@728c89f4b128' on 2022-07-12
          program call               : xtb Zn_Ph3OH_C8_2.xyz --gfn 1 --opt -T 48

   ID    Z sym.   atoms
    1   30 Zn     1, 63
    2    6 C      2-6, 8-11, 13, 15, 17-20, 22-27, 29-32, 34, 36, 38-42,
                  64-68, 70-73, 75, 77, 79-82, 84-89, 91-94, 96, 98, 100-104,
                  125-132
    3    7 N      7, 21, 28, 43, 69, 83, 90, 105
    4    8 O      12, 14, 16, 33, 35, 37, 74, 76, 78, 95, 97, 99
    5    1 H      44-62, 106-124
########################################################################
[WARNING] Please study the warnings concerning your input carefully
-1- prog_main_parseArguments: Unknown option '-T' provided
########################################################################

          :  Hamiltonian                  GFN1-xTB          :
 * total energy  :  -255.5156991 Eh     change        0.3540208E-09 Eh
 * total energy  :  -255.8724497 Eh     change       -0.3567506E+00 Eh
 * total energy  :  -255.9769969 Eh     change       -0.1045472E+00 Eh
 * total energy  :  -256.0207412 Eh     change       -0.4374430E-01 Eh
 * total energy  :  -256.0389171 Eh     change       -0.1817590E-01 Eh
 * total energy  :  -256.0480464 Eh     change       -0.9129334E-02 Eh
 * total energy  :  -256.0529390 Eh     change       -0.4892551E-02 Eh
 * total energy  :  -256.0555586 Eh     change       -0.2619674E-02 Eh
 * total energy  :  -256.0570447 Eh     change       -0.1486103E-02 Eh
 * total energy  :  -256.0584619 Eh     change       -0.1417198E-02 Eh
 * total energy  :  -256.0655532 Eh     change       -0.2560551E-04 Eh
 * total energy  :  -256.0655713 Eh     change       -0.1805020E-04 Eh
 * total energy  :  -256.0655836 Eh     change       -0.1236594E-04 Eh
 * total energy  :  -256.0655954 Eh     change       -0.1174400E-04 Eh
 * total energy  :  -256.0656054 Eh     change       -0.1000439E-04 Eh
 * total energy  :  -256.0656129 Eh     change       -0.7554298E-05 Eh
 * total energy  :  -256.0656200 Eh     change       -0.7096251E-05 Eh
 * total energy  :  -256.0656264 Eh     change       -0.6404918E-05 Eh
 * total energy  :  -256.0656310 Eh     change       -0.4525406E-05 Eh
   *** GEOMETRY OPTIMIZATION CONVERGED AFTER 59 ITERATIONS ***

 final structure:
================
132
 xtb: 6.5.1 (b24c23e)
Zn          13.41891621617616        0.04410278719380       -0.01513062376299
C           10.01568069362085        0.07910631637565       -0.20523285361386
C           10.64364239260470        1.31645334059481       -0.12892764751712
C            9.96737965377760        2.58244488457733       -0.08158185691387
C           10.92384550541516        3.54065621522407        0.00055060827523
C           12.19823078474696        2.87192685591398       -0.00654962662190
N           11.99213757924088        1.52487348641969       -0.07505754138128
C           13.44784953809982        3.50017769869534        0.06788403768606
C           13.46070508986513        4.98487093323322        0.10748049757588
C           12.93047227454597        5.72022041416822       -0.95301635629705
C           12.94574905357242        7.10958568652879       -0.91568123230908
O           12.43871572648833        7.83337619446434       -1.94401649262600
C           13.48775699432032        7.76975795761709        0.18811195691901
O           13.48689214011329        9.14042776609339        0.19868824886209
C           14.01496790793341        7.03613465387601        1.24765303490824
O           14.52674164741649        7.75334636818771        2.29763436513067
C           14.00603290558722        5.64739960636396        1.21076609757735
C           14.68565264532524        2.84850313417519        0.10757236182274
C           15.96687139296356        3.49883763304506        0.12321478158215
C           16.91113467471837        2.52383195525212        0.15225535095621
N           14.87742176003655        1.49215626084368        0.11256502987082
C           16.21829330020231        1.26937171438879        0.14548307442601
C           16.84817499842133        0.00798638611362        0.15864953025255
C           16.19468843046492       -1.24028470664475        0.11737376130944
C           16.86255703403292       -2.50864842191541        0.10946411220198
C           15.90024038497362       -3.46339186742845        0.04090388778606
C           14.63281156756670       -2.78670280236281        0.01277316295062
N           14.85046609177124       -1.43491109740061        0.05684828930175
C           13.38540613227689       -3.41143706105624       -0.08629538459300
C           13.37070940560621       -4.89727987720412       -0.11321211505811
C           13.83064295461501       -5.62207699977736        0.98619883820082
C           13.81245029013732       -7.01174784507760        0.96257585422423
O           14.24838284219842       -7.72613833164577        2.02927345501694
C           13.34151101685134       -7.68186044517011       -0.16753982338527
O           13.33958921181724       -9.05269834029623       -0.16429218502571
C           12.88671965096937       -6.95812372242285       -1.26654204714038
O           12.44389896876092       -7.68492405751535       -2.34117259831416
C           12.89485148638007       -5.56891352276920       -1.24230026255282
C           12.14923882859509       -2.75786206522922       -0.16311749595958
C           10.86482953340193       -3.40367079205948       -0.22526023247886
C            9.92535234346976       -2.42564910852563       -0.26281973660163
C           10.62253852271774       -1.17118718235686       -0.21498841342046
N           11.96633140856667       -1.40588341892223       -0.15532233181252
H            8.93095366241566        0.08982738692045       -0.24998494340835
H            8.89625714981971        2.70954082270247       -0.10111523247619
H           10.78287534845866        4.60723005978200        0.07169774412700
H           12.52208356130300        5.21917896007241       -1.82118837226737
H           12.54238676621202        8.77587373081162       -1.73274037905273
H           13.89837915656182        9.43225001321814        1.02769500271317
H           14.87530439932946        7.16335892234687        2.97872334624708
H           14.40481376925799        5.08327072258321        2.04578160520618
H           16.12416902273496        4.56516727210362        0.09844341895998
H           17.98347126240980        2.63696410316171        0.16899811138683
H           17.93192300316595       -2.64324508304941        0.14577932814880
H           16.03496950439850       -4.53226962398320        0.00094926135619
H           14.18710068406631       -5.11229074011972        1.87195370315766
H           14.15783211451185       -8.67050629755458        1.82034725472031
H           12.98543615048012       -9.35223432378087       -1.01656987177923
H           12.15366954205420       -7.10099625108145       -3.05398547184046
H           12.55072910783998       -5.01212717884796       -2.10605336207399
H           10.70593641892916       -4.47028888410129       -0.22667761365903
H            8.85290033214310       -2.53278657420406       -0.31071764844100
Zn          32.01953071625407       -0.04474143297209       -0.02630955311254
C           35.42474734702257       -0.05756308591842       -0.18826307572680
C           34.79732338556252       -1.29518706352413       -0.26461176275483
C           35.47404441183146       -2.55798323556882       -0.36455617282870
C           34.51770953571894       -3.51913074852181       -0.40174586014617
C           33.24314099074435       -2.85418616064957       -0.33456096755364
N           33.44869922052165       -1.50841656617364       -0.24338952574137
C           31.99394894677555       -3.48710884330121       -0.33563389253112
C           31.98139781077323       -4.96724551617351       -0.46261216942799
C           32.49809453808476       -5.57865264362501       -1.60508182093721
C           32.47945264630251       -6.96343655463843       -1.72433366653604
O           32.97128499933110       -7.56742491365698       -2.83410708241689
C           31.94947293859942       -7.74303280377837       -0.69509097688683
O           31.94680113550291       -9.10620984770610       -0.83913088177987
C           31.43739349962492       -7.13299221190005        0.44700492348478
O           30.93771289283366       -7.96332692967222        1.41633936642620
C           31.44802494996287       -5.74884957438468        0.56592236202751
C           30.75541271729346       -2.84522723860150       -0.22663113676410
C           29.47523948115851       -3.49512315343671       -0.28546346813432
C           28.52940709236601       -2.53022325527321       -0.15346384624207
N           30.56166320609720       -1.49784183432871       -0.07380403092012
C           29.22035974964419       -1.28157980905639       -0.02142485734757
C           28.58853505819510       -0.02990479999376        0.12677480533409
C           29.24061846731468        1.21597500729181        0.22518079812008
C           28.57142590848364        2.47743367286547        0.35092903242929
C           29.53331244242625        3.43395568382819        0.39762880899223
C           30.80163237496880        2.76450914976595        0.30754258624927
N           30.58507138837565        1.41620449396906        0.19863045529144
C           32.04938287291405        3.39602514075406        0.29504306156391
C           32.06290320121219        4.87535461608088        0.43792688949831
C           31.59425011537046        5.46967338837850        1.60952125975600
C           31.61258018321097        6.85291812907893        1.74538142349551
O           31.16890623978011        7.44080807997048        2.88367336358317
C           32.09167133781641        7.64759977697714        0.70280248664350
O           32.09341791848949        9.00911318349536        0.86300336398096
C           32.55470297893197        7.05423634305224       -0.46853745831546
O           33.00501847314438        7.89897516973321       -1.44972837130141
C           32.54710147826748        5.67134696474368       -0.60333809165386
C           33.28721597350350        2.75532377982492        0.16009089007491
C           34.57135427031334        3.40397681017985        0.18831445307777
C           35.51254818791953        2.43677768895900        0.04946908876759
C           34.81651379384441        1.18521779599661       -0.05670285660494
N           33.47183016575021        1.41141782713812        0.01433102425365
H           36.50984891538624       -0.06288639989640       -0.22398871397501
H           36.54532664144100       -2.68179148590881       -0.39411869981237
H           34.65833271447161       -4.58663644615488       -0.45861717692041
H           32.89791967598059       -4.98327546006601       -2.41577288128132
H           32.86654064613860       -8.52753162455471       -2.72964828495868
H           31.54526616023277       -9.48926050666990       -0.04304435203786
H           30.60164477128122       -7.45345321990728        2.16501229527628
H           31.05945472744525       -5.28143698446110        1.46318431520027
H           29.32017462027020       -4.55283397853054       -0.42561007511815
H           27.45717590644314       -2.64564503630740       -0.15266067879672
H           27.50161480293454        2.60717578863669        0.39117828584332
H           29.39805383227776        4.50073086234579        0.47494263986752
H           31.23090303031833        4.86194968158874        2.42817727218438
H           31.26179225459436        8.40278393028224        2.78545755331270
H           32.45257207854050        9.40386320247955        0.05254776625123
H           33.29966969444495        7.40025616905540       -2.22292858014594
H           32.89839124267107        5.21662963127949       -1.52224461623973
H           34.72858509633582        4.46369159517142        0.31169053568337
H           36.58536332650016        2.54871743624611        0.02732976007600
C           18.25220634996873       -0.00443214409102        0.19757650618543
C           19.47677933919472       -0.00835987401949        0.22112310581580
C           20.81890237971292       -0.01298173154792        0.23655598065190
C           22.04970714953739       -0.01406159042356        0.24068703863982
C           23.38721879261799       -0.01575188935022        0.23482956677339
C           24.61797462265050       -0.01547642246097        0.21849773771085
C           25.96002101563881       -0.01759585736233        0.19540533793136
C           27.18448923458853       -0.02376074520959        0.16605108413665

          :  Hamiltonian                  GFN1-xTB          :
         :: total energy            -256.065630962637 Eh    ::
         :: gradient norm              0.000373283338 Eh/a0 ::
         :: HOMO-LUMO gap              1.091941517462 eV    ::
         :: SCC energy              -259.625775654940 Eh    ::
         :: repulsion energy           3.674184402885 Eh    ::

    * Orbital Energies and Occupations

         #    Occupation            Energy/Eh            Energy/eV
      -------------------------------------------------------------
         1        2.0000           -0.8107961             -22.0629
       ...           ...                  ...                  ...
       209        2.0000           -0.4205896             -11.4448
       210        2.0000           -0.4205701             -11.4443
       211        2.0000           -0.4201057             -11.4317
       212        2.0000           -0.4143071             -11.2739
       213        2.0000           -0.4109411             -11.1823
       214        2.0000           -0.4088551             -11.1255
       215        2.0000           -0.4087492             -11.1226
       216        2.0000           -0.4073426             -11.0844
       217        2.0000           -0.4028146             -10.9611
       218        2.0000           -0.3930565             -10.6956
       219        2.0000           -0.3930405             -10.6952
       220        2.0000           -0.3846552             -10.4670
       221        2.0000           -0.3760048             -10.2316 (HOMO)
       222                         -0.3358767              -9.1397 (LUMO)
       223                         -0.3258840              -8.8678
       224                         -0.3254882              -8.8570
       225                         -0.3254260              -8.8553
       226                         -0.2987200              -8.1286
       227                         -0.2957680              -8.0483
       228                         -0.2903380              -7.9005
       229                         -0.2703539              -7.3567
       230                         -0.2523044              -6.8656
       231                         -0.2522707              -6.8646
       232                         -0.2515554              -6.8452
       ...                                ...                  ...
       452                          1.6104425              43.8224
      -------------------------------------------------------------
                  HL-Gap            0.0401281 Eh            1.0919 eV

Wiberg/Mayer (AO) data.
largest (>0.10) Wiberg bond orders for each atom

     #   Z sym  total        # sym  WBO       # sym  WBO       # sym  WBO
 ---------------------------------------------------------------------------
     1  30 Zn   1.997 --     7 N    0.460    43 N    0.459    28 N    0.456
                            21 N    0.456
     2   6 C    3.927 --     3 C    1.358    42 C    1.357    44 H    0.971
     3   6 C    3.922 --     2 C    1.358     7 N    1.232     4 C    1.171
     4   6 C    3.960 --     5 C    1.659     3 C    1.171    45 H    0.976
     5   6 C    3.963 --     4 C    1.659     6 C    1.172    46 H    0.973
     6   6 C    3.917 --     8 C    1.314     7 N    1.244     5 C    1.172
     7   7 N    3.294 --     6 C    1.244     3 C    1.232     1 Zn   0.460
     8   6 C    3.933 --    18 C    1.324     6 C    1.314     9 C    1.028
     9   6 C    3.989 --    10 C    1.398    17 C    1.386     8 C    1.028
    10   6 C    3.977 --     9 C    1.398    11 C    1.380    47 H    0.970
    11   6 C    3.917 --    10 C    1.380    13 C    1.325    12 O    1.051
    12   8 O    2.047 --    11 C    1.051    48 H    0.848
    13   6 C    3.903 --    15 C    1.341    11 C    1.325    14 O    1.020
    14   8 O    2.020 --    13 C    1.020    49 H    0.846
    15   6 C    3.905 --    17 C    1.384    13 C    1.341    16 O    1.013
    16   8 O    2.024 --    15 C    1.013    50 H    0.861
    17   6 C    3.973 --     9 C    1.386    15 C    1.384    51 H    0.969
    18   6 C    3.912 --     8 C    1.324    21 N    1.225    19 C    1.180
    19   6 C    3.960 --    20 C    1.645    18 C    1.180    52 H    0.973
    20   6 C    3.961 --    19 C    1.645    22 C    1.187    53 H    0.974
    21   7 N    3.296 --    22 C    1.264    18 C    1.225     1 Zn   0.456
    22   6 C    3.901 --    21 N    1.264    23 C    1.251    20 C    1.187
    23   6 C    3.938 --    24 C    1.253    22 C    1.251   125 C    1.194
    24   6 C    3.901 --    28 N    1.264    23 C    1.253    25 C    1.185
    25   6 C    3.962 --    26 C    1.647    24 C    1.185    54 H    0.974
    26   6 C    3.960 --    25 C    1.647    27 C    1.178    55 H    0.973
    27   6 C    3.912 --    29 C    1.327    28 N    1.224    26 C    1.178
    28   7 N    3.297 --    24 C    1.264    27 C    1.224     1 Zn   0.456
    29   6 C    3.933 --    27 C    1.327    39 C    1.313    30 C    1.025
    30   6 C    3.989 --    31 C    1.400    38 C    1.388    29 C    1.025
    31   6 C    3.977 --    30 C    1.400    32 C    1.380    56 H    0.970
    32   6 C    3.917 --    31 C    1.380    34 C    1.325    33 O    1.052
    33   8 O    2.047 --    32 C    1.052    57 H    0.848
    34   6 C    3.904 --    36 C    1.342    32 C    1.325    35 O    1.019
    35   8 O    2.020 --    34 C    1.019    58 H    0.847
    36   6 C    3.905 --    38 C    1.384    34 C    1.342    37 O    1.012
    37   8 O    2.024 --    36 C    1.012    59 H    0.861
    38   6 C    3.973 --    30 C    1.388    36 C    1.384    60 H    0.970
    39   6 C    3.917 --    29 C    1.313    43 N    1.244    40 C    1.173
    40   6 C    3.963 --    41 C    1.657    39 C    1.173    61 H    0.974
    41   6 C    3.960 --    40 C    1.657    42 C    1.172    62 H    0.976
    42   6 C    3.922 --     2 C    1.357    43 N    1.233    41 C    1.172
    43   7 N    3.293 --    39 C    1.244    42 C    1.233     1 Zn   0.459
    44   1 H    1.002 --     2 C    0.971
    45   1 H    0.998 --     4 C    0.976
    46   1 H    1.006 --     5 C    0.973
    47   1 H    1.000 --    10 C    0.970
    48   1 H    0.878 --    12 O    0.848
    49   1 H    0.876 --    14 O    0.846
    50   1 H    0.881 --    16 O    0.861
    51   1 H    1.001 --    17 C    0.969
    52   1 H    1.006 --    19 C    0.973
    53   1 H    1.002 --    20 C    0.974
    54   1 H    1.002 --    25 C    0.974
    55   1 H    1.005 --    26 C    0.973
    56   1 H    1.000 --    31 C    0.970
    57   1 H    0.878 --    33 O    0.848
    58   1 H    0.876 --    35 O    0.847
    59   1 H    0.882 --    37 O    0.861
    60   1 H    1.001 --    38 C    0.970
    61   1 H    1.006 --    40 C    0.974
    62   1 H    0.998 --    41 C    0.976
    63  30 Zn   1.997 --    69 N    0.460   105 N    0.459    90 N    0.456
                            83 N    0.456
    64   6 C    3.927 --    65 C    1.358   104 C    1.356   106 H    0.971
    65   6 C    3.922 --    64 C    1.358    69 N    1.233    66 C    1.171
    66   6 C    3.960 --    67 C    1.659    65 C    1.171   107 H    0.976
    67   6 C    3.963 --    66 C    1.659    68 C    1.172   108 H    0.973
    68   6 C    3.917 --    70 C    1.314    69 N    1.244    67 C    1.172
    69   7 N    3.294 --    68 C    1.244    65 C    1.233    63 Zn   0.460
    70   6 C    3.933 --    80 C    1.324    68 C    1.314    71 C    1.027
    71   6 C    3.989 --    72 C    1.399    79 C    1.387    70 C    1.027
    72   6 C    3.977 --    71 C    1.399    73 C    1.380   109 H    0.970
    73   6 C    3.917 --    72 C    1.380    75 C    1.325    74 O    1.051
    74   8 O    2.047 --    73 C    1.051   110 H    0.848
    75   6 C    3.904 --    77 C    1.341    73 C    1.325    76 O    1.020
    76   8 O    2.020 --    75 C    1.020   111 H    0.846
    77   6 C    3.905 --    79 C    1.384    75 C    1.341    78 O    1.013
    78   8 O    2.024 --    77 C    1.013   112 H    0.861
    79   6 C    3.973 --    71 C    1.387    77 C    1.384   113 H    0.969
    80   6 C    3.912 --    70 C    1.324    83 N    1.224    81 C    1.180
    81   6 C    3.960 --    82 C    1.645    80 C    1.180   114 H    0.974
    82   6 C    3.961 --    81 C    1.645    84 C    1.187   115 H    0.974
    83   7 N    3.297 --    84 C    1.264    80 C    1.224    63 Zn   0.456
    84   6 C    3.901 --    83 N    1.264    85 C    1.251    82 C    1.187
    85   6 C    3.938 --    86 C    1.253    84 C    1.251   132 C    1.194
    86   6 C    3.901 --    90 N    1.264    85 C    1.253    87 C    1.186
    87   6 C    3.962 --    88 C    1.647    86 C    1.186   116 H    0.974
    88   6 C    3.960 --    87 C    1.647    89 C    1.178   117 H    0.973
    89   6 C    3.912 --    91 C    1.327    90 N    1.223    88 C    1.178
    90   7 N    3.297 --    86 C    1.264    89 C    1.223    63 Zn   0.456
    91   6 C    3.933 --    89 C    1.327   101 C    1.314    92 C    1.024
    92   6 C    3.989 --    93 C    1.400   100 C    1.388    91 C    1.024
    93   6 C    3.977 --    92 C    1.400    94 C    1.380   118 H    0.970
    94   6 C    3.917 --    93 C    1.380    96 C    1.325    95 O    1.052
    95   8 O    2.047 --    94 C    1.052   119 H    0.848
    96   6 C    3.904 --    98 C    1.342    94 C    1.325    97 O    1.019
    97   8 O    2.020 --    96 C    1.019   120 H    0.847
    98   6 C    3.905 --   100 C    1.384    96 C    1.342    99 O    1.012
    99   8 O    2.024 --    98 C    1.012   121 H    0.861
   100   6 C    3.973 --    92 C    1.388    98 C    1.384   122 H    0.970
   101   6 C    3.917 --    91 C    1.314   105 N    1.244   102 C    1.173
   102   6 C    3.963 --   103 C    1.657   101 C    1.173   123 H    0.974
   103   6 C    3.960 --   102 C    1.657   104 C    1.172   124 H    0.976
   104   6 C    3.922 --    64 C    1.356   105 N    1.233   103 C    1.172
   105   7 N    3.293 --   101 C    1.244   104 C    1.233    63 Zn   0.459
   106   1 H    1.002 --    64 C    0.971
   107   1 H    0.998 --    66 C    0.976
   108   1 H    1.006 --    67 C    0.973
   109   1 H    1.000 --    72 C    0.970
   110   1 H    0.878 --    74 O    0.848
   111   1 H    0.876 --    76 O    0.846
   112   1 H    0.881 --    78 O    0.861
   113   1 H    1.001 --    79 C    0.969
   114   1 H    1.006 --    81 C    0.974
   115   1 H    1.002 --    82 C    0.974
   116   1 H    1.002 --    87 C    0.974
   117   1 H    1.005 --    88 C    0.973
   118   1 H    1.000 --    93 C    0.970
   119   1 H    0.878 --    95 O    0.848
   120   1 H    0.876 --    97 O    0.847
   121   1 H    0.882 --    99 O    0.861
   122   1 H    1.001 --   100 C    0.970
   123   1 H    1.006 --   102 C    0.974
   124   1 H    0.998 --   103 C    0.976
   125   6 C    3.877 --   126 C    2.436    23 C    1.194   128 C    0.186
   126   6 C    3.934 --   125 C    2.436   127 C    1.346
   127   6 C    3.893 --   128 C    2.334   126 C    1.346   130 C    0.182
   128   6 C    3.925 --   127 C    2.334   129 C    1.371   125 C    0.186
   129   6 C    3.925 --   130 C    2.334   128 C    1.371   132 C    0.186
   130   6 C    3.893 --   129 C    2.334   131 C    1.346   127 C    0.182
   131   6 C    3.934 --   132 C    2.436   130 C    1.346
   132   6 C    3.877 --   131 C    2.436    85 C    1.194   129 C    0.186
 ---------------------------------------------------------------------------

           -------------------------------------------------
          | TOTAL ENERGY             -256.065630962637 Eh   |
          | GRADIENT NORM               0.000373283338 Eh/α |
          | HOMO-LUMO GAP               1.091941517462 eV   |
           -------------------------------------------------

 * finished run on 2022/07/30 at 12:37:11.265
