   * xtb version 6.5.1 (b24c23e) compiled by 'conda@728c89f4b128' on 2022-07-12
          program call               : xtb Fe_PhCHO_C2_3.xyz --gfn 1 --opt -T 48

   ID    Z sym.   atoms
    1   26 Fe     1, 61, 125
    2    6 C      2-6, 8-13, 15-19, 21-26, 28-33, 35-40, 62-66, 68-73, 75-79,
                  81-86, 88-93, 95-100, 121-124, 126-130, 132-137, 139-143,
                  145-150, 152-157, 159-164
    3    7 N      7, 20, 27, 41, 67, 80, 87, 101, 131, 144, 151, 165
    4    8 O      14, 34, 74, 94, 138, 158
    5    1 H      42-60, 102-120, 166-183
########################################################################
[WARNING] Please study the warnings concerning your input carefully
-1- prog_main_parseArguments: Unknown option '-T' provided
########################################################################

          :  Hamiltonian                  GFN1-xTB          :
 * total energy  :  -329.0127988 Eh     change        0.1383074E-07 Eh
 * total energy  :  -329.3264555 Eh     change       -0.3136568E+00 Eh
 * total energy  :  -329.4499421 Eh     change       -0.1234866E+00 Eh
 * total energy  :  -329.5009983 Eh     change       -0.5105621E-01 Eh
 * total energy  :  -329.5210743 Eh     change       -0.2007600E-01 Eh
 * total energy  :  -329.5343559 Eh     change       -0.1328165E-01 Eh
 * total energy  :  -329.5423710 Eh     change       -0.8015104E-02 Eh
 * total energy  :  -329.5481930 Eh     change       -0.5821971E-02 Eh
 * total energy  :  -329.5517157 Eh     change       -0.3522704E-02 Eh
 * total energy  :  -329.5538947 Eh     change       -0.2178969E-02 Eh
 * total energy  :  -329.5624405 Eh     change       -0.1387548E-04 Eh
 * total energy  :  -329.5624561 Eh     change       -0.1559407E-04 Eh
 * total energy  :  -329.5624705 Eh     change       -0.1438866E-04 Eh
 * total energy  :  -329.5624924 Eh     change       -0.2194200E-04 Eh
 * total energy  :  -329.5625084 Eh     change       -0.1601066E-04 Eh
 * total energy  :  -329.5624888 Eh     change        0.1966441E-04 Eh
 * total energy  :  -329.5625151 Eh     change       -0.2633917E-04 Eh
 * total energy  :  -329.5625225 Eh     change       -0.7410626E-05 Eh
 * total energy  :  -329.5625268 Eh     change       -0.4251590E-05 Eh
   *** GEOMETRY OPTIMIZATION CONVERGED AFTER 71 ITERATIONS ***

 final structure:
================
183
 xtb: 6.5.1 (b24c23e)
Fe          34.64630395892303        0.01749159433638       -0.08469120098746
C           31.26847457497327        0.06684623517884       -0.30805401596067
C           31.92986775975092        1.27694049466966       -0.26394867470481
C           31.26640682374991        2.54583205245274       -0.29088337742606
C           32.21422808942864        3.48395042131153       -0.05812675035732
C           33.45923467318605        2.78727927129354        0.09306224536766
N           33.27488549687916        1.44049375583216       -0.05857921192756
C           34.65650966550748        3.39666879806219        0.45520861700495
C           34.65839241397542        4.85664229679162        0.71140878113618
C           34.90361823450890        5.34532457877884        1.99746947544628
C           34.90047812531937        6.70611676191027        2.23715433152257
C           34.65888386965089        7.60743783890346        1.19522855553716
C           34.66377679314310        9.05513434500509        1.47680887589583
O           34.86957075229572        9.52324242356822        2.56699266984906
C           34.41847427939690        7.11901574645360       -0.09110268396606
C           34.41561614847082        5.75594499590353       -0.32960818041116
C           35.85212048488184        2.70315976934064        0.57314198875352
C           37.10709094933522        3.32038216566301        0.88537681806828
C           38.05881485774285        2.36927185803720        0.72884691568124
N           36.03912399742860        1.37675551323774        0.26264346817551
C           37.38536741878262        1.17582658338102        0.32225125033542
C           38.05214316780504       -0.00777452307135       -0.02257430973355
C           37.37600505954482       -1.19300061318829       -0.33982037573614
C           38.03997544643497       -2.40856030048084       -0.69242244168456
C           37.08338610876536       -3.36384689120378       -0.78162466933189
C           35.83474002492667       -2.72513109589882       -0.48911770024395
N           36.02803118812243       -1.38386016755969       -0.26405253961623
C           34.61800079740363       -3.39079203260419       -0.41841772259388
C           34.61235073827309       -4.86468330041473       -0.55008341944772
C           33.90823401664149       -5.48161477065838       -1.58799472096172
C           33.90564892410024       -6.85970590381898       -1.71063301399492
C           34.60329997875641       -7.64913561706044       -0.79348044221348
C           34.61111050873990       -9.12038044341145       -0.89785436720521
O           35.19248901239138       -9.84159297591382       -0.12868865587447
C           35.30831288347067       -7.03212207697577        0.24513614543331
C           35.31598602140475       -5.65575746456001        0.36346304400758
C           33.40548926681878       -2.72812945531564       -0.25297027133435
C           32.13126658390080       -3.38332770712333       -0.17722397009570
C           31.19050369807234       -2.40956548706717       -0.17692863795218
C           31.89131433078277       -1.16194332614108       -0.22549397069028
N           33.24547233293018       -1.36940803110980       -0.22909649709093
H           30.18721362640177        0.08280099583618       -0.38555616139728
H           30.20807255651663        2.67969192318484       -0.44842424742106
H           32.09146299361851        4.55200010874778        0.01944793150385
H           35.08163635865215        4.64760659887912        2.80784719743227
H           35.08332247059814        7.09500907507752        3.23311992018841
H           34.46002582970255        9.69279995966027        0.59033444491243
H           34.23464299663649        7.81190667380078       -0.90574764271827
H           34.23960266734468        5.37893426519490       -1.33071213651186
H           37.23520559636921        4.35249623666812        1.16799291889669
H           39.12332477785651        2.45587911710195        0.87229768865832
H           39.10162480425576       -2.50576850750254       -0.84929070781710
H           37.20157329104789       -4.40479325848503       -1.03458339152223
H           33.37736559492064       -4.87099469401449       -2.30960435181404
H           33.36068939789924       -7.33004139284284       -2.52263274176188
H           34.03031620132479       -9.51969452111183       -1.75640664749846
H           35.84585704281737       -7.65335296709193        0.95346602680288
H           35.85385251040447       -5.18040685024069        1.17592457409632
H           31.98722843310568       -4.45048909250963       -0.13031562280023
H           30.11722913920392       -2.50750469561730       -0.14074451177833
Fe          56.32079456025145       -0.05253043110125       -0.10157936978201
C           59.70450363431075       -0.07717967287974       -0.35937420025772
C           59.05418541524946       -1.29308818428450       -0.32722484335570
C           59.73502158875644       -2.55234463212176       -0.35852933415801
C           58.78082652578525       -3.50998126825361       -0.29451959558029
C           57.51706481644400       -2.83247522801754       -0.24678871704013
N           57.69892169838388       -1.47633736199774       -0.24515127576371
C           56.28892240154941       -3.48414229541530       -0.21707280446892
C           56.26992997699450       -4.96530410602155       -0.24521838402209
C           55.75013391131000       -5.68205380447304        0.83661814049316
C           55.72885667408206       -7.06319816125562        0.81180629057228
C           56.22084026540766       -7.75843445387721       -0.29776684041360
C           56.18001612809373       -9.23257551364422       -0.30260852542780
O           55.73681579877099       -9.89193817938117        0.60235926302932
C           56.73801723466863       -7.04272842359543       -1.38008350628507
C           56.76448230780152       -5.65953386637552       -1.35234779605035
C           55.07574294247844       -2.81185621071032       -0.18151143362368
C           53.80325427905905       -3.46757534233620       -0.24363601464183
C           52.86193916977172       -2.49490066161220       -0.20802262773493
N           54.90881601478446       -1.44895726780257       -0.12165965375734
C           53.56013571543324       -1.25021544905312       -0.12490772566359
C           52.90863475740327       -0.01702336734974       -0.00242683442526
C           53.59156049734924        1.19749236050550        0.13354596642151
C           52.92503500456276        2.45295938876340        0.28568982500701
C           53.89020484980316        3.39961566427863        0.35898674482585
C           55.14566168931994        2.71779872525635        0.24646255952611
N           54.94416554709861        1.36480922205376        0.11037355744697
C           56.37056157648507        3.36737215236005        0.20176874431402
C           56.39081932273412        4.84248552376878        0.34173639898169
C           56.81318360523878        5.64617102150863       -0.72030453938912
C           56.82947186647539        7.02382125844346       -0.59195938092753
C           56.42907291458362        7.62356178309836        0.60423376167825
C           56.44348731629454        9.08928185382233        0.76914092594954
O           56.11638116145159        9.65079226343405        1.78271033336876
C           56.00715734861180        6.81859032100055        1.66737115692066
C           55.98475779391467        5.44325778174106        1.53663318911951
C           57.57705280298133        2.70192208303954        0.01168449600516
C           58.85137846705959        3.35881472928149       -0.04459584339951
C           59.78165831642045        2.39236794820086       -0.22325069674526
C           59.07670717722522        1.14644443342817       -0.25578418583876
N           57.72885167933123        1.34802435754775       -0.11344022743449
H           60.78520603235185       -0.08455591540344       -0.44610768398297
H           60.80589631431212       -2.66757703341137       -0.41102058093418
H           58.90864013272100       -4.58004925460251       -0.27586741445652
H           55.37649920005050       -5.14494389871403        1.70101232215741
H           55.33203556318519       -7.62763917316558        1.64878349060517
H           56.59483836167485       -9.69734377814929       -1.22232653370427
H           57.11782254196124       -7.57450882276892       -2.24640516541158
H           57.15427108147871       -5.10598804849935       -2.19911186491427
H           53.65911925861771       -4.53305170087188       -0.31717311631066
H           51.78945804144259       -2.59856997352099       -0.22727900431707
H           51.85554436807895        2.58064640076800        0.32182944850557
H           53.77226512762074        4.46592206889952        0.46095911763225
H           57.11374342043568        5.18317897756088       -1.65338746698832
H           57.15385984676777        7.64142580373511       -1.42311918695777
H           56.78498330109909        9.64586979293035       -0.12943311779045
H           55.69967866197851        7.29349467784064        2.59282134944121
H           55.66643514436057        4.82041352581511        2.36485267750884
H           59.00281435856385        4.42164587974431        0.05087450964378
H           60.85166324749258        2.49220233763843       -0.31217828635313
C           39.45499084234608       -0.01036144511367       -0.02718459494129
C           40.67446686537291       -0.00930515892434       -0.02910555816246
C           50.28602733541906        0.00661624856077       -0.00092538299106
C           51.50501696612852       -0.00167856350028        0.00202073439673
Fe          45.48045525071407        0.00371378154451       -0.02855143487149
C           42.07606576381066       -0.00735728232632       -0.02355633083591
C           42.75098230663366        1.22167793135045        0.01689861577603
C           42.10067201423092        2.49298165123221       -0.01446396726827
C           43.05333339939835        3.42480510744226        0.23933292266840
C           44.28214061607650        2.71509884761502        0.42842546663865
N           44.08922334443910        1.37102928034959        0.22738656788771
C           45.47059023981505        3.29287940308822        0.86281278994513
C           45.46660234391914        4.72272395931283        1.23943138746890
C           46.31236077965121        5.62769367344294        0.59026720786994
C           46.30525800866826        6.96358598717202        0.94184662381260
C           45.45931879643641        7.42403402405838        1.95604272229300
C           45.47552343000932        8.85532112740488        2.31478485596300
O           46.17460995701936        9.67084976141232        1.77134818066479
C           44.61657378750556        6.52061981564853        2.60749782152721
C           44.61714947048142        5.18429302405634        2.24905043233175
C           46.66373467279539        2.58363523517422        0.95260076556611
C           47.89339831655710        3.12113122270019        1.45200844450504
C           48.85300208320604        2.19618387511622        1.20082103035854
N           46.86232790437139        1.31360199323497        0.47043578246410
C           48.20512658075607        1.09651764954532        0.55910138497338
C           48.88394802537773        0.00629429629580       -0.00269999430356
C           48.21155045275252       -1.08749312341160       -0.56637776817106
C           48.86494937050281       -2.18153161969828       -1.21181742511429
C           47.91110219933735       -3.11361347135185       -1.45993031882045
C           46.67936938435608       -2.58490532242814       -0.95706022136987
N           46.87180401956770       -1.31681767834932       -0.46821679462317
C           45.48832326247136       -3.29828478396936       -0.87115456333597
C           45.48747680533954       -4.72530128581292       -1.25824894857612
C           46.33185088941864       -5.63430442519450       -0.61440229024753
C           46.32984358136064       -6.96966928398521       -0.97655395912244
C           45.48944081708388       -7.42064886045421       -1.99693250594938
C           45.47271133435106       -8.83750099621827       -2.40870567506588
O           44.77451581865450       -9.26736556779584       -3.29020429358912
C           44.64712912650344       -6.51060610856469       -2.64392325686459
C           44.64258129449230       -5.17914468884550       -2.27608840832154
C           44.29608541662640       -2.72356673358249       -0.44376069702385
C           43.06670269175268       -3.43657159497440       -0.27031484021859
C           42.10809003731418       -2.50697989898857       -0.03280323305069
C           42.75549033840662       -1.23386999876154       -0.05590608419593
N           44.09811084762391       -1.38026012725214       -0.23996182600297
H           41.05151054842087        2.64260155706514       -0.20989095119713
H           42.94279186140579        4.49579817246952        0.28852426009497
H           46.96017072230278        5.27566740360839       -0.20453592324440
H           46.95307186431038        7.67342467828345        0.43879096069924
H           44.78082949613649        9.12761334751477        3.13737352317091
H           43.95968782613726        6.86892277908782        3.39782845074801
H           43.97088723891747        4.48280339268464        2.76448920363026
H           48.00029585755417        4.07950748032649        1.93326123374594
H           49.90568067097783        2.24291653393027        1.42723914041362
H           49.91654536020454       -2.21943862771748       -1.44472011666538
H           48.02298321469797       -4.07012343256515       -1.94386737162321
H           46.97656159852549       -5.28899129922986        0.18590388386078
H           46.98331270817167       -7.66990575959360       -0.46659446993954
H           46.16477137516983       -9.48829622007824       -1.83340892842122
H           44.00074415660323       -6.86941738022916       -3.43767119194835
H           43.99797850218386       -4.47343358113829       -2.78771893106898
H           42.95965168572266       -4.50779685696906       -0.32086587303834
H           41.05626102037555       -2.65889421071581        0.14532334597161

          :  Hamiltonian                  GFN1-xTB          :
         :: total energy            -329.562526769091 Eh    ::
         :: gradient norm              0.000484128282 Eh/a0 ::
         :: HOMO-LUMO gap              0.055185020032 eV    ::
         :: SCC energy              -334.561071551182 Eh    ::
         :: repulsion energy           5.170677705912 Eh    ::

    * Orbital Energies and Occupations

         #    Occupation            Energy/Eh            Energy/eV
      -------------------------------------------------------------
         1        2.0000           -0.7955170             -21.6471
       ...           ...                  ...                  ...
       288        2.0000           -0.4115133             -11.1978
       289        2.0000           -0.4114184             -11.1953
       290        1.9999           -0.4075677             -11.0905
       291        1.9937           -0.4029696             -10.9654
       292        1.9927           -0.4028422             -10.9619
       293        1.9912           -0.4026536             -10.9568
       294        1.9649           -0.4013321             -10.9208
       295        1.9574           -0.4011439             -10.9157
       296        1.9566           -0.4011269             -10.9152
       297        1.9556           -0.4011027             -10.9146
       298        1.9524           -0.4010355             -10.9127
       299        1.9520           -0.4010275             -10.9125
       300        1.2786           -0.3980512             -10.8315 (HOMO)
       301        0.3466           -0.3960232             -10.7763 (LUMO)
       302        0.3437           -0.3960136             -10.7761
       303        0.3147           -0.3959133             -10.7734
       304                         -0.3588949              -9.7660
       305                         -0.3487417              -9.4897
       306                         -0.3465296              -9.4296
       307                         -0.3454789              -9.4010
       308                         -0.3451184              -9.3911
       309                         -0.3352710              -9.1232
       310                         -0.3319223              -9.0321
       311                         -0.3300433              -8.9809
       ...                                ...                  ...
       635                          1.3179553              35.8634
      -------------------------------------------------------------
                  HL-Gap            0.0020280 Eh            0.0552 eV

Wiberg/Mayer (AO) data.
largest (>0.10) Wiberg bond orders for each atom

     #   Z sym  total        # sym  WBO       # sym  WBO       # sym  WBO
 ---------------------------------------------------------------------------
     1  26 Fe   3.106 --    41 N    0.664     7 N    0.662    20 N    0.657
                            27 N    0.656
     2   6 C    3.916 --     3 C    1.364    40 C    1.361    42 H    0.970
     3   6 C    3.924 --     2 C    1.364     7 N    1.208     4 C    1.172
     4   6 C    3.959 --     5 C    1.651     3 C    1.172    43 H    0.975
     5   6 C    3.962 --     4 C    1.651     6 C    1.174    44 H    0.973
     6   6 C    3.920 --     8 C    1.310     7 N    1.227     5 C    1.174
     7   7 N    3.376 --     6 C    1.227     3 C    1.208     1 Fe   0.662
     8   6 C    3.918 --    17 C    1.337     6 C    1.310     9 C    1.025
     9   6 C    3.986 --    16 C    1.386    10 C    1.383     8 C    1.025
    10   6 C    3.988 --    11 C    1.469     9 C    1.383    45 H    0.972
                            15 C    0.101
    11   6 C    3.988 --    10 C    1.469    12 C    1.371    46 H    0.968
                            16 C    0.101
    12   6 C    3.985 --    15 C    1.380    11 C    1.371    13 C    1.048
    13   6 C    3.864 --    14 O    1.810    12 C    1.048    47 H    0.942
    14   8 O    2.005 --    13 C    1.810
    15   6 C    3.993 --    16 C    1.464    12 C    1.380    48 H    0.971
                            10 C    0.101
    16   6 C    3.988 --    15 C    1.464     9 C    1.386    49 H    0.972
                            11 C    0.101
    17   6 C    3.917 --     8 C    1.337    20 N    1.197    18 C    1.178
    18   6 C    3.956 --    19 C    1.639    17 C    1.178    50 H    0.973
    19   6 C    3.961 --    18 C    1.639    21 C    1.188    51 H    0.969
    20   7 N    3.375 --    21 C    1.250    17 C    1.197     1 Fe   0.657
    21   6 C    3.907 --    20 N    1.250    22 C    1.248    19 C    1.188
    22   6 C    3.917 --    23 C    1.252    21 C    1.248   121 C    1.200
    23   6 C    3.907 --    22 C    1.252    27 N    1.245    24 C    1.188
    24   6 C    3.961 --    25 C    1.637    23 C    1.188    52 H    0.969
    25   6 C    3.956 --    24 C    1.637    26 C    1.179    53 H    0.973
    26   6 C    3.918 --    28 C    1.329    27 N    1.203    25 C    1.179
    27   7 N    3.375 --    23 C    1.245    26 C    1.203     1 Fe   0.656
    28   6 C    3.918 --    26 C    1.329    37 C    1.310    29 C    1.035
    29   6 C    3.986 --    30 C    1.382    36 C    1.379    28 C    1.035
    30   6 C    3.986 --    31 C    1.465    29 C    1.382    54 H    0.971
                            35 C    0.101
    31   6 C    3.993 --    30 C    1.465    32 C    1.379    55 H    0.971
    32   6 C    3.983 --    31 C    1.379    35 C    1.370    33 C    1.047
    33   6 C    3.864 --    34 O    1.810    32 C    1.047    56 H    0.942
    34   8 O    2.005 --    33 C    1.810
    35   6 C    3.988 --    36 C    1.471    32 C    1.370    57 H    0.967
                            30 C    0.101
    36   6 C    3.986 --    35 C    1.471    29 C    1.379    58 H    0.972
    37   6 C    3.920 --    28 C    1.310    41 N    1.225    38 C    1.174
    38   6 C    3.962 --    39 C    1.649    37 C    1.174    59 H    0.972
    39   6 C    3.959 --    38 C    1.649    40 C    1.173    60 H    0.975
    40   6 C    3.923 --     2 C    1.361    41 N    1.210    39 C    1.173
    41   7 N    3.377 --    37 C    1.225    40 C    1.210     1 Fe   0.664
    42   1 H    1.000 --     2 C    0.970
    43   1 H    0.997 --     4 C    0.975
    44   1 H    1.004 --     5 C    0.973
    45   1 H    1.003 --    10 C    0.972
    46   1 H    1.005 --    11 C    0.968
    47   1 H    1.010 --    13 C    0.942
    48   1 H    1.000 --    15 C    0.971
    49   1 H    1.003 --    16 C    0.972
    50   1 H    1.004 --    18 C    0.973
    51   1 H    1.005 --    19 C    0.969
    52   1 H    1.005 --    24 C    0.969
    53   1 H    1.003 --    25 C    0.973
    54   1 H    1.004 --    30 C    0.971
    55   1 H    1.000 --    31 C    0.971
    56   1 H    1.010 --    33 C    0.942
    57   1 H    1.005 --    35 C    0.967
    58   1 H    1.004 --    36 C    0.972
    59   1 H    1.004 --    38 C    0.972
    60   1 H    0.997 --    39 C    0.975
    61  26 Fe   3.080 --   101 N    0.660    67 N    0.660    87 N    0.654
                            80 N    0.654
    62   6 C    3.916 --   100 C    1.364    63 C    1.363   102 H    0.970
    63   6 C    3.924 --    62 C    1.363    67 N    1.211    64 C    1.172
    64   6 C    3.959 --    65 C    1.651    63 C    1.172   103 H    0.975
    65   6 C    3.962 --    64 C    1.651    66 C    1.174   104 H    0.972
    66   6 C    3.920 --    68 C    1.312    67 N    1.227    65 C    1.174
    67   7 N    3.376 --    66 C    1.227    63 C    1.211    61 Fe   0.660
    68   6 C    3.918 --    77 C    1.333    66 C    1.312    69 C    1.029
    69   6 C    3.986 --    76 C    1.385    70 C    1.381    68 C    1.029
    70   6 C    3.987 --    71 C    1.470    69 C    1.381   105 H    0.972
                            75 C    0.100
    71   6 C    3.988 --    70 C    1.470    72 C    1.370   106 H    0.968
                            76 C    0.101
    72   6 C    3.984 --    75 C    1.379    71 C    1.370    73 C    1.048
    73   6 C    3.864 --    74 O    1.809    72 C    1.048   107 H    0.942
    74   8 O    2.005 --    73 C    1.809
    75   6 C    3.993 --    76 C    1.464    72 C    1.379   108 H    0.971
                            70 C    0.100
    76   6 C    3.987 --    75 C    1.464    69 C    1.385   109 H    0.972
                            71 C    0.101
    77   6 C    3.917 --    68 C    1.333    80 N    1.202    78 C    1.178
    78   6 C    3.956 --    79 C    1.639    77 C    1.178   110 H    0.973
    79   6 C    3.961 --    78 C    1.639    81 C    1.187   111 H    0.970
    80   7 N    3.375 --    81 C    1.247    77 C    1.202    61 Fe   0.654
    81   6 C    3.908 --    82 C    1.252    80 N    1.247    79 C    1.187
    82   6 C    3.918 --    83 C    1.253    81 C    1.252   124 C    1.196
    83   6 C    3.908 --    82 C    1.253    87 N    1.248    84 C    1.186
    84   6 C    3.961 --    85 C    1.640    83 C    1.186   112 H    0.970
    85   6 C    3.956 --    84 C    1.640    86 C    1.177   113 H    0.972
    86   6 C    3.917 --    88 C    1.335    87 N    1.201    85 C    1.177
    87   7 N    3.375 --    83 C    1.248    86 C    1.201    61 Fe   0.654
    88   6 C    3.918 --    86 C    1.335    97 C    1.311    89 C    1.028
    89   6 C    3.986 --    90 C    1.385    96 C    1.382    88 C    1.028
    90   6 C    3.987 --    91 C    1.464    89 C    1.385   114 H    0.972
                            95 C    0.101
    91   6 C    3.993 --    90 C    1.464    92 C    1.380   115 H    0.971
                            96 C    0.100
    92   6 C    3.984 --    91 C    1.380    95 C    1.371    93 C    1.047
    93   6 C    3.864 --    94 O    1.811    92 C    1.047   116 H    0.942
    94   8 O    2.006 --    93 C    1.811
    95   6 C    3.988 --    96 C    1.469    92 C    1.371   117 H    0.967
                            90 C    0.101
    96   6 C    3.987 --    95 C    1.469    89 C    1.382   118 H    0.972
                            91 C    0.100
    97   6 C    3.920 --    88 C    1.311   101 N    1.228    98 C    1.174
    98   6 C    3.962 --    99 C    1.651    97 C    1.174   119 H    0.972
    99   6 C    3.959 --    98 C    1.651   100 C    1.172   120 H    0.975
   100   6 C    3.924 --    62 C    1.364   101 N    1.210    99 C    1.172
   101   7 N    3.377 --    97 C    1.228   100 C    1.210    61 Fe   0.660
   102   1 H    1.000 --    62 C    0.970
   103   1 H    0.997 --    64 C    0.975
   104   1 H    1.004 --    65 C    0.972
   105   1 H    1.003 --    70 C    0.972
   106   1 H    1.005 --    71 C    0.968
   107   1 H    1.010 --    73 C    0.942
   108   1 H    1.000 --    75 C    0.971
   109   1 H    1.003 --    76 C    0.972
   110   1 H    1.004 --    78 C    0.973
   111   1 H    1.005 --    79 C    0.970
   112   1 H    1.005 --    84 C    0.970
   113   1 H    1.004 --    85 C    0.972
   114   1 H    1.003 --    90 C    0.972
   115   1 H    1.000 --    91 C    0.971
   116   1 H    1.010 --    93 C    0.942
   117   1 H    1.004 --    95 C    0.967
   118   1 H    1.003 --    96 C    0.972
   119   1 H    1.004 --    98 C    0.972
   120   1 H    0.997 --    99 C    0.975
   121   6 C    3.916 --   122 C    2.540    22 C    1.200
   122   6 C    3.922 --   121 C    2.540   126 C    1.205
   123   6 C    3.923 --   124 C    2.543   146 C    1.201
   124   6 C    3.915 --   123 C    2.543    82 C    1.196
   125  26 Fe   3.104 --   165 N    0.654   144 N    0.654   131 N    0.648
                           151 N    0.648
   126   6 C    3.904 --   164 C    1.246   127 C    1.245   122 C    1.205
   127   6 C    3.908 --   131 N    1.246   126 C    1.245   128 C    1.193
   128   6 C    3.960 --   129 C    1.630   127 C    1.193   166 H    0.970
   129   6 C    3.958 --   128 C    1.630   130 C    1.185   167 H    0.973
   130   6 C    3.916 --   132 C    1.317   131 N    1.205   129 C    1.185
   131   7 N    3.364 --   127 C    1.246   130 C    1.205   125 Fe   0.648
   132   6 C    3.912 --   141 C    1.318   130 C    1.317   133 C    1.038
   133   6 C    3.986 --   140 C    1.381   134 C    1.378   132 C    1.038
   134   6 C    3.986 --   135 C    1.471   133 C    1.378   168 H    0.971
                           139 C    0.100
   135   6 C    3.988 --   134 C    1.471   136 C    1.371   169 H    0.967
                           140 C    0.101
   136   6 C    3.982 --   139 C    1.380   135 C    1.371   137 C    1.046
   137   6 C    3.864 --   138 O    1.812   136 C    1.046   170 H    0.942
   138   8 O    2.007 --   137 C    1.812
   139   6 C    3.993 --   140 C    1.465   136 C    1.380   171 H    0.971
                           134 C    0.100
   140   6 C    3.986 --   139 C    1.465   133 C    1.381   172 H    0.971
                           135 C    0.101
   141   6 C    3.915 --   132 C    1.318   144 N    1.205   142 C    1.184
   142   6 C    3.958 --   143 C    1.632   141 C    1.184   173 H    0.973
   143   6 C    3.960 --   142 C    1.632   145 C    1.192   174 H    0.970
   144   7 N    3.367 --   145 C    1.245   141 C    1.205   125 Fe   0.654
   145   6 C    3.909 --   146 C    1.248   144 N    1.245   143 C    1.192
   146   6 C    3.904 --   145 C    1.248   147 C    1.246   123 C    1.201
   147   6 C    3.909 --   146 C    1.246   151 N    1.245   148 C    1.193
   148   6 C    3.960 --   149 C    1.630   147 C    1.193   175 H    0.970
   149   6 C    3.958 --   148 C    1.630   150 C    1.185   176 H    0.973
   150   6 C    3.916 --   152 C    1.316   151 N    1.205   149 C    1.185
   151   7 N    3.364 --   147 C    1.245   150 C    1.205   125 Fe   0.648
   152   6 C    3.912 --   161 C    1.318   150 C    1.316   153 C    1.038
   153   6 C    3.986 --   154 C    1.382   160 C    1.378   152 C    1.038
   154   6 C    3.986 --   155 C    1.465   153 C    1.382   177 H    0.971
                           159 C    0.101
   155   6 C    3.993 --   154 C    1.465   156 C    1.380   178 H    0.971
                           160 C    0.100
   156   6 C    3.982 --   155 C    1.380   159 C    1.371   157 C    1.046
   157   6 C    3.863 --   158 O    1.812   156 C    1.046   179 H    0.942
   158   8 O    2.006 --   157 C    1.812
   159   6 C    3.988 --   160 C    1.471   156 C    1.371   180 H    0.967
                           154 C    0.101
   160   6 C    3.986 --   159 C    1.471   153 C    1.378   181 H    0.971
                           155 C    0.100
   161   6 C    3.915 --   152 C    1.318   165 N    1.204   162 C    1.184
   162   6 C    3.958 --   163 C    1.631   161 C    1.184   182 H    0.973
   163   6 C    3.960 --   162 C    1.631   164 C    1.192   183 H    0.969
   164   6 C    3.908 --   126 C    1.246   165 N    1.246   163 C    1.192
   165   7 N    3.367 --   164 C    1.246   161 C    1.204   125 Fe   0.654
   166   1 H    1.004 --   128 C    0.970
   167   1 H    1.003 --   129 C    0.973
   168   1 H    1.004 --   134 C    0.971
   169   1 H    1.004 --   135 C    0.967
   170   1 H    1.010 --   137 C    0.942
   171   1 H    1.000 --   139 C    0.971
   172   1 H    1.004 --   140 C    0.971
   173   1 H    1.003 --   142 C    0.973
   174   1 H    1.004 --   143 C    0.970
   175   1 H    1.004 --   148 C    0.970
   176   1 H    1.003 --   149 C    0.973
   177   1 H    1.004 --   154 C    0.971
   178   1 H    1.000 --   155 C    0.971
   179   1 H    1.010 --   157 C    0.942
   180   1 H    1.004 --   159 C    0.967
   181   1 H    1.004 --   160 C    0.971
   182   1 H    1.003 --   162 C    0.973
   183   1 H    1.004 --   163 C    0.969
 ---------------------------------------------------------------------------

           -------------------------------------------------
          | TOTAL ENERGY             -329.562526769091 Eh   |
          | GRADIENT NORM               0.000484128282 Eh/α |
          | HOMO-LUMO GAP               0.055185020032 eV   |
           -------------------------------------------------

 * finished run on 2022/07/29 at 16:04:05.315
