   * xtb version 6.5.1 (b24c23e) compiled by 'conda@728c89f4b128' on 2022-07-12
          program call               : xtb Fe_H_C4_4.xyz --gfn 1 --opt -T 48

   ID    Z sym.   atoms
    1   26 Fe     1, 37, 85, 120
    2    6 C      2-6, 8-11, 13-18, 20-24, 38-42, 44-47, 49-54, 56-60, 73-84,
                  86-90, 92-95, 97-102, 104-108, 121-125, 127-130, 132-137,
                  139-143
    3    7 N      7, 12, 19, 25, 43, 48, 55, 61, 91, 96, 103, 109, 126, 131,
                  138, 144
    4    1 H      26-36, 62-72, 110-119, 145-154

          :  Hamiltonian                  GFN1-xTB          :
 * total energy  :  -275.9829634 Eh     change       -0.8726090E-08 Eh
 * total energy  :  -278.7905302 Eh     change       -0.2807567E+01 Eh
 * total energy  :  -279.1962188 Eh     change       -0.4056886E+00 Eh
 * total energy  :  -279.4204881 Eh     change       -0.2242693E+00 Eh
 * total energy  :  -279.5455722 Eh     change       -0.1250841E+00 Eh
 * total energy  :  -279.6410004 Eh     change       -0.9542826E-01 Eh
 * total energy  :  -279.7266700 Eh     change       -0.8566955E-01 Eh
 * total energy  :  -279.7783504 Eh     change       -0.5168038E-01 Eh
 * total energy  :  -279.8102837 Eh     change       -0.3193329E-01 Eh
 * total energy  :  -279.8358947 Eh     change       -0.2561099E-01 Eh
 * total energy  :  -279.9094156 Eh     change       -0.1383922E-04 Eh
 * total energy  :  -279.9094340 Eh     change       -0.1838859E-04 Eh
 * total energy  :  -279.9094625 Eh     change       -0.2853482E-04 Eh
 * total energy  :  -279.9094972 Eh     change       -0.3470070E-04 Eh
 * total energy  :  -279.9095064 Eh     change       -0.9138469E-05 Eh
 * total energy  :  -279.9095013 Eh     change        0.5097498E-05 Eh
 * total energy  :  -279.9095062 Eh     change       -0.4961124E-05 Eh
 * total energy  :  -279.9095253 Eh     change       -0.1909026E-04 Eh
 * total energy  :  -279.9095301 Eh     change       -0.4748136E-05 Eh
   *** GEOMETRY OPTIMIZATION CONVERGED AFTER 48 ITERATIONS ***

 final structure:
================
154
 xtb: 6.5.1 (b24c23e)
Fe          24.24950209199395       -0.02807825727584       -0.02516039404359
C           20.83700443255310       -0.04577719231008       -0.04828458296315
C           21.49517061574325       -0.90135476222644       -0.90797764655914
C           20.82750077567785       -1.79561296598138       -1.80826812207734
C           21.79420331829421       -2.46765889084447       -2.47642716359650
C           23.04931447229249       -1.98196791536900       -1.98228450707994
N           22.85398635111875       -1.02476678182178       -1.02484278794003
C           24.27549416759929       -2.43781098368179       -2.42603355471321
C           25.48928557384743       -1.98109799377444       -1.96092022476117
C           26.75254578511914       -2.46511653516927       -2.43132634343899
C           27.70601869088407       -1.78354285696784       -1.75240150730505
N           25.67123155603409       -1.01389177452966       -1.00150820415520
C           27.02083069592945       -0.88705166988752       -0.87106247997118
C           27.68154937786608       -0.00620207654342       -0.00540112069483
C           26.99985314080354        0.86540103861409        0.85303677727769
C           27.66364217244385        1.76878505612493        1.74375876296352
C           26.69399358874503        2.43782302440658        2.41202635654304
C           25.44235062684713        1.93966022275564        1.92546913785248
N           25.64734306893215        0.97501601190317        0.96821132295242
C           24.21766532914391        2.38250112638538        2.37508273311053
C           23.00248685558931        1.91334172858047        1.91527067733617
C           21.73580993041086        2.38486386107820        2.39341525795785
C           20.78528771479510        1.70275462749544        1.71239622099347
C           21.47434993273658        0.81650247199521        0.82032252526155
N           22.83010335217442        0.95382634209059        0.95579282400812
H           19.75288274213227       -0.05192831763404       -0.05527690087366
H           19.75626146870147       -1.88138178132681       -1.90016636251240
H           21.68999835192905       -3.22559263454889       -3.23671633751193
H           24.28322837456011       -3.20640956288822       -3.19081893843534
H           26.87295663153681       -3.22757568668363       -3.18446037567604
H           28.77841168387445       -1.86617024895994       -1.82849956064304
H           28.73401094787008        1.86418626461836        1.83236760415454
H           26.79615223623398        3.20075051172145        3.16737118091337
H           24.20689869725873        3.15029504451909        3.14063500397320
H           21.61347397098355        3.14137154363204        3.15241800896620
H           19.71207311886238        1.77691766935668        1.79025116318986
Fe          64.64965863186315        0.00674377377021       -0.01106986520612
C           68.06086839460347        0.04297124563131       -0.01947058804431
C           67.39946798632890        1.25201361874986       -0.09044724439548
C           68.06294208491799        2.52067161904585       -0.17042525659040
C           67.09424084145661        3.46628509352553       -0.17772684868107
C           65.84164431858611        2.77290631834476       -0.10208659254111
N           66.04064409017428        1.41982562702760       -0.06225402815766
C           64.61608947978748        3.40698087983567       -0.04432477435334
C           63.40572707681125        2.75194300492850        0.02819409635005
C           62.14244410841864        3.42337511311464        0.09626775652846
C           61.19112617938841        2.45927139423324        0.11225048018166
N           63.22669721314246        1.38973183066625        0.01472103497042
C           61.87715133679134        1.20408079911678        0.05206136567700
C           61.21977122096726       -0.02988993851364       -0.01280222120475
C           61.90395696740462       -1.24934990149957       -0.07385414663531
C           61.24433664597277       -2.51895673503395       -0.13041849771408
C           62.21549831922264       -3.46282889224966       -0.10808158792863
C           63.46434473409521       -2.76489389840982       -0.04065322970543
N           63.25677752769271       -1.40653192108521       -0.03306023296208
C           64.68849386373986       -3.39337611934956        0.03352716613441
C           65.90038954583605       -2.73291569298711        0.08441581705962
C           67.16771575943788       -3.39951581120817        0.15596543522819
C           68.11629363032736       -2.43386223906822        0.13816574846369
C           67.42581090117818       -1.17976479075285        0.05728166110987
N           66.07068677556030       -1.37622495930000        0.03768236138804
H           69.14493844273683        0.05450452046822       -0.02299059258282
H           69.13325910256412        2.64775749911216       -0.21113886347085
H           67.19581632649032        4.53901496322867       -0.22592116809542
H           64.60529384758954        4.49113412622348       -0.05506510586828
H           62.02040310754914        4.49455755493360        0.12410603320180
H           60.11929017119479        2.56893201621237        0.15516537462366
H           60.17509201083285       -2.65077258761712       -0.17514273517758
H           62.11572302408839       -4.53641998758661       -0.13153213856043
H           64.70137485664127       -4.47746354850451        0.04866692119853
H           67.29179385366444       -4.46966842814317        0.20849909303256
H           69.18926256310502       -2.53828151265183        0.17309061171055
C           30.30617052148161        0.00758626583799        0.01103160204732
C           29.08222606256414        0.00195812766370        0.00343427772908
C           31.65212683183907        0.01535517742424        0.01388062579390
C           32.87632034276854        0.02053975486706        0.01614602749672
C           43.77863491007097       -0.01858855434208       -0.01641974675477
C           42.55374581183388       -0.01687432423413       -0.01748654514410
C           45.12313546605467       -0.02632906683084       -0.01971797824691
C           46.34797923615987       -0.03444601959326       -0.02719456214404
C           57.24669446628121       -0.06879200677706       -0.02516188819079
C           56.02319614919771       -0.07341796034778       -0.02809865007995
C           58.59412324185531       -0.06007916049633       -0.02327811917456
C           59.81729212064412       -0.04510220681767       -0.01528911621633
Fe          37.71589849663756        0.00132093811392        0.00157409258720
C           34.27603667916640        0.01510160268340        0.01359881439685
C           34.95502164330400        0.92216850103392        0.83806529903176
C           34.28862272627278        1.85939095413809        1.68953300057865
C           35.25729070747835        2.56415979669582        2.32321309088380
C           36.50827107512569        2.05179040294664        1.85327324148872
N           36.30726121096126        1.04379296931734        0.94344833930092
C           37.73394975907841        2.52728665673410        2.27238586116831
C           38.95228125006648        2.05117075115098        1.83629250801784
C           40.21093148138106        2.56227456572276        2.28753378011169
C           41.16933017786308        1.84981833784967        1.64723350951984
N           39.13956892705946        1.03739348310937        0.92866007148480
C           40.48916976819900        0.90934837442070        0.80985284816472
C           41.15547476352393       -0.01083464471593       -0.01173305058788
C           40.47568543822716       -0.92588668135802       -0.82799371280807
C           41.14281351102284       -1.87101799641673       -1.67064691862213
C           40.17460203958316       -2.57654349907379       -2.30375690778659
C           38.92309970263900       -2.05665744539855       -1.84276052051700
N           39.12438944436126       -1.04448824620136       -0.93639055374839
C           37.69820941853351       -2.52498962196089       -2.26876811294003
C           36.47931098571551       -2.04080618162378       -1.84014713629069
C           35.22110275394638       -2.54430328683001       -2.30002921742458
C           34.26255356602130       -1.83079459081649       -1.66079725602202
C           34.94233013492075       -0.89785705596521       -0.81512667499667
N           36.29266083801780       -1.03033771667720       -0.92983021274321
H           33.21809326079194        1.95225975043364        1.77817242918743
H           35.15356191642879        3.35976008267683        3.04374518605661
H           37.73915243980353        3.33371696452714        2.99752610453038
H           40.32617658445302        3.36213106179467        3.00158755560308
H           42.24114433510226        1.93922333508405        1.72291115201599
H           42.21339471523429       -1.96779576782669       -1.75430074347074
H           40.27845489064258       -3.37686282938234       -3.01902381912982
H           37.69220080509372       -3.33200724053881       -2.99322617285446
H           35.10590282555512       -3.34029126202117       -3.01838022836598
H           33.19079025270106       -1.91560334371200       -1.74189280116712
Fe          51.18421267695937       -0.05242496735188       -0.03150824362757
C           47.74630032028769       -0.04050881167380       -0.02815111458494
C           48.42364184154068        0.86583356803480        0.79981259323123
C           47.75553641440920        1.79801836871847        1.65612080837529
C           48.72202310694908        2.53128830861992        2.25965798443772
C           49.97380520383476        2.04145734271285        1.76723943576578
N           49.77429233782683        1.01053047085096        0.88160487628506
C           51.19554803458780        2.57380718397345        2.12036122403880
C           52.41368023961919        2.11699470350198        1.65954948120383
C           53.66943944529395        2.69199318993694        2.03470417772377
C           54.62954377533475        1.95374794581576        1.42664723604150
N           52.60280826733182        1.04662043614769        0.82166666952944
C           53.95352215443665        0.93274984849519        0.68607335185484
C           54.62170084905338       -0.06947713298782       -0.02885833408957
C           53.94516490858931       -1.06417522193202       -0.74593573942419
C           54.61203690427960       -2.08965905316951       -1.48855542156749
C           53.64562224442000       -2.81489534817893       -2.10223587801766
C           52.39499732231329       -2.22835012356128       -1.72743025269886
N           52.59340391014523       -1.16348527416575       -0.88492043000338
C           51.17305790412815       -2.67248486256543       -2.19085567463760
C           49.95559360341699       -2.13283213308328       -1.83411832520182
C           48.69933476112640       -2.61252723956873       -2.32520783105085
C           47.73918304229737       -1.87541344565176       -1.71622406064172
C           48.41559357564307       -0.95047988434439       -0.85858464238882
N           49.76497798926613       -1.10383158279211       -0.94421733428095
H           46.68538534169335        1.87017550196050        1.76608271643333
H           48.61665075297615        3.33450880214941        2.97145366420406
H           51.19997289876786        3.41198723979543        2.80849971329667
H           53.78227317131833        3.54648869931379        2.68282538911669
H           55.70039893715496        2.07166180771939        1.46933153159289
H           55.68171761374128       -2.21893339029959       -1.52860290948878
H           53.75062548726790       -3.66791214460939       -2.75360382643615
H           51.17072453236006       -3.50760081981835       -2.88273502131025
H           48.58656288512909       -3.41252096749638       -3.03950963072556
H           46.66826207914987       -1.94016784979643       -1.82347663619818

          :  Hamiltonian                  GFN1-xTB          :
         :: total energy            -279.909530066260 Eh    ::
         :: gradient norm              0.000829196858 Eh/a0 ::
         :: HOMO-LUMO gap              0.042634460945 eV    ::
         :: SCC energy              -284.492329288995 Eh    ::
         :: repulsion energy           4.719230347897 Eh    ::

    * Orbital Energies and Occupations

         #    Occupation            Energy/Eh            Energy/eV
      -------------------------------------------------------------
         1        2.0000           -0.7745622             -21.0769
       ...           ...                  ...                  ...
       249        1.9919           -0.3917877             -10.6611
       250        1.9917           -0.3917634             -10.6604
       251        1.9915           -0.3917401             -10.6598
       252        1.9913           -0.3917189             -10.6592
       253        1.9717           -0.3905908             -10.6285
       254        1.9701           -0.3905404             -10.6271
       255        1.9541           -0.3901250             -10.6158
       256        1.9513           -0.3900659             -10.6142
       257        1.9491           -0.3900232             -10.6131
       258        1.9428           -0.3899098             -10.6100
       259        1.9372           -0.3898185             -10.6075
       260        1.9299           -0.3897097             -10.6045
       261        1.0684           -0.3866906             -10.5224 (HOMO)
       262        0.3612           -0.3851239             -10.4798 (LUMO)
       263        0.3578           -0.3851129             -10.4795
       264        0.3255           -0.3850045             -10.4765
       265        0.3217           -0.3849911             -10.4761
       266                         -0.3494785              -9.5098
       267                         -0.3406667              -9.2700
       268                         -0.3326619              -9.0522
       269                         -0.3323112              -9.0426
       270                         -0.3321272              -9.0376
       271                         -0.3289550              -8.9513
       272                         -0.3281686              -8.9299
       ...                                ...                  ...
       552                          1.5079134              41.0324
      -------------------------------------------------------------
                  HL-Gap            0.0015668 Eh            0.0426 eV

Wiberg/Mayer (AO) data.
largest (>0.10) Wiberg bond orders for each atom

     #   Z sym  total        # sym  WBO       # sym  WBO       # sym  WBO
 ---------------------------------------------------------------------------
     1  26 Fe   3.098 --     7 N    0.667    25 N    0.667    12 N    0.660
                            19 N    0.660
     2   6 C    3.922 --    24 C    1.364     3 C    1.364    26 H    0.971
     3   6 C    3.925 --     2 C    1.364     7 N    1.214     4 C    1.169
     4   6 C    3.958 --     5 C    1.655     3 C    1.169    27 H    0.975
     5   6 C    3.961 --     4 C    1.655     6 C    1.170    28 H    0.975
     6   6 C    3.920 --     8 C    1.353     7 N    1.220     5 C    1.170
     7   7 N    3.384 --     6 C    1.220     3 C    1.214     1 Fe   0.667
     8   6 C    3.928 --     9 C    1.378     6 C    1.353    29 H    0.970
     9   6 C    3.918 --     8 C    1.378    12 N    1.193    10 C    1.173
    10   6 C    3.955 --    11 C    1.645     9 C    1.173    30 H    0.975
    11   6 C    3.960 --    10 C    1.645    13 C    1.183    31 H    0.974
    12   7 N    3.382 --    13 C    1.252     9 C    1.193     1 Fe   0.660
    13   6 C    3.904 --    12 N    1.252    14 C    1.251    11 C    1.183
    14   6 C    3.922 --    15 C    1.251    13 C    1.251    74 C    1.204
    15   6 C    3.904 --    19 N    1.252    14 C    1.251    16 C    1.182
    16   6 C    3.960 --    17 C    1.645    15 C    1.182    32 H    0.974
    17   6 C    3.955 --    16 C    1.645    18 C    1.173    33 H    0.975
    18   6 C    3.918 --    20 C    1.378    19 N    1.193    17 C    1.173
    19   7 N    3.382 --    15 C    1.252    18 C    1.193     1 Fe   0.660
    20   6 C    3.928 --    18 C    1.378    21 C    1.353    34 H    0.970
    21   6 C    3.920 --    20 C    1.353    25 N    1.220    22 C    1.170
    22   6 C    3.961 --    23 C    1.655    21 C    1.170    35 H    0.975
    23   6 C    3.958 --    22 C    1.655    24 C    1.169    36 H    0.975
    24   6 C    3.925 --     2 C    1.364    25 N    1.214    23 C    1.169
    25   7 N    3.384 --    21 C    1.220    24 C    1.214     1 Fe   0.667
    26   1 H    1.000 --     2 C    0.971
    27   1 H    0.998 --     4 C    0.975
    28   1 H    0.998 --     5 C    0.975
    29   1 H    1.001 --     8 C    0.970
    30   1 H    0.998 --    10 C    0.975
    31   1 H    1.002 --    11 C    0.974
    32   1 H    1.002 --    16 C    0.974
    33   1 H    0.998 --    17 C    0.975
    34   1 H    1.001 --    20 C    0.970
    35   1 H    0.998 --    22 C    0.975
    36   1 H    0.998 --    23 C    0.975
    37  26 Fe   3.109 --    43 N    0.670    61 N    0.670    48 N    0.663
                            55 N    0.663
    38   6 C    3.924 --    60 C    1.364    39 C    1.364    62 H    0.971
    39   6 C    3.924 --    38 C    1.364    43 N    1.213    40 C    1.169
    40   6 C    3.958 --    41 C    1.655    39 C    1.169    63 H    0.975
    41   6 C    3.960 --    40 C    1.655    42 C    1.170    64 H    0.975
    42   6 C    3.920 --    44 C    1.355    43 N    1.218    41 C    1.170
    43   7 N    3.386 --    42 C    1.218    39 C    1.213    37 Fe   0.670
    44   6 C    3.930 --    45 C    1.376    42 C    1.355    65 H    0.970
    45   6 C    3.917 --    44 C    1.376    48 N    1.194    46 C    1.173
    46   6 C    3.956 --    47 C    1.645    45 C    1.173    66 H    0.975
    47   6 C    3.960 --    46 C    1.645    49 C    1.182    67 H    0.974
    48   7 N    3.385 --    49 C    1.248    45 C    1.194    37 Fe   0.663
    49   6 C    3.905 --    50 C    1.255    48 N    1.248    47 C    1.182
    50   6 C    3.926 --    49 C    1.255    51 C    1.255    84 C    1.195
    51   6 C    3.905 --    50 C    1.255    55 N    1.248    52 C    1.182
    52   6 C    3.960 --    53 C    1.646    51 C    1.182    68 H    0.973
    53   6 C    3.956 --    52 C    1.646    54 C    1.173    69 H    0.975
    54   6 C    3.917 --    56 C    1.376    55 N    1.194    53 C    1.173
    55   7 N    3.385 --    51 C    1.248    54 C    1.194    37 Fe   0.663
    56   6 C    3.930 --    54 C    1.376    57 C    1.355    70 H    0.970
    57   6 C    3.920 --    56 C    1.355    61 N    1.218    58 C    1.170
    58   6 C    3.960 --    59 C    1.655    57 C    1.170    71 H    0.975
    59   6 C    3.958 --    58 C    1.655    60 C    1.169    72 H    0.975
    60   6 C    3.924 --    38 C    1.364    61 N    1.213    59 C    1.169
    61   7 N    3.386 --    57 C    1.218    60 C    1.213    37 Fe   0.670
    62   1 H    1.000 --    38 C    0.971
    63   1 H    0.998 --    40 C    0.975
    64   1 H    0.998 --    41 C    0.975
    65   1 H    1.000 --    44 C    0.970
    66   1 H    0.998 --    46 C    0.975
    67   1 H    1.002 --    47 C    0.974
    68   1 H    1.002 --    52 C    0.973
    69   1 H    0.998 --    53 C    0.975
    70   1 H    1.000 --    56 C    0.970
    71   1 H    0.998 --    58 C    0.975
    72   1 H    0.998 --    59 C    0.975
    73   6 C    3.925 --    74 C    2.447    75 C    1.328
    74   6 C    3.911 --    73 C    2.447    14 C    1.204    76 C    0.195
    75   6 C    3.919 --    76 C    2.444    73 C    1.328
    76   6 C    3.914 --    75 C    2.444    86 C    1.209    74 C    0.195
    77   6 C    3.918 --    78 C    2.434    79 C    1.336
    78   6 C    3.911 --    77 C    2.434    98 C    1.215    80 C    0.194
    79   6 C    3.919 --    80 C    2.434    77 C    1.336
    80   6 C    3.910 --    79 C    2.434   121 C    1.214    78 C    0.194
    81   6 C    3.920 --    82 C    2.453    83 C    1.320
    82   6 C    3.914 --    81 C    2.453   133 C    1.201    84 C    0.195
    83   6 C    3.926 --    84 C    2.456    81 C    1.320
    84   6 C    3.910 --    83 C    2.456    50 C    1.195    82 C    0.195
    85  26 Fe   3.044 --   109 N    0.648    91 N    0.648   103 N    0.647
                            96 N    0.647
    86   6 C    3.905 --    87 C    1.247   108 C    1.246    76 C    1.209
    87   6 C    3.905 --    91 N    1.254    86 C    1.247    88 C    1.186
    88   6 C    3.959 --    89 C    1.640    87 C    1.186   110 H    0.973
    89   6 C    3.957 --    88 C    1.640    90 C    1.178   111 H    0.975
    90   6 C    3.915 --    92 C    1.362    91 N    1.201    89 C    1.178
    91   7 N    3.371 --    87 C    1.254    90 C    1.201    85 Fe   0.648
    92   6 C    3.918 --    93 C    1.368    90 C    1.362   112 H    0.970
    93   6 C    3.916 --    92 C    1.368    96 N    1.197    94 C    1.176
    94   6 C    3.957 --    95 C    1.641    93 C    1.176   113 H    0.975
    95   6 C    3.959 --    94 C    1.641    97 C    1.185   114 H    0.974
    96   7 N    3.369 --    97 C    1.258    93 C    1.197    85 Fe   0.647
    97   6 C    3.905 --    96 N    1.258    98 C    1.243    95 C    1.185
    98   6 C    3.904 --    99 C    1.243    97 C    1.243    78 C    1.215
    99   6 C    3.905 --   103 N    1.258    98 C    1.243   100 C    1.185
   100   6 C    3.959 --   101 C    1.641    99 C    1.185   115 H    0.974
   101   6 C    3.957 --   100 C    1.641   102 C    1.176   116 H    0.975
   102   6 C    3.916 --   104 C    1.368   103 N    1.197   101 C    1.176
   103   7 N    3.369 --    99 C    1.258   102 C    1.197    85 Fe   0.647
   104   6 C    3.919 --   102 C    1.368   105 C    1.362   117 H    0.970
   105   6 C    3.915 --   104 C    1.362   109 N    1.201   106 C    1.178
   106   6 C    3.957 --   107 C    1.640   105 C    1.178   118 H    0.975
   107   6 C    3.959 --   106 C    1.640   108 C    1.186   119 H    0.973
   108   6 C    3.905 --   109 N    1.254    86 C    1.246   107 C    1.186
   109   7 N    3.371 --   108 C    1.254   105 C    1.201    85 Fe   0.648
   110   1 H    1.002 --    88 C    0.973
   111   1 H    0.997 --    89 C    0.975
   112   1 H    1.001 --    92 C    0.970
   113   1 H    0.997 --    94 C    0.975
   114   1 H    1.002 --    95 C    0.974
   115   1 H    1.002 --   100 C    0.974
   116   1 H    0.997 --   101 C    0.975
   117   1 H    1.001 --   104 C    0.970
   118   1 H    0.997 --   106 C    0.975
   119   1 H    1.002 --   107 C    0.973
   120  26 Fe   3.053 --   138 N    0.650   131 N    0.650   126 N    0.649
                           144 N    0.649
   121   6 C    3.905 --   143 C    1.244   122 C    1.243    80 C    1.214
   122   6 C    3.905 --   126 N    1.258   121 C    1.243   123 C    1.185
   123   6 C    3.959 --   124 C    1.642   122 C    1.185   145 H    0.974
   124   6 C    3.957 --   123 C    1.642   125 C    1.176   146 H    0.975
   125   6 C    3.916 --   127 C    1.370   126 N    1.196   124 C    1.176
   126   7 N    3.370 --   122 C    1.258   125 C    1.196   120 Fe   0.649
   127   6 C    3.919 --   125 C    1.370   128 C    1.361   147 H    0.970
   128   6 C    3.915 --   127 C    1.361   131 N    1.202   129 C    1.178
   129   6 C    3.958 --   130 C    1.640   128 C    1.178   148 H    0.975
   130   6 C    3.959 --   129 C    1.640   132 C    1.186   149 H    0.973
   131   7 N    3.372 --   132 C    1.251   128 C    1.202   120 Fe   0.650
   132   6 C    3.906 --   131 N    1.251   133 C    1.251   130 C    1.186
   133   6 C    3.907 --   134 C    1.251   132 C    1.251    82 C    1.201
   134   6 C    3.906 --   133 C    1.251   138 N    1.250   135 C    1.186
   135   6 C    3.959 --   136 C    1.640   134 C    1.186   150 H    0.973
   136   6 C    3.958 --   135 C    1.640   137 C    1.178   151 H    0.975
   137   6 C    3.915 --   139 C    1.361   138 N    1.203   136 C    1.178
   138   7 N    3.372 --   134 C    1.250   137 C    1.203   120 Fe   0.650
   139   6 C    3.919 --   140 C    1.370   137 C    1.361   152 H    0.970
   140   6 C    3.916 --   139 C    1.370   144 N    1.196   141 C    1.176
   141   6 C    3.957 --   142 C    1.642   140 C    1.176   153 H    0.975
   142   6 C    3.959 --   141 C    1.642   143 C    1.185   154 H    0.974
   143   6 C    3.905 --   144 N    1.258   121 C    1.244   142 C    1.185
   144   7 N    3.370 --   143 C    1.258   140 C    1.196   120 Fe   0.649
   145   1 H    1.002 --   123 C    0.974
   146   1 H    0.997 --   124 C    0.975
   147   1 H    1.001 --   127 C    0.970
   148   1 H    0.997 --   129 C    0.975
   149   1 H    1.002 --   130 C    0.973
   150   1 H    1.002 --   135 C    0.973
   151   1 H    0.997 --   136 C    0.975
   152   1 H    1.001 --   139 C    0.970
   153   1 H    0.997 --   141 C    0.975
   154   1 H    1.002 --   142 C    0.974
 ---------------------------------------------------------------------------

           -------------------------------------------------
          | TOTAL ENERGY             -279.909530066260 Eh   |
          | GRADIENT NORM               0.000829196858 Eh/α |
          | HOMO-LUMO GAP               0.042634460945 eV   |
           -------------------------------------------------

 * finished run on 2022/07/29 at 16:03:46.839
