   * xtb version 6.5.1 (b24c23e) compiled by 'conda@728c89f4b128' on 2022-07-12
          program call               : xtb Ni_Py_C6_2.xyz --gfn 1 --opt -T 48

   ID    Z sym.   atoms
    1   28 Ni     1, 55
    2    6 C      2-6, 8-11, 13-17, 19-24, 26-29, 31-36, 56-60, 62-65, 67-71,
                  73-78, 80-83, 85-90, 109-114
    3    7 N      7, 12, 18, 25, 30, 37, 61, 66, 72, 79, 84, 91
    4    1 H      38-54, 92-108
########################################################################
[WARNING] Please study the warnings concerning your input carefully
-1- prog_main_parseArguments: Unknown option '-T' provided
########################################################################

          :  Hamiltonian                  GFN1-xTB          :
 * total energy  :  -203.7781852 Eh     change       -0.1972893E-08 Eh
 * total energy  :  -204.0998774 Eh     change       -0.3216921E+00 Eh
 * total energy  :  -204.1728640 Eh     change       -0.7298664E-01 Eh
 * total energy  :  -204.2029512 Eh     change       -0.3008724E-01 Eh
 * total energy  :  -204.2129936 Eh     change       -0.1004234E-01 Eh
 * total energy  :  -204.2188042 Eh     change       -0.5810656E-02 Eh
 * total energy  :  -204.2213827 Eh     change       -0.2578414E-02 Eh
 * total energy  :  -204.2232550 Eh     change       -0.1872311E-02 Eh
 * total energy  :  -204.2243657 Eh     change       -0.1110726E-02 Eh
 * total energy  :  -204.2253056 Eh     change       -0.9398659E-03 Eh
 * total energy  :  -204.2275668 Eh     change       -0.9328323E-05 Eh
 * total energy  :  -204.2275780 Eh     change       -0.1125535E-04 Eh
 * total energy  :  -204.2275894 Eh     change       -0.1138474E-04 Eh
 * total energy  :  -204.2275990 Eh     change       -0.9616794E-05 Eh
 * total energy  :  -204.2276086 Eh     change       -0.9545026E-05 Eh
 * total energy  :  -204.2276180 Eh     change       -0.9393241E-05 Eh
 * total energy  :  -204.2276273 Eh     change       -0.9345035E-05 Eh
 * total energy  :  -204.2276376 Eh     change       -0.1032376E-04 Eh
 * total energy  :  -204.2276381 Eh     change       -0.4410372E-06 Eh
   *** GEOMETRY OPTIMIZATION CONVERGED AFTER 44 ITERATIONS ***

 final structure:
================
114
 xtb: 6.5.1 (b24c23e)
Ni          11.09377592842670       -0.04829880756778       -0.02004250843224
C            7.69956091008631       -0.06795825210601       -0.07477757432939
C            8.35253319669648       -1.28220763241309       -0.04375315017041
C            7.67293761054162       -2.54147185789392       -0.01763192597063
C            8.62553423274331       -3.49359895278483        0.11295781745748
C            9.88798341823692       -2.81507486546881        0.15379491162996
N            9.71074601669381       -1.45851448642437        0.04441328058589
C           11.10284181579216       -3.45549281539462        0.35744365932758
C           11.10686598214298       -4.92783676514400        0.53416833878093
C           11.47082071828099       -5.50873992586079        1.74772248871754
C           11.45288016744221       -6.88966461184546        1.86679282586172
N           11.10769052449442       -7.69805284193196        0.86996937209904
C           10.76347154506522       -7.15153886268357       -0.29156815097361
C           10.74500213561969       -5.78221476207710       -0.50597682666279
C           12.31414200151664       -2.77941542254081        0.39546078459170
C           13.57879483767472       -3.43036227483704        0.55789960623327
C           14.52954165762970       -2.47382591587691        0.43456820552537
N           12.48966256020423       -1.42967013733946        0.18684909856224
C           13.84453482978706       -1.24341810639338        0.19579169011397
C           14.50811749764633       -0.03778962558673       -0.04699166013761
C           13.83298264790672        1.16718252955576       -0.25902380858686
C           14.50448371514077        2.40140499237588       -0.51544583380384
C           13.54749849470955        3.35742278728747       -0.58391686156989
C           12.29343172514261        2.70319272432348       -0.36360695865148
N           12.47898396225950        1.34959010287698       -0.19505436990258
C           11.07584092376313        3.36848555368232       -0.31580221928379
C           11.06950403889970        4.84452906846188       -0.44285523241816
C           10.42844082934841        5.47524533364474       -1.50842620865139
C           10.45196399813328        6.85871113916098       -1.58780488836193
N           11.05772953054082        7.62555188857170       -0.68699352720787
C           11.66980122116400        7.03223150816077        0.33274324030023
C           11.70532656333921        5.65623508116126        0.49560452848727
C            9.86330734166823        2.70735926285979       -0.16975511427970
C            8.59498737003602        3.37229240149671       -0.09803043145829
C            7.64873889658027        2.40622576716377       -0.04560758161332
C            8.33995430310628        1.15341154342476       -0.06778773010379
N            9.69803838981926        1.34590796377974       -0.11560953863619
H            6.61594419329748       -0.07368429243616       -0.09124218575055
H            6.60275821576553       -2.65930947183259       -0.07819407668030
H            8.49806107993695       -4.56123341834813        0.18778880362638
H           11.75051017698635       -4.88766529319034        2.59028322059390
H           11.72712606990974       -7.36627702618376        2.80338171015228
H           10.48968141952133       -7.83827618052933       -1.08718306962172
H           10.46642363352378       -5.38081983023868       -1.47300632086133
H           13.71142984488680       -4.48630067366521        0.72751418986643
H           15.60117608513389       -2.57726922243093        0.48913202795796
H           15.57165825308531        2.50651026229101       -0.62554532379843
H           13.66890543936027        4.41126572267840       -0.77370492179342
H            9.93197260206157        4.88951404865435       -2.27287019077765
H            9.96349949898046        7.37234129559528       -2.41070372350242
H           12.15396550708863        7.68565824076954        1.05259040117544
H           12.20793449161857        5.21689202402968        1.34899720371373
H            8.46008397776790        4.44156228899435       -0.08663482277226
H            6.57689228128603        2.51149725339620        0.00822016129269
Ni          27.09632531032919        0.03986019755517       -0.03298228454019
C           30.49061906692521        0.04336473529764       -0.08720844643914
C           29.83793307774247        1.21410110392390       -0.41141401794577
C           30.51770268118338        2.42661660546308       -0.75198100799856
C           29.56506124878016        3.37524417857947       -0.90571945631664
C           28.30245366858446        2.73768486798462       -0.67079619488918
N           28.47963537201207        1.40810389015414       -0.38026522935576
C           27.08745455079972        3.40941655125837       -0.66350070491759
C           27.08338665674496        4.86943562941800       -0.92306752876115
C           26.71849964613100        5.77836469832010        0.06857249971542
C           26.73620846278818        7.13414247479635       -0.21950427148353
N           27.08206304969589        7.61742872908862       -1.40825511391329
C           27.42728712819495        6.75655294946873       -2.36011588417800
C           27.44605898421337        5.38411871660619       -2.16659871863918
C           25.87611074284894        2.77355857644489       -0.43084928452042
C           24.61144426230570        3.44357439106946       -0.46505456423470
C           23.66069573176071        2.49256458908721       -0.30463616114473
N           25.70057166633181        1.42150527100809       -0.23762033329439
C           24.34568052191643        1.24589411805438       -0.17508579918779
C           23.68195463081985        0.02181819964081       -0.05687566687819
C           24.35693687817625       -1.19280006555002        0.09068628252915
C           23.68534800275519       -2.44821484525994        0.20403979195743
C           24.64229163700487       -3.38294533835481        0.41621066671785
C           25.89637772731559       -2.69296730811026        0.43700489791012
N           25.71090283350048       -1.34877986919841        0.20505345304892
C           27.11394308420722       -3.31562095118727        0.67623078800040
C           27.12034655436509       -4.76494354131972        0.98330194771599
C           27.76197294056244       -5.67783099648021        0.14714930991547
C           27.73864234871018       -7.02470561553695        0.47305906569790
N           27.13253026604234       -7.49696096917183        1.55752292469188
C           26.51988563726529       -6.63316436192085        2.36067137654774
C           26.48414206783583       -5.26920169027606        2.11679903761863
C           28.32640897671806       -2.64039590218102        0.62480202038185
C           29.59454486933840       -3.25570588119849        0.88773464923802
C           30.54087415514756       -2.31578653829353        0.65880618060202
C           29.84988673743915       -1.12343471985597        0.27325120910898
N           28.49181315084478       -1.32177066255853        0.28173435248141
H           31.57425941485948        0.04417775022497       -0.10308469816125
H           31.58799338388177        2.52201858468889       -0.84263363571234
H           29.69258030776101        4.41844431467450       -1.14482055336805
H           26.43824810543693        5.42936701603947        1.05524737376578
H           26.46117000268624        7.86267555143474        0.53757008591422
H           27.70162777839073        7.18202379566943       -3.32099303556593
H           27.72546903499779        4.71869532080524       -2.97469021149484
H           24.47881504252454        4.50316769182964       -0.61007688587792
H           22.58906068985858        2.60737942509727       -0.28253880074691
H           22.61816435795437       -2.58073984129236        0.12926673117124
H           24.52079598389432       -4.44645821081107        0.54081056523255
H           28.25876439017164       -5.33928146033139       -0.75424934310618
H           28.22759491477732       -7.75510005433775       -0.16492486244104
H           26.03544134338867       -7.04943043496126        3.23907803684651
H           25.98109943142936       -4.60102416165694        2.80556841715094
H           29.72926038930428       -4.27565955792932        1.20899505070380
H           31.61263716297114       -2.40068992692142        0.74213945942755
C           19.70886252442722       -0.00671932407998       -0.09329136287095
C           18.48120360519535       -0.02189819691839       -0.09080354688587
C           17.13625494792857       -0.02673588915188       -0.08319421743036
C           15.91309548176355       -0.03446061234789       -0.06892271120463
C           21.05381715723986       -0.00014578673357       -0.08785784533450
C           22.27696991359509        0.01205533692138       -0.07631062513767

          :  Hamiltonian                  GFN1-xTB          :
         :: total energy            -204.227638063119 Eh    ::
         :: gradient norm              0.000666937256 Eh/a0 ::
         :: HOMO-LUMO gap              1.220272780665 eV    ::
         :: SCC energy              -207.468044727043 Eh    ::
         :: repulsion energy           3.343226802780 Eh    ::

    * Orbital Energies and Occupations

         #    Occupation            Energy/Eh            Energy/eV
      -------------------------------------------------------------
         1        2.0000           -0.7869891             -21.4151
       ...           ...                  ...                  ...
       177        2.0000           -0.4196457             -11.4191
       178        2.0000           -0.4046574             -11.0113
       179        2.0000           -0.4046341             -11.0107
       180        2.0000           -0.4041768             -10.9982
       181        2.0000           -0.4041743             -10.9981
       182        2.0000           -0.4034646             -10.9788
       183        2.0000           -0.4034634             -10.9788
       184        2.0000           -0.4024088             -10.9501
       185        2.0000           -0.4024049             -10.9500
       186        2.0000           -0.4023362             -10.9481
       187        2.0000           -0.4023361             -10.9481
       188        2.0000           -0.4012588             -10.9188
       189        2.0000           -0.3905916             -10.6285 (HOMO)
       190                         -0.3457474              -9.4083 (LUMO)
       191                         -0.3364652              -9.1557
       192                         -0.3364649              -9.1557
       193                         -0.3348632              -9.1121
       194                         -0.3348459              -9.1116
       195                         -0.3341581              -9.0929
       196                         -0.3072420              -8.3605
       197                         -0.3004102              -8.1746
       198                         -0.2911324              -7.9221
       199                         -0.2836730              -7.7191
       200                         -0.2835420              -7.7156
       ...                                ...                  ...
       398                          1.5753007              42.8661
      -------------------------------------------------------------
                  HL-Gap            0.0448442 Eh            1.2203 eV

Wiberg/Mayer (AO) data.
largest (>0.10) Wiberg bond orders for each atom

     #   Z sym  total        # sym  WBO       # sym  WBO       # sym  WBO
 ---------------------------------------------------------------------------
     1  28 Ni   3.010 --    37 N    0.664     7 N    0.664    18 N    0.661
                            25 N    0.661
     2   6 C    3.935 --     3 C    1.364    36 C    1.364    38 H    0.970
     3   6 C    3.923 --     2 C    1.364     7 N    1.214     4 C    1.174
     4   6 C    3.960 --     5 C    1.651     3 C    1.174    39 H    0.975
     5   6 C    3.963 --     4 C    1.651     6 C    1.176    40 H    0.972
     6   6 C    3.920 --     8 C    1.324     7 N    1.221     5 C    1.176
     7   7 N    3.402 --     6 C    1.221     3 C    1.214     1 Ni   0.664
     8   6 C    3.939 --    15 C    1.330     6 C    1.324     9 C    1.022
     9   6 C    3.986 --    10 C    1.395    14 C    1.395     8 C    1.022
                            12 N    0.107
    10   6 C    3.988 --    11 C    1.441     9 C    1.395    41 H    0.973
                            13 C    0.109
    11   6 C    3.972 --    10 C    1.441    12 N    1.416    42 H    0.972
                            14 C    0.109
    12   7 N    3.032 --    11 C    1.416    13 C    1.416     9 C    0.107
    13   6 C    3.972 --    14 C    1.441    12 N    1.416    43 H    0.972
                            10 C    0.109
    14   6 C    3.988 --    13 C    1.441     9 C    1.395    44 H    0.973
                            11 C    0.109
    15   6 C    3.915 --     8 C    1.330    18 N    1.205    16 C    1.183
    16   6 C    3.959 --    17 C    1.637    15 C    1.183    45 H    0.973
    17   6 C    3.961 --    16 C    1.637    19 C    1.190    46 H    0.973
    18   7 N    3.407 --    19 C    1.240    15 C    1.205     1 Ni   0.661
    19   6 C    3.903 --    20 C    1.263    18 N    1.240    17 C    1.190
    20   6 C    3.944 --    21 C    1.263    19 C    1.263   112 C    1.184
    21   6 C    3.903 --    20 C    1.263    25 N    1.239    22 C    1.191
    22   6 C    3.961 --    23 C    1.636    21 C    1.191    47 H    0.973
    23   6 C    3.959 --    22 C    1.636    24 C    1.183    48 H    0.973
    24   6 C    3.915 --    26 C    1.328    25 N    1.207    23 C    1.183
    25   7 N    3.406 --    21 C    1.239    24 C    1.207     1 Ni   0.661
    26   6 C    3.939 --    24 C    1.328    33 C    1.322    27 C    1.027
    27   6 C    3.986 --    32 C    1.393    28 C    1.393    26 C    1.027
                            30 N    0.107
    28   6 C    3.987 --    29 C    1.442    27 C    1.393    49 H    0.973
                            31 C    0.109
    29   6 C    3.972 --    28 C    1.442    30 N    1.416    50 H    0.972
                            32 C    0.109
    30   7 N    3.030 --    31 C    1.416    29 C    1.416    27 C    0.107
    31   6 C    3.972 --    32 C    1.442    30 N    1.416    51 H    0.972
                            28 C    0.109
    32   6 C    3.987 --    31 C    1.442    27 C    1.393    52 H    0.973
                            29 C    0.109
    33   6 C    3.920 --    26 C    1.322    37 N    1.221    34 C    1.176
    34   6 C    3.963 --    35 C    1.649    33 C    1.176    53 H    0.972
    35   6 C    3.960 --    34 C    1.649    36 C    1.175    54 H    0.975
    36   6 C    3.923 --     2 C    1.364    37 N    1.213    35 C    1.175
    37   7 N    3.402 --    33 C    1.221    36 C    1.213     1 Ni   0.664
    38   1 H    1.000 --     2 C    0.970
    39   1 H    0.997 --     4 C    0.975
    40   1 H    1.004 --     5 C    0.972
    41   1 H    1.003 --    10 C    0.973
    42   1 H    1.013 --    11 C    0.972
    43   1 H    1.013 --    13 C    0.972
    44   1 H    1.003 --    14 C    0.973
    45   1 H    1.004 --    16 C    0.973
    46   1 H    1.002 --    17 C    0.973
    47   1 H    1.002 --    22 C    0.973
    48   1 H    1.004 --    23 C    0.973
    49   1 H    1.004 --    28 C    0.973
    50   1 H    1.013 --    29 C    0.972
    51   1 H    1.013 --    31 C    0.972
    52   1 H    1.004 --    32 C    0.973
    53   1 H    1.004 --    34 C    0.972
    54   1 H    0.997 --    35 C    0.975
    55  28 Ni   3.010 --    91 N    0.664    61 N    0.664    72 N    0.661
                            79 N    0.661
    56   6 C    3.935 --    57 C    1.364    90 C    1.364    92 H    0.970
    57   6 C    3.923 --    56 C    1.364    61 N    1.214    58 C    1.174
    58   6 C    3.960 --    59 C    1.651    57 C    1.174    93 H    0.975
    59   6 C    3.963 --    58 C    1.651    60 C    1.176    94 H    0.972
    60   6 C    3.920 --    62 C    1.324    61 N    1.221    59 C    1.176
    61   7 N    3.402 --    60 C    1.221    57 C    1.214    55 Ni   0.664
    62   6 C    3.939 --    69 C    1.330    60 C    1.324    63 C    1.022
    63   6 C    3.986 --    64 C    1.395    68 C    1.395    62 C    1.022
                            66 N    0.107
    64   6 C    3.988 --    65 C    1.441    63 C    1.395    95 H    0.973
                            67 C    0.109
    65   6 C    3.972 --    64 C    1.441    66 N    1.416    96 H    0.972
                            68 C    0.109
    66   7 N    3.032 --    65 C    1.416    67 C    1.416    63 C    0.107
    67   6 C    3.972 --    68 C    1.441    66 N    1.416    97 H    0.972
                            64 C    0.109
    68   6 C    3.988 --    67 C    1.441    63 C    1.395    98 H    0.973
                            65 C    0.109
    69   6 C    3.915 --    62 C    1.330    72 N    1.205    70 C    1.183
    70   6 C    3.959 --    71 C    1.637    69 C    1.183    99 H    0.973
    71   6 C    3.961 --    70 C    1.637    73 C    1.190   100 H    0.973
    72   7 N    3.407 --    73 C    1.240    69 C    1.205    55 Ni   0.661
    73   6 C    3.903 --    74 C    1.263    72 N    1.240    71 C    1.190
    74   6 C    3.944 --    75 C    1.263    73 C    1.263   114 C    1.184
    75   6 C    3.903 --    74 C    1.263    79 N    1.239    76 C    1.191
    76   6 C    3.961 --    77 C    1.636    75 C    1.191   101 H    0.973
    77   6 C    3.959 --    76 C    1.636    78 C    1.183   102 H    0.973
    78   6 C    3.915 --    80 C    1.328    79 N    1.207    77 C    1.183
    79   7 N    3.406 --    75 C    1.239    78 C    1.207    55 Ni   0.661
    80   6 C    3.939 --    78 C    1.328    87 C    1.322    81 C    1.027
    81   6 C    3.986 --    86 C    1.393    82 C    1.393    80 C    1.027
                            84 N    0.107
    82   6 C    3.987 --    83 C    1.442    81 C    1.393   103 H    0.973
                            85 C    0.109
    83   6 C    3.972 --    82 C    1.442    84 N    1.416   104 H    0.972
                            86 C    0.109
    84   7 N    3.030 --    85 C    1.416    83 C    1.416    81 C    0.107
    85   6 C    3.972 --    86 C    1.442    84 N    1.416   105 H    0.972
                            82 C    0.109
    86   6 C    3.987 --    85 C    1.442    81 C    1.393   106 H    0.973
                            83 C    0.109
    87   6 C    3.920 --    80 C    1.322    91 N    1.221    88 C    1.176
    88   6 C    3.963 --    89 C    1.649    87 C    1.176   107 H    0.972
    89   6 C    3.960 --    88 C    1.649    90 C    1.175   108 H    0.975
    90   6 C    3.923 --    56 C    1.364    91 N    1.213    89 C    1.175
    91   7 N    3.402 --    87 C    1.221    90 C    1.213    55 Ni   0.664
    92   1 H    1.000 --    56 C    0.970
    93   1 H    0.997 --    58 C    0.975
    94   1 H    1.004 --    59 C    0.972
    95   1 H    1.003 --    64 C    0.973
    96   1 H    1.013 --    65 C    0.972
    97   1 H    1.013 --    67 C    0.972
    98   1 H    1.003 --    68 C    0.973
    99   1 H    1.004 --    70 C    0.973
   100   1 H    1.002 --    71 C    0.973
   101   1 H    1.002 --    76 C    0.973
   102   1 H    1.004 --    77 C    0.973
   103   1 H    1.004 --    82 C    0.973
   104   1 H    1.013 --    83 C    0.972
   105   1 H    1.013 --    85 C    0.972
   106   1 H    1.004 --    86 C    0.973
   107   1 H    1.004 --    88 C    0.972
   108   1 H    0.997 --    89 C    0.975
   109   6 C    3.928 --   110 C    2.376   113 C    1.330   112 C    0.191
   110   6 C    3.928 --   109 C    2.376   111 C    1.330   114 C    0.191
   111   6 C    3.938 --   112 C    2.457   110 C    1.330
   112   6 C    3.892 --   111 C    2.457    20 C    1.184   109 C    0.191
   113   6 C    3.938 --   114 C    2.457   109 C    1.330
   114   6 C    3.892 --   113 C    2.457    74 C    1.184   110 C    0.191
 ---------------------------------------------------------------------------

           -------------------------------------------------
          | TOTAL ENERGY             -204.227638063119 Eh   |
          | GRADIENT NORM               0.000666937256 Eh/α |
          | HOMO-LUMO GAP               1.220272780665 eV   |
           -------------------------------------------------

 * finished run on 2022/07/30 at 02:33:33.302
