   * xtb version 6.5.1 (b24c23e) compiled by 'conda@728c89f4b128' on 2022-07-12
          program call               : xtb Fe_BSA_C6_3.xyz --gfn 1 --opt -T 48

   ID    Z sym.   atoms
    1   26 Fe     1, 65, 141
    2    6 C      2-6, 8-12, 17-21, 23-28, 30-34, 39-44, 66-70, 72-76, 81-85,
                  87-92, 94-98, 103-108, 129-140, 142-146, 148-152, 157-161,
                  163-168, 170-174, 179-184
    3    7 N      7, 22, 29, 45, 71, 86, 93, 109, 147, 162, 169, 185
    4   16 S      13, 35, 77, 99, 153, 175
    5    8 O      14-16, 36-38, 78-80, 100-102, 154-156, 176-178
    6    1 H      46-64, 110-128, 186-203

          :  Hamiltonian                  GFN1-xTB          :
 * total energy  :  -410.8584950 Eh     change       -0.7845642E-08 Eh
 * total energy  :  -411.1884184 Eh     change       -0.3299234E+00 Eh
 * total energy  :  -411.3365108 Eh     change       -0.1480924E+00 Eh
 * total energy  :  -411.4352274 Eh     change       -0.9871654E-01 Eh
 * total energy  :  -411.5105487 Eh     change       -0.7532134E-01 Eh
 * total energy  :  -411.5623454 Eh     change       -0.5179672E-01 Eh
 * total energy  :  -411.5922596 Eh     change       -0.2991418E-01 Eh
 * total energy  :  -411.6151205 Eh     change       -0.2286095E-01 Eh
 * total energy  :  -411.6315339 Eh     change       -0.1641333E-01 Eh
 * total energy  :  -411.6421673 Eh     change       -0.1063338E-01 Eh
 * total energy  :  -411.7176433 Eh     change        0.5604543E-05 Eh
 * total energy  :  -411.7176811 Eh     change       -0.3779814E-04 Eh
 * total energy  :  -411.7176605 Eh     change        0.2057922E-04 Eh
 * total energy  :  -411.7176906 Eh     change       -0.3006481E-04 Eh
 * total energy  :  -411.7177002 Eh     change       -0.9606618E-05 Eh
 * total energy  :  -411.7177091 Eh     change       -0.8889333E-05 Eh
 * total energy  :  -411.7177045 Eh     change        0.4567715E-05 Eh
 * total energy  :  -411.7177166 Eh     change       -0.1209692E-04 Eh
 * total energy  :  -411.7177204 Eh     change       -0.3787022E-05 Eh
   *** GEOMETRY OPTIMIZATION CONVERGED AFTER 71 ITERATIONS ***

 final structure:
================
203
 xtb: 6.5.1 (b24c23e)
Fe          31.49226323507713        0.04462561619342        0.01624966490267
C           28.11004209156784        0.16607419170098        0.06737675610681
C           28.75891717478462       -0.30574254309648        1.19045476499945
C           28.08749036649066       -0.79786258625508        2.35559429146876
C           29.04496795535109       -1.04665477799605        3.28010270638760
C           30.30009614686269       -0.69052930080237        2.68321970300305
N           30.11420978784807       -0.28228747151352        1.39008420461337
C           31.51557744884422       -0.68285676528680        3.35830222123302
C           31.53277302406314       -1.03393742509108        4.79744201152518
C           30.82741417767896       -0.26173223980589        5.72349268999407
C           30.84854110853319       -0.58672612215028        7.06989319963627
C           31.57468385297213       -1.69475264797122        7.47549898406792
S           31.61269560986268       -2.10652281706739        9.17940223037236
O           31.36064222159717       -0.95140589191425        9.98957758400125
O           30.29231929398823       -3.05098689792114        9.22198712969394
O           32.75562028192247       -2.91696959902340        9.48058760213472
C           32.28396163067332       -2.47953176183816        6.58093104029271
C           32.26182888691531       -2.14135803816865        5.23800077371273
C           32.71748296719236       -0.36013663480206        2.74215826680437
C           33.97336153318778       -0.26677961362793        3.42560219081850
C           34.91854453344362       -0.05358623914414        2.47842033635785
N           32.89123398268656       -0.14689638869631        1.39633736225422
C           34.23789944952760       -0.01287250585373        1.22210649935729
C           34.89680122479990        0.02884276845783       -0.01172115654926
C           34.21425905868713        0.07794230568749       -1.23279795105791
C           34.86746370719023        0.07095849328482       -2.50399050189012
C           33.90773635461387        0.29118558483662       -3.43516815612815
C           32.67141430930970        0.44173547043164       -2.72671902633296
N           32.87045310691140        0.26082865651062       -1.37975676042339
C           31.46735810228105        0.79677056593843       -3.32078405049788
C           31.45818097817423        1.11014592810941       -4.76829577067505
C           30.67660342825152        0.35940967704580       -5.64985725653098
C           30.66640916441401        0.65184971853604       -7.00387738759928
C           31.44219537430210        1.70370337220616       -7.46295540426627
S           31.42282891469049        2.08998888502540       -9.17350397174104
O           31.75153506060133        3.46816748904287       -9.39457628926460
O           32.70217042454413        1.20310948441579       -9.63722428697108
O           30.24618943069573        1.55706938782536       -9.79204910870626
C           32.22324894893367        2.46970349486797       -6.61268605666263
C           32.23005852278921        2.16536664348166       -5.26164139958211
C           30.27197939307760        0.87407996094787       -2.61407944432805
C           29.02077334240438        1.28461087362368       -3.18417898682374
C           28.07797638091391        1.10540263930640       -2.22934859834448
C           28.75431205652720        0.59690521752139       -1.07398783899857
N           30.10263165910638        0.50931087962340       -1.30577098795554
H           27.02648235467296        0.19476040710300        0.08071792598104
H           27.02034212272762       -0.92971168587021        2.43670934520487
H           28.92519345262620       -1.43632139090130        4.27799955065359
H           30.27533604062138        0.60774544171838        5.38641252452122
H           30.31639241691558        0.01176545199506        7.79858728836510
H           30.13008410448487       -3.35838304623458       10.12217937014726
H           32.84536714712413       -3.33557564068751        6.93353874535585
H           32.80295881044202       -2.74603961723209        4.51964616881517
H           34.10420865206935       -0.35081717972022        4.49210931154863
H           35.98328417866581        0.06027134343726        2.60291786510283
H           35.92477487240072       -0.08112536813979       -2.64949503797221
H           34.01679331829000        0.34266771419421       -4.50621843801212
H           30.08526057146171       -0.46625341366611       -5.27166709923697
H           30.06414832544458        0.07700507557591       -7.69608161908198
H           33.00796778726036        1.49069389986438      -10.50592100575900
H           32.80816998290246        3.29267225041860       -7.00383723202709
H           32.82429702741675        2.75951704433968       -4.57727305776837
H           28.89336762708245        1.66184605910241       -4.18583816950676
H           27.01716652931688        1.29062731334661       -2.28489085829430
Fe          63.45543623434864        0.01023551884985       -0.00762111295082
C           66.84059938776925        0.16816284337655       -0.01431324516949
C           66.18943450554873        0.15985364622802       -1.23078462343951
C           66.86163550879239        0.15361844782108       -2.49509880351412
C           65.90310338016407        0.25923270409588       -3.44522043035475
C           64.64627855916929        0.34354451930688       -2.75850378710589
N           64.83310265454752        0.24506906735982       -1.40575873072937
C           63.42659207597195        0.56517240134355       -3.38609302580888
C           63.40964510997762        0.76645006216784       -4.85426967161225
C           64.07018494790104        1.85719246192614       -5.42445510788983
C           64.04923735183451        2.05231386899510       -6.79571673711785
C           63.36900238640448        1.14077763762527       -7.58679195994228
S           63.33042773207607        1.38723884180340       -9.32228982796011
O           63.53453140591689        2.76852174686507       -9.64546393423499
O           64.68186597909742        0.57196620259845       -9.70511616371606
O           62.21442230558370        0.70537038392846       -9.90860707223121
C           62.70571298606550        0.04915480425539       -7.05044204311857
C           62.72691701400429       -0.13231802089942       -5.67742927065027
C           62.22069474025005        0.60605350312464       -2.69897159679069
C           60.95834404387811        0.89376162604791       -3.31254934299158
C           60.01408831375547        0.73924655162939       -2.35374584822430
N           62.05130208581907        0.33403132939600       -1.36314115746227
C           60.70159953307942        0.36474194218649       -1.15769675300156
C           60.04725200485646       -0.00516487306190        0.02065161938749
C           60.73004171704435       -0.35740841199732        1.18877366495527
C           60.07543850057690       -0.78971516577511        2.38339436068226
C           61.03759758209790       -0.91957879949567        3.32849691849603
C           62.27696950719177       -0.55525109286886        2.70902468533410
N           62.07663773024222       -0.24908266688329        1.38509980282434
C           63.48795134617521       -0.46592753203644        3.38292107581277
C           63.50339248390129       -0.70201249952267        4.84546124449185
C           64.25449981287491       -1.75001916587532        5.38311799398238
C           64.27355945727282       -1.97195968207954        6.75032843772929
C           63.53705547617730       -1.13293711558085        7.57048357360098
S           63.57020446410025       -1.39744263273939        9.30387346977860
O           63.27900894384462       -0.18733793225085       10.01602947184488
O           62.26867912300699       -2.36119295564809        9.42854075089604
O           64.73368856724953       -2.14734552113424        9.67122924253995
C           62.78625367167080       -0.08279671861245        7.06731592774308
C           62.77037902949747        0.12707289414554        5.69837313488554
C           64.68582386307155       -0.16442497198096        2.74568154937359
C           65.94327416388080       -0.01862815938844        3.42147018326983
C           66.88354479384958        0.15941604576883        2.46439780926623
C           66.19977783041388        0.13283815175701        1.20646508916957
N           64.84975000662473       -0.01547833216489        1.39442413063531
H           67.92416454889906        0.19897219780757       -0.01820240013950
H           67.92997979397657        0.07619715408503       -2.61925690262244
H           66.02248033920512        0.27700621955881       -4.51639635301072
H           64.58707060672023        2.56401877780225       -4.78598887680829
H           64.54624686801787        2.90129164626738       -7.24801918472888
H           64.83013241872068        0.59958510165064      -10.65821168523073
H           62.17964020878057       -0.64068649829081       -7.69828425254110
H           62.22099328151889       -0.98350498155314       -5.23698546385492
H           60.82292795491500        1.17880780257424       -4.34305356266798
H           58.94584739481409        0.85909654442944       -2.43478987073453
H           59.01575178226926       -0.96695183880612        2.47195508073959
H           60.92857691858977       -1.23916485852836        4.35202884645101
H           64.81559176298535       -2.40086760271429        4.72279880513441
H           64.85302683360686       -2.78036513455504        7.17811860948407
H           61.96634969867191       -2.39349161015559       10.34417221316754
H           62.23181639446354        0.56099620235020        7.73853922927314
H           62.19972642636865        0.95033109482324        5.28477283154436
H           66.07590661810082       -0.04771291247064        4.49075354584552
H           67.94724906591115        0.29370834010424        2.57929106003821
C           40.09562281162188       -0.01560216123567       -0.05066720399897
C           38.86605266819094       -0.01271468331082       -0.04177835053514
C           37.52367679203704        0.00281761011486       -0.03397414136861
C           36.29885969054789        0.01330976593738       -0.02483352900561
C           41.43785045668461       -0.02635079297302       -0.04979071815825
C           42.66299252761207       -0.03336366497562       -0.05134611847000
C           56.07414828309136       -0.05576418406447        0.03124414023234
C           54.84580806593853       -0.06597998391584        0.02566144369256
C           53.50144382367851       -0.06975707324363        0.02096776826399
C           52.27739298250559       -0.07152903418152        0.01086670830765
C           57.41878152542842       -0.04389067891176        0.03220734585853
C           58.64245226389838       -0.03068581948923        0.02803994860561
Fe          47.46897144455603       -0.06944392485640        0.00842887147566
C           44.06411901008337       -0.03528706448083       -0.04841060276822
C           44.73647227540460        0.88549626614944        0.76519692159226
C           44.07565304655976        1.81432546720726        1.62715160911379
C           45.03001018172670        2.65528535520838        2.09622675541342
C           46.26971337680448        2.23890462843363        1.51202104891015
N           46.07911869327918        1.12230211098693        0.73655720746298
C           47.46983746848586        2.92761933597870        1.63916249465068
C           47.46805822284237        4.21968417732690        2.36314655538250
C           48.24238508991137        4.38576396308937        3.51383431785044
C           48.24000291228643        5.59257012928118        4.19406529074129
C           47.46065769789349        6.62892024642870        3.70688981463804
S           47.46415058972466        8.16510643596856        4.55370974775205
O           47.14977387157079        9.24456009194587        3.66382855035748
O           46.16849438032942        7.92225661189092        5.50168983484387
O           48.62702313005401        8.27394579143843        5.38213052661645
C           46.68766098547356        6.49637765893671        2.56470162821620
C           46.69157943027479        5.28336776145088        1.89634347395014
C           48.67056703964679        2.45691232089750        1.12082793979742
C           49.91499547963779        3.16261283456590        1.19437086082653
C           50.87008883712102        2.31770748996740        0.73506680360585
N           48.85722881773120        1.22012158024564        0.55466987839406
C           50.20484205789226        1.10597515017345        0.37184838082634
C           50.87393102052833       -0.06413836164067       -0.00390125319429
C           50.19874951550765       -1.22601195719740       -0.39499163467248
C           50.85460134246104       -2.44744984593975       -0.74150778062121
C           49.89909341407139       -3.27682357671014       -1.22843895580836
C           48.66399400106707       -2.55277282624569       -1.18573471912348
N           48.85700209054854       -1.31455583801290       -0.62639903317559
C           47.46639136063261       -3.00724470340830       -1.72637163104777
C           47.46391783018369       -4.29602960246061       -2.45585111905330
C           48.26161827191149       -4.46411919773707       -3.59029325686381
C           48.26039362051549       -5.66634419170999       -4.27845229130654
C           47.45828365480837       -6.69648871601926       -3.81564385884673
S           47.46159363563693       -8.22645944164437       -4.67336536727056
O           47.11584351262515       -9.30835311012332       -3.79827555349290
O           46.18942292194262       -7.96004703184555       -5.64670028651558
O           48.64000164751570       -8.34415297161531       -5.47837938044576
C           46.66274841292800       -6.56253769911767       -2.68917986831928
C           46.66638444931893       -5.35417625198978       -2.01239173360869
C           46.27104838780043       -2.30873372658145       -1.60937372156834
C           45.03173942673200       -2.72032671506853       -2.19828172901023
C           44.07759089707931       -1.88186270572648       -1.72496348408287
C           44.73860653421505       -0.95625943212006       -0.85964113075926
N           46.08286254290653       -1.18543793885271       -0.84170532910927
H           43.01743383241135        1.81492422670412        1.83282200505408
H           44.91499208497850        3.48117176131155        2.77914889547961
H           48.83728129235023        3.55877270681353        3.88341965194229
H           48.83540743838319        5.73252354548798        5.08748155849723
H           45.84585638873659        8.76385282154913        5.84599713505006
H           46.10003209372683        7.33160953510965        2.20487484327531
H           46.10267771127337        5.16110553744520        0.99485352437205
H           50.03327742161199        4.17223944735535        1.55241768514586
H           51.93171907735091        2.48397645582494        0.64929570210358
H           51.91043771110292       -2.63124196513678       -0.62505972564302
H           50.01093262530607       -4.28884648649769       -1.58187588308467
H           48.87400772111027       -3.64173643381918       -3.94108901016903
H           48.87379781395335       -5.80751989687703       -5.15940815629741
H           45.87588669073303       -8.79286800267018       -6.01964874911272
H           46.05798126160558       -7.39323409145774       -2.34769447983264
H           46.06050079459239       -5.23184777876340       -1.12222258006218
H           44.91578377911819       -3.54466259915919       -2.88285136727806
H           43.01903557982401       -1.88207695166482       -1.92897609508074

          :  Hamiltonian                  GFN1-xTB          :
         :: total energy            -411.717720408392 Eh    ::
         :: gradient norm              0.000971222584 Eh/a0 ::
         :: HOMO-LUMO gap              0.096956379487 eV    ::
         :: SCC energy              -417.380842894075 Eh    ::
         :: repulsion energy           5.850362065709 Eh    ::

    * Orbital Energies and Occupations

         #    Occupation            Energy/Eh            Energy/eV
      -------------------------------------------------------------
         1        2.0000           -1.0390837             -28.2749
       ...           ...                  ...                  ...
       346        2.0000           -0.4146954             -11.2844
       347        1.9997           -0.4125040             -11.2248
       348        1.9930           -0.4095276             -11.1438
       349        1.9929           -0.4095186             -11.1436
       350        1.9928           -0.4095025             -11.1431
       351        1.9852           -0.4088172             -11.1245
       352        1.9430           -0.4075172             -11.0891
       353        1.9357           -0.4073988             -11.0859
       354        1.9341           -0.4073746             -11.0852
       355        1.9249           -0.4072459             -11.0817
       356        1.9205           -0.4071897             -11.0802
       357        1.9111           -0.4070794             -11.0772
       358        1.7577           -0.4060472             -11.0491 (HOMO)
       359        0.2914           -0.4024842             -10.9522 (LUMO)
       360        0.2136           -0.4021471             -10.9430
       361        0.2047           -0.4021018             -10.9417
       362                         -0.3603092              -9.8045
       363                         -0.3516532              -9.5690
       364                         -0.3512528              -9.5581
       365                         -0.3509407              -9.5496
       366                         -0.3488354              -9.4923
       367                         -0.3477082              -9.4616
       368                         -0.3304393              -8.9917
       369                         -0.3220458              -8.7633
       ...                                ...                  ...
       745                          1.5570998              42.3708
      -------------------------------------------------------------
                  HL-Gap            0.0035631 Eh            0.0970 eV

Wiberg/Mayer (AO) data.
largest (>0.10) Wiberg bond orders for each atom

     #   Z sym  total        # sym  WBO       # sym  WBO       # sym  WBO
 ---------------------------------------------------------------------------
     1  26 Fe   3.174 --    45 N    0.679    22 N    0.672     7 N    0.671
                            29 N    0.664
     2   6 C    3.928 --    44 C    1.366     3 C    1.362    46 H    0.970
     3   6 C    3.921 --     2 C    1.362     7 N    1.208     4 C    1.172
     4   6 C    3.959 --     5 C    1.650     3 C    1.172    47 H    0.975
     5   6 C    3.961 --     4 C    1.650     6 C    1.173    48 H    0.973
     6   6 C    3.921 --     8 C    1.316     7 N    1.221     5 C    1.173
     7   7 N    3.383 --     6 C    1.221     3 C    1.208     1 Fe   0.671
     8   6 C    3.929 --    19 C    1.329     6 C    1.316     9 C    1.029
     9   6 C    3.986 --    10 C    1.391    18 C    1.390     8 C    1.029
    10   6 C    3.986 --    11 C    1.450     9 C    1.391    49 H    0.971
                            17 C    0.106
    11   6 C    3.989 --    10 C    1.450    12 C    1.407    50 H    0.967
                            18 C    0.106
    12   6 C    3.931 --    17 C    1.407    11 C    1.407    13 S    0.754
    13  16 S    5.265 --    16 O    1.720    14 O    1.719    15 O    1.013
                            12 C    0.754
    14   8 O    2.078 --    13 S    1.719    16 O    0.139
    15   8 O    2.087 --    13 S    1.013    51 H    0.827
    16   8 O    2.079 --    13 S    1.720    14 O    0.139
    17   6 C    3.989 --    18 C    1.450    12 C    1.407    52 H    0.967
                            10 C    0.106
    18   6 C    3.986 --    17 C    1.450     9 C    1.390    53 H    0.971
                            11 C    0.106
    19   6 C    3.917 --     8 C    1.329    22 N    1.202    20 C    1.179
    20   6 C    3.956 --    21 C    1.639    19 C    1.179    54 H    0.973
    21   6 C    3.959 --    20 C    1.639    23 C    1.187    55 H    0.973
    22   7 N    3.386 --    23 C    1.238    19 C    1.202     1 Fe   0.672
    23   6 C    3.902 --    24 C    1.256    22 N    1.238    21 C    1.187
    24   6 C    3.931 --    23 C    1.256    25 C    1.254   132 C    1.196
    25   6 C    3.902 --    24 C    1.254    29 N    1.239    26 C    1.188
    26   6 C    3.959 --    27 C    1.637    25 C    1.188    56 H    0.973
    27   6 C    3.956 --    26 C    1.637    28 C    1.179    57 H    0.973
    28   6 C    3.917 --    30 C    1.329    29 N    1.202    27 C    1.179
    29   7 N    3.383 --    25 C    1.239    28 C    1.202     1 Fe   0.664
    30   6 C    3.929 --    28 C    1.329    41 C    1.316    31 C    1.031
    31   6 C    3.986 --    32 C    1.391    40 C    1.389    30 C    1.031
    32   6 C    3.986 --    33 C    1.449    31 C    1.391    58 H    0.971
                            39 C    0.106
    33   6 C    3.989 --    32 C    1.449    34 C    1.408    59 H    0.966
                            40 C    0.106
    34   6 C    3.931 --    33 C    1.408    39 C    1.407    35 S    0.754
    35  16 S    5.267 --    38 O    1.727    36 O    1.714    37 O    1.014
                            34 C    0.754
    36   8 O    2.073 --    35 S    1.714    38 O    0.139
    37   8 O    2.088 --    35 S    1.014    60 H    0.828
    38   8 O    2.085 --    35 S    1.727    36 O    0.139
    39   6 C    3.989 --    40 C    1.451    34 C    1.407    61 H    0.967
                            32 C    0.106
    40   6 C    3.986 --    39 C    1.451    31 C    1.389    62 H    0.971
                            33 C    0.106
    41   6 C    3.921 --    30 C    1.316    45 N    1.222    42 C    1.173
    42   6 C    3.961 --    43 C    1.651    41 C    1.173    63 H    0.973
    43   6 C    3.958 --    42 C    1.651    44 C    1.172    64 H    0.974
    44   6 C    3.921 --     2 C    1.366    45 N    1.205    43 C    1.172
    45   7 N    3.386 --    41 C    1.222    44 C    1.205     1 Fe   0.679
    46   1 H    1.000 --     2 C    0.970
    47   1 H    0.997 --     4 C    0.975
    48   1 H    1.003 --     5 C    0.973
    49   1 H    1.003 --    10 C    0.971
    50   1 H    0.999 --    11 C    0.967
    51   1 H    0.854 --    15 O    0.827
    52   1 H    0.999 --    17 C    0.967
    53   1 H    1.003 --    18 C    0.971
    54   1 H    1.003 --    20 C    0.973
    55   1 H    1.001 --    21 C    0.973
    56   1 H    1.001 --    26 C    0.973
    57   1 H    1.003 --    27 C    0.973
    58   1 H    1.003 --    32 C    0.971
    59   1 H    0.999 --    33 C    0.966
    60   1 H    0.854 --    37 O    0.828
    61   1 H    0.999 --    39 C    0.967
    62   1 H    1.003 --    40 C    0.971
    63   1 H    1.003 --    42 C    0.973
    64   1 H    0.997 --    43 C    0.974
    65  26 Fe   3.269 --   109 N    0.691    86 N    0.684    71 N    0.680
                            93 N    0.674
    66   6 C    3.943 --   108 C    1.366    67 C    1.362   110 H    0.970
    67   6 C    3.921 --    66 C    1.362    71 N    1.208    68 C    1.172
    68   6 C    3.959 --    69 C    1.651    67 C    1.172   111 H    0.975
    69   6 C    3.960 --    68 C    1.651    70 C    1.173   112 H    0.973
    70   6 C    3.921 --    72 C    1.319    71 N    1.219    69 C    1.173
    71   7 N    3.392 --    70 C    1.219    67 C    1.208    65 Fe   0.680
    72   6 C    3.944 --    83 C    1.328    70 C    1.319    73 C    1.028
    73   6 C    3.986 --    74 C    1.391    82 C    1.391    72 C    1.028
    74   6 C    3.986 --    75 C    1.449    73 C    1.391   113 H    0.971
                            81 C    0.106
    75   6 C    3.989 --    74 C    1.449    76 C    1.408   114 H    0.967
                            82 C    0.106
    76   6 C    3.931 --    75 C    1.408    81 C    1.408    77 S    0.754
    77  16 S    5.265 --    78 O    1.720    80 O    1.719    79 O    1.013
                            76 C    0.754
    78   8 O    2.078 --    77 S    1.720    80 O    0.139
    79   8 O    2.087 --    77 S    1.013   115 H    0.827
    80   8 O    2.078 --    77 S    1.719    78 O    0.139
    81   6 C    3.989 --    82 C    1.450    76 C    1.408   116 H    0.967
                            74 C    0.106
    82   6 C    3.987 --    81 C    1.450    73 C    1.391   117 H    0.971
                            75 C    0.106
    83   6 C    3.916 --    72 C    1.328    86 N    1.203    84 C    1.179
    84   6 C    3.958 --    85 C    1.640    83 C    1.179   118 H    0.973
    85   6 C    3.959 --    84 C    1.640    87 C    1.186   119 H    0.973
    86   7 N    3.396 --    87 C    1.234    83 C    1.203    65 Fe   0.684
    87   6 C    3.904 --    88 C    1.264    86 N    1.234    85 C    1.186
    88   6 C    3.948 --    87 C    1.264    89 C    1.260   140 C    1.184
    89   6 C    3.905 --    88 C    1.260    93 N    1.235    90 C    1.188
    90   6 C    3.959 --    91 C    1.638    89 C    1.188   120 H    0.973
    91   6 C    3.958 --    90 C    1.638    92 C    1.180   121 H    0.973
    92   6 C    3.916 --    94 C    1.327    93 N    1.203    91 C    1.180
    93   7 N    3.392 --    89 C    1.235    92 C    1.203    65 Fe   0.674
    94   6 C    3.944 --    92 C    1.327   105 C    1.319    95 C    1.029
    95   6 C    3.986 --    96 C    1.391   104 C    1.390    94 C    1.029
    96   6 C    3.986 --    97 C    1.449    95 C    1.391   122 H    0.971
                           103 C    0.106
    97   6 C    3.989 --    96 C    1.449    98 C    1.408   123 H    0.966
                           104 C    0.106
    98   6 C    3.931 --    97 C    1.408   103 C    1.407    99 S    0.754
    99  16 S    5.267 --   102 O    1.727   100 O    1.714   101 O    1.014
                            98 C    0.754
   100   8 O    2.073 --    99 S    1.714   102 O    0.139
   101   8 O    2.088 --    99 S    1.014   124 H    0.828
   102   8 O    2.085 --    99 S    1.727   100 O    0.139
   103   6 C    3.989 --   104 C    1.450    98 C    1.407   125 H    0.967
                            96 C    0.106
   104   6 C    3.986 --   103 C    1.450    95 C    1.390   126 H    0.971
                            97 C    0.106
   105   6 C    3.921 --    94 C    1.319   109 N    1.220   106 C    1.172
   106   6 C    3.960 --   107 C    1.652   105 C    1.172   127 H    0.973
   107   6 C    3.959 --   106 C    1.652   108 C    1.171   128 H    0.974
   108   6 C    3.921 --    66 C    1.366   109 N    1.205   107 C    1.171
   109   7 N    3.396 --   105 C    1.220   108 C    1.205    65 Fe   0.691
   110   1 H    1.000 --    66 C    0.970
   111   1 H    0.997 --    68 C    0.975
   112   1 H    1.003 --    69 C    0.973
   113   1 H    1.002 --    74 C    0.971
   114   1 H    0.999 --    75 C    0.967
   115   1 H    0.854 --    79 O    0.827
   116   1 H    0.999 --    81 C    0.967
   117   1 H    1.003 --    82 C    0.971
   118   1 H    1.003 --    84 C    0.973
   119   1 H    1.001 --    85 C    0.973
   120   1 H    1.001 --    90 C    0.973
   121   1 H    1.003 --    91 C    0.973
   122   1 H    1.003 --    96 C    0.971
   123   1 H    0.999 --    97 C    0.966
   124   1 H    0.854 --   101 O    0.828
   125   1 H    0.999 --   103 C    0.967
   126   1 H    1.003 --   104 C    0.971
   127   1 H    1.003 --   106 C    0.973
   128   1 H    0.997 --   107 C    0.974
   129   6 C    3.914 --   130 C    2.348   133 C    1.346   132 C    0.186
   130   6 C    3.913 --   129 C    2.348   131 C    1.345   134 C    0.186
   131   6 C    3.925 --   132 C    2.432   130 C    1.345
   132   6 C    3.878 --   131 C    2.432    24 C    1.196   129 C    0.186
   133   6 C    3.921 --   134 C    2.429   129 C    1.346
   134   6 C    3.881 --   133 C    2.429   142 C    1.201   130 C    0.186
   135   6 C    3.914 --   136 C    2.365   139 C    1.332   138 C    0.187
   136   6 C    3.917 --   135 C    2.365   137 C    1.334   140 C    0.187
   137   6 C    3.924 --   138 C    2.444   136 C    1.334
   138   6 C    3.883 --   137 C    2.444   164 C    1.190   135 C    0.187
   139   6 C    3.929 --   140 C    2.449   135 C    1.332
   140   6 C    3.882 --   139 C    2.449    88 C    1.184   136 C    0.187
   141  26 Fe   3.208 --   162 N    0.673   185 N    0.672   169 N    0.662
                           147 N    0.660
   142   6 C    3.926 --   184 C    1.252   143 C    1.250   134 C    1.201
   143   6 C    3.904 --   142 C    1.250   147 N    1.241   144 C    1.189
   144   6 C    3.959 --   145 C    1.636   143 C    1.189   186 H    0.973
   145   6 C    3.959 --   144 C    1.636   146 C    1.181   187 H    0.973
   146   6 C    3.915 --   148 C    1.323   147 N    1.204   145 C    1.181
   147   7 N    3.377 --   143 C    1.241   146 C    1.204   141 Fe   0.660
   148   6 C    3.930 --   146 C    1.323   159 C    1.321   149 C    1.031
   149   6 C    3.986 --   150 C    1.391   158 C    1.389   148 C    1.031
   150   6 C    3.986 --   151 C    1.448   149 C    1.391   188 H    0.971
                           157 C    0.106
   151   6 C    3.989 --   150 C    1.448   152 C    1.409   189 H    0.966
                           158 C    0.106
   152   6 C    3.931 --   151 C    1.409   157 C    1.407   153 S    0.754
   153  16 S    5.269 --   156 O    1.728   154 O    1.714   155 O    1.015
                           152 C    0.754
   154   8 O    2.073 --   153 S    1.714   156 O    0.139
   155   8 O    2.089 --   153 S    1.015   190 H    0.827
   156   8 O    2.086 --   153 S    1.728   154 O    0.139
   157   6 C    3.989 --   158 C    1.451   152 C    1.407   191 H    0.967
                           150 C    0.106
   158   6 C    3.986 --   157 C    1.451   149 C    1.389   192 H    0.971
                           151 C    0.106
   159   6 C    3.915 --   148 C    1.321   162 N    1.205   160 C    1.181
   160   6 C    3.959 --   161 C    1.637   159 C    1.181   193 H    0.973
   161   6 C    3.959 --   160 C    1.637   163 C    1.188   194 H    0.973
   162   7 N    3.383 --   163 C    1.237   159 C    1.205   141 Fe   0.673
   163   6 C    3.904 --   164 C    1.258   162 N    1.237   161 C    1.188
   164   6 C    3.929 --   163 C    1.258   165 C    1.256   138 C    1.190
   165   6 C    3.905 --   164 C    1.256   169 N    1.237   166 C    1.189
   166   6 C    3.959 --   167 C    1.636   165 C    1.189   195 H    0.973
   167   6 C    3.959 --   166 C    1.636   168 C    1.182   196 H    0.973
   168   6 C    3.915 --   170 C    1.319   169 N    1.206   167 C    1.182
   169   7 N    3.378 --   165 C    1.237   168 C    1.206   141 Fe   0.662
   170   6 C    3.930 --   181 C    1.325   168 C    1.319   171 C    1.031
   171   6 C    3.986 --   172 C    1.391   180 C    1.389   170 C    1.031
   172   6 C    3.986 --   173 C    1.449   171 C    1.391   197 H    0.971
                           179 C    0.106
   173   6 C    3.989 --   172 C    1.449   174 C    1.408   198 H    0.966
                           180 C    0.106
   174   6 C    3.931 --   173 C    1.408   179 C    1.407   175 S    0.754
   175  16 S    5.268 --   178 O    1.728   176 O    1.714   177 O    1.015
                           174 C    0.754
   176   8 O    2.073 --   175 S    1.714   178 O    0.139
   177   8 O    2.089 --   175 S    1.015   199 H    0.827
   178   8 O    2.086 --   175 S    1.728   176 O    0.139
   179   6 C    3.989 --   180 C    1.451   174 C    1.407   200 H    0.967
                           172 C    0.106
   180   6 C    3.986 --   179 C    1.451   171 C    1.389   201 H    0.971
                           173 C    0.106
   181   6 C    3.915 --   170 C    1.325   185 N    1.202   182 C    1.181
   182   6 C    3.958 --   183 C    1.636   181 C    1.181   202 H    0.973
   183   6 C    3.959 --   182 C    1.636   184 C    1.189   203 H    0.973
   184   6 C    3.903 --   142 C    1.252   185 N    1.241   183 C    1.189
   185   7 N    3.382 --   184 C    1.241   181 C    1.202   141 Fe   0.672
   186   1 H    1.001 --   144 C    0.973
   187   1 H    1.003 --   145 C    0.973
   188   1 H    1.003 --   150 C    0.971
   189   1 H    0.999 --   151 C    0.966
   190   1 H    0.854 --   155 O    0.827
   191   1 H    0.999 --   157 C    0.967
   192   1 H    1.003 --   158 C    0.971
   193   1 H    1.003 --   160 C    0.973
   194   1 H    1.001 --   161 C    0.973
   195   1 H    1.001 --   166 C    0.973
   196   1 H    1.003 --   167 C    0.973
   197   1 H    1.003 --   172 C    0.971
   198   1 H    0.999 --   173 C    0.966
   199   1 H    0.854 --   177 O    0.827
   200   1 H    0.999 --   179 C    0.967
   201   1 H    1.003 --   180 C    0.971
   202   1 H    1.003 --   182 C    0.973
   203   1 H    1.001 --   183 C    0.973
 ---------------------------------------------------------------------------

           -------------------------------------------------
          | TOTAL ENERGY             -411.717720408392 Eh   |
          | GRADIENT NORM               0.000971222584 Eh/α |
          | HOMO-LUMO GAP               0.096956379487 eV   |
           -------------------------------------------------

 * finished run on 2022/07/29 at 21:51:34.636
