   * xtb version 6.5.1 (b24c23e) compiled by 'conda@728c89f4b128' on 2022-07-12
          program call               : xtb Cu_PhOH_C6_2.xyz --gfn 1 --opt -T 48

   ID    Z sym.   atoms
    1   29 Cu     1, 59
    2    6 C      2-6, 8-12, 14-18, 20-25, 27-31, 33-38, 60-64, 66-70, 72-76,
                  78-83, 85-89, 91-96, 117-122
    3    7 N      7, 19, 26, 39, 65, 77, 84, 97
    4    8 O      13, 32, 71, 90
    5    1 H      40-58, 98-116
########################################################################
[WARNING] Please study the warnings concerning your input carefully
-1- prog_main_parseArguments: Unknown option '-T' provided
########################################################################

          :  Hamiltonian                  GFN1-xTB          :
 * total energy  :  -221.4876287 Eh     change       -0.2398224E-09 Eh
 * total energy  :  -221.6009992 Eh     change       -0.1133706E+00 Eh
 * total energy  :  -221.6529396 Eh     change       -0.5194040E-01 Eh
 * total energy  :  -221.6641482 Eh     change       -0.1120862E-01 Eh
 * total energy  :  -221.6691561 Eh     change       -0.5007870E-02 Eh
 * total energy  :  -221.6716767 Eh     change       -0.2520582E-02 Eh
 * total energy  :  -221.6729588 Eh     change       -0.1282131E-02 Eh
 * total energy  :  -221.6736534 Eh     change       -0.6946049E-03 Eh
 * total energy  :  -221.6741256 Eh     change       -0.4721402E-03 Eh
 * total energy  :  -221.6746126 Eh     change       -0.4870268E-03 Eh
 * total energy  :  -221.6769410 Eh     change       -0.2700429E-04 Eh
 * total energy  :  -221.6769633 Eh     change       -0.2226502E-04 Eh
 * total energy  :  -221.6769834 Eh     change       -0.2017753E-04 Eh
 * total energy  :  -221.6770079 Eh     change       -0.2444597E-04 Eh
 * total energy  :  -221.6770347 Eh     change       -0.2676953E-04 Eh
 * total energy  :  -221.6770548 Eh     change       -0.2016848E-04 Eh
 * total energy  :  -221.6770664 Eh     change       -0.1157855E-04 Eh
 * total energy  :  -221.6770730 Eh     change       -0.6635819E-05 Eh
 * total energy  :  -221.6770772 Eh     change       -0.4194604E-05 Eh
   *** GEOMETRY OPTIMIZATION CONVERGED AFTER 39 ITERATIONS ***

 final structure:
================
122
 xtb: 6.5.1 (b24c23e)
Cu          14.27589361805266       -0.04578843949967       -0.00070337730118
C           10.87139370808153       -0.08014524512969       -0.09454459858198
C           11.50535556074280       -1.31121730073273       -0.01837684168529
C           10.82883761845283       -2.57354388394850        0.06595329944241
C           11.78666232635050       -3.52971686406561        0.15423892722376
C           13.05833164598464       -2.86029423458675        0.11283438356296
N           12.85576500822783       -1.51373226881501        0.01489440692135
C           14.30214408225385       -3.49234975775803        0.18943488903816
C           14.31390067657721       -4.97413494730528        0.27874933167509
C           13.78991915103950       -5.75119611987384       -0.75449121658178
C           13.80151023544363       -7.13536444039944       -0.67612567449235
C           14.33546681533639       -7.75925933544730        0.44884465860760
O           14.36370476074882       -9.11202288491902        0.56828481544828
C           14.85899835446432       -6.99472846607060        1.48971709227035
C           14.84923481870148       -5.61406420666179        1.39908336716818
C           15.53496635089627       -2.83683514947507        0.18684789081147
C           16.81249160577750       -3.49115895630591        0.20837118163660
C           17.75903297452387       -2.51903486518304        0.17487860192123
N           15.72451305642703       -1.48103208131498        0.12950168139721
C           17.06812989296818       -1.26576285412525        0.12589314988289
C           17.70506824987405       -0.01339674411476        0.06647717340550
C           17.04731732990131        1.22730892259781       -0.00719582977050
C           17.71674419556051        2.48998042826701       -0.09412379205769
C           16.75378043946409        3.44440627635285       -0.15759041749380
C           15.48757252983943        2.77043377562366       -0.10235452497849
N           15.70017578015611        1.41941145499396       -0.01975146977331
C           14.24331988058712        3.40228368758054       -0.15450181986768
C           14.22865755679765        4.88553462530511       -0.20836633475987
C           14.76982620715033        5.63879299242709        0.83636305339201
C           14.75235346963915        7.02175024490506        0.79671872693822
C           14.19432991436467        7.67452369718396       -0.30085949543071
O           14.19470979070575        9.03280767967862       -0.30890534217393
C           13.65494520973605        6.93704459796724       -1.35219173300836
C           13.67144990837676        5.55168462786323       -1.30026068875202
C           13.01040332698945        2.74448519286975       -0.15789328691320
C           11.72711398936571        3.39268347722949       -0.16884878876231
C           10.78607856170727        2.41603044425579       -0.16147816575521
C           11.48453886517285        1.16322111645851       -0.13314814717623
N           12.83130111983685        1.39125647610272       -0.12730467264009
H            9.78630663041619       -0.08980307841775       -0.10875851368841
H            9.75727741908983       -2.69778531303649        0.06606588560905
H           11.65000024386559       -4.59463919270054        0.25275222895986
H           13.38561347773408       -5.26692537717126       -1.63643042438695
H           13.39907035907512       -7.73454924132242       -1.48586508487101
H           13.97701109872451       -9.54182351185593       -0.20631812664483
H           15.26724914840683       -7.49322670896616        2.36011027395445
H           15.24589446970124       -5.01910856228517        2.21415815197865
H           16.96297340449185       -4.55835114643313        0.23058807031723
H           18.83140962043012       -2.63158614665504        0.17634507714172
H           18.78705590267311        2.61956867043261       -0.11011815136132
H           16.88599984121802        4.51028499187000       -0.24926227486991
H           15.19239391010202        5.13118637254248        1.69629356680104
H           15.16528975338442        7.60768593775979        1.60853220710793
H           13.78468269468091        9.37999536782299       -1.11241794502628
H           13.22571284216622        7.44946172540344       -2.20658511014125
H           13.26257068847313        4.97901267878836       -2.12535586324063
H           11.57161002254888        4.45958778934806       -0.16765589904758
H            9.71248660612908        2.52115217085286       -0.16486181909202
Cu          30.31143879884572        0.04491990393412       -0.00721128798963
C           33.71597230285433        0.06571953345177       -0.10373873773270
C           33.08197700670681        1.29575710328812       -0.19506668458936
C           33.75852469218517        2.55802390555054       -0.27926793423793
C           32.80060116062443        3.51691020408060       -0.32869783225225
C           31.52888726330824        2.84758960913067       -0.28723600304077
N           31.73146837299772        1.50047479977968       -0.19716499450596
C           30.28474325123161        3.48334331207505       -0.31228717574655
C           30.27294862045964        4.96233535750186       -0.43733373772755
C           30.81486193871400        5.58328614595441       -1.56287760888580
C           30.80357783878672        6.96425571796218       -1.68497670244065
C           30.25132294542002        7.74305471001190       -0.67090840766184
O           30.22241880557590        9.09883555860982       -0.74824596928020
C           29.70960070721625        7.13574830416166        0.46031729047598
C           29.71970107708229        5.75648210564325        0.56992969204877
C           29.05174453700358        2.83303537187397       -0.23077730922376
C           27.77410579378266        3.48184825863725       -0.31648497671232
C           26.82778408290250        2.51472848628143       -0.21026162714868
N           28.86253341383436        1.48357692312413       -0.08737616948323
C           27.51895609224357        1.26898087347757       -0.06629714675834
C           26.88228253069530        0.02177564796823        0.06334654385754
C           27.54032388643631       -1.21567189995386        0.17760965015981
C           26.87121600791419       -2.47690366658023        0.28562622707741
C           27.83439638175842       -3.43031319662403        0.35982440398568
C           29.10042964125487       -2.75607469514708        0.30448179452046
N           28.88747501865859       -1.40771721888914        0.18660698659483
C           30.34446407684724       -3.38955085803730        0.33352305055137
C           30.35932756212209       -4.86531782311928        0.49383812921555
C           29.83672308950955       -5.45858494875031        1.64553283800462
C           29.85502269994926       -6.83276794086049        1.80610878554639
C           30.39474416893647       -7.63820375863136        0.80505415650423
O           30.39567869613937       -8.98339115625567        0.99360730009297
C           30.91511053623201       -7.06137668788029       -0.35103453450152
C           30.89837694271944       -5.68299165635962       -0.49964290162364
C           31.57704031100133       -2.74015674011723        0.22614002158341
C           32.86025703428642       -3.38489087794061        0.29503508991335
C           33.80123504041355       -2.41702891862195        0.16383977352773
C           33.10284167343390       -1.17145653873183        0.02577906325521
N           31.75615812580827       -1.39573001843252        0.06922799858822
H           34.80106396750531        0.07345578338237       -0.11872859220669
H           34.83011836207168        2.68159176050366       -0.28877251567204
H           32.93731367850977        4.58536267831137       -0.37494965712888
H           31.23341597363535        4.97760529659382       -2.35902491395039
H           31.22052064282452        7.44104135976473       -2.56563300465377
H           30.62293481066887        9.41309949067629       -1.56988415215195
H           29.28705151228913        7.75390260440264        1.24269184570217
H           29.30890940812339        5.28479621009067        1.45566073096891
H           27.62334921205651        4.54007095856979       -0.45597550534717
H           25.75542450775025        2.62514488402100       -0.23292491943846
H           25.80092705198448       -2.60707067578678        0.29650224190211
H           27.70253143937375       -4.49781913078400        0.43070376890514
H           29.42813502350159       -4.83120687705761        2.42984648602654
H           29.45677619114303       -7.29451443488584        2.70111392681470
H           30.79220505790343       -9.44375889577462        0.24187015937555
H           31.32992556137883       -7.69265410995489       -1.12961805389942
H           31.29281497513409       -5.23614318663583       -1.40552896791260
H           33.01566503611127       -4.44197004211935        0.43958394158641
H           34.87479633997496       -2.52245739893744        0.16800298415852
C           22.90776795121077        0.00487404168201        0.07484636145215
C           21.67959607163773        0.00274649516507        0.07585350612837
C           20.33475496514824       -0.00023491026543        0.07473832606683
C           19.11099356283451       -0.00316845759751        0.07057388151712
C           24.25260833362397        0.00777085877192        0.07261562158431
C           25.47636151802631        0.01200936821357        0.06853578390974

          :  Hamiltonian                  GFN1-xTB          :
         :: total energy            -221.677077239329 Eh    ::
         :: gradient norm              0.000488224575 Eh/a0 ::
         :: HOMO-LUMO gap              0.000043981957 eV    ::
         :: SCC energy              -225.044874344732 Eh    ::
         :: repulsion energy           3.475131731936 Eh    ::

    * Orbital Energies and Occupations

         #    Occupation            Energy/Eh            Energy/eV
      -------------------------------------------------------------
         1        2.0000           -0.8041237             -21.8813
       ...           ...                  ...                  ...
       190        2.0000           -0.4101322             -11.1603
       191        2.0000           -0.4099724             -11.1559
       192        2.0000           -0.4069862             -11.0747
       193        2.0000           -0.4069811             -11.0745
       194        2.0000           -0.4067037             -11.0670
       195        2.0000           -0.4066759             -11.0662
       196        2.0000           -0.4066712             -11.0661
       197        2.0000           -0.4065578             -11.0630
       198        2.0000           -0.3938781             -10.7180
       199        2.0000           -0.3938730             -10.7178
       200        2.0000           -0.3883699             -10.5681
       201        2.0000           -0.3782202             -10.2919
       202        1.0004           -0.3542366              -9.6393 (HOMO)
       203        0.9996           -0.3542350              -9.6392 (LUMO)
       204                         -0.3361953              -9.1483
       205                         -0.3255433              -8.8585
       206                         -0.3255400              -8.8584
       207                         -0.3245833              -8.8324
       208                         -0.2968189              -8.0769
       209                         -0.2892157              -7.8700
       210                         -0.2813910              -7.6570
       211                         -0.2660274              -7.2390
       212                         -0.2660217              -7.2388
       213                         -0.2660160              -7.2387
       ...                                ...                  ...
       422                          1.5827446              43.0687
      -------------------------------------------------------------
                  HL-Gap            0.0000016 Eh            0.0000 eV

Wiberg/Mayer (AO) data.
largest (>0.10) Wiberg bond orders for each atom

     #   Z sym  total        # sym  WBO       # sym  WBO       # sym  WBO
 ---------------------------------------------------------------------------
     1  29 Cu   2.186 --    39 N    0.506     7 N    0.505    19 N    0.503
                            26 N    0.503
     2   6 C    3.928 --     3 C    1.361    38 C    1.361    40 H    0.971
     3   6 C    3.918 --     2 C    1.361     7 N    1.229     4 C    1.172
     4   6 C    3.955 --     5 C    1.654     3 C    1.172    41 H    0.976
     5   6 C    3.958 --     4 C    1.654     6 C    1.173    42 H    0.973
     6   6 C    3.912 --     8 C    1.318     7 N    1.239     5 C    1.173
     7   7 N    3.243 --     6 C    1.239     3 C    1.229     1 Cu   0.505
     8   6 C    3.935 --    16 C    1.327     6 C    1.318     9 C    1.027
     9   6 C    3.989 --    10 C    1.394    15 C    1.384     8 C    1.027
    10   6 C    3.988 --    11 C    1.452     9 C    1.394    43 H    0.973
                            14 C    0.105
    11   6 C    3.988 --    10 C    1.452    12 C    1.372    44 H    0.970
                            15 C    0.103
    12   6 C    3.901 --    11 C    1.372    14 C    1.365    13 O    1.039
    13   8 O    2.043 --    12 C    1.039    45 H    0.865
    14   6 C    3.990 --    15 C    1.466    12 C    1.365    46 H    0.971
                            10 C    0.105
    15   6 C    3.988 --    14 C    1.466     9 C    1.384    47 H    0.973
                            11 C    0.103
    16   6 C    3.908 --     8 C    1.327    19 N    1.221    17 C    1.180
    17   6 C    3.954 --    18 C    1.642    16 C    1.180    48 H    0.973
    18   6 C    3.956 --    17 C    1.642    20 C    1.187    49 H    0.974
    19   7 N    3.248 --    20 C    1.257    16 C    1.221     1 Cu   0.503
    20   6 C    3.897 --    21 C    1.258    19 N    1.257    18 C    1.187
    21   6 C    3.939 --    22 C    1.259    20 C    1.258   120 C    1.188
    22   6 C    3.897 --    21 C    1.259    26 N    1.257    23 C    1.187
    23   6 C    3.956 --    24 C    1.641    22 C    1.187    50 H    0.974
    24   6 C    3.955 --    23 C    1.641    25 C    1.180    51 H    0.973
    25   6 C    3.908 --    27 C    1.327    26 N    1.221    24 C    1.180
    26   7 N    3.248 --    22 C    1.257    25 C    1.221     1 Cu   0.503
    27   6 C    3.935 --    25 C    1.327    35 C    1.318    28 C    1.028
    28   6 C    3.989 --    34 C    1.394    29 C    1.384    27 C    1.028
    29   6 C    3.988 --    30 C    1.466    28 C    1.384    52 H    0.973
                            33 C    0.102
    30   6 C    3.990 --    29 C    1.466    31 C    1.364    53 H    0.971
                            34 C    0.105
    31   6 C    3.901 --    33 C    1.372    30 C    1.364    32 O    1.040
    32   8 O    2.043 --    31 C    1.040    54 H    0.865
    33   6 C    3.988 --    34 C    1.452    31 C    1.372    55 H    0.970
                            29 C    0.102
    34   6 C    3.988 --    33 C    1.452    28 C    1.394    56 H    0.973
                            30 C    0.105
    35   6 C    3.912 --    27 C    1.318    39 N    1.239    36 C    1.173
    36   6 C    3.958 --    37 C    1.654    35 C    1.173    57 H    0.973
    37   6 C    3.955 --    36 C    1.654    38 C    1.172    58 H    0.976
    38   6 C    3.918 --     2 C    1.361    39 N    1.229    37 C    1.172
    39   7 N    3.244 --    35 C    1.239    38 C    1.229     1 Cu   0.506
    40   1 H    1.002 --     2 C    0.971
    41   1 H    0.998 --     4 C    0.976
    42   1 H    1.005 --     5 C    0.973
    43   1 H    1.005 --    10 C    0.973
    44   1 H    0.999 --    11 C    0.970
    45   1 H    0.887 --    13 O    0.865
    46   1 H    0.999 --    14 C    0.971
    47   1 H    1.005 --    15 C    0.973
    48   1 H    1.005 --    17 C    0.973
    49   1 H    1.002 --    18 C    0.974
    50   1 H    1.002 --    23 C    0.974
    51   1 H    1.005 --    24 C    0.973
    52   1 H    1.005 --    29 C    0.973
    53   1 H    0.999 --    30 C    0.971
    54   1 H    0.887 --    32 O    0.865
    55   1 H    0.999 --    33 C    0.970
    56   1 H    1.005 --    34 C    0.973
    57   1 H    1.005 --    36 C    0.973
    58   1 H    0.998 --    37 C    0.976
    59  29 Cu   2.186 --    97 N    0.505    65 N    0.505    84 N    0.503
                            77 N    0.503
    60   6 C    3.928 --    96 C    1.361    61 C    1.361    98 H    0.971
    61   6 C    3.918 --    60 C    1.361    65 N    1.229    62 C    1.172
    62   6 C    3.954 --    63 C    1.654    61 C    1.172    99 H    0.976
    63   6 C    3.958 --    62 C    1.654    64 C    1.173   100 H    0.973
    64   6 C    3.912 --    66 C    1.318    65 N    1.239    63 C    1.173
    65   7 N    3.243 --    64 C    1.239    61 C    1.229    59 Cu   0.505
    66   6 C    3.935 --    74 C    1.327    64 C    1.318    67 C    1.028
    67   6 C    3.989 --    68 C    1.394    73 C    1.384    66 C    1.028
    68   6 C    3.988 --    69 C    1.452    67 C    1.394   101 H    0.973
                            72 C    0.105
    69   6 C    3.988 --    68 C    1.452    70 C    1.372   102 H    0.970
                            73 C    0.102
    70   6 C    3.901 --    69 C    1.372    72 C    1.365    71 O    1.039
    71   8 O    2.043 --    70 C    1.039   103 H    0.865
    72   6 C    3.990 --    73 C    1.466    70 C    1.365   104 H    0.971
                            68 C    0.105
    73   6 C    3.988 --    72 C    1.466    67 C    1.384   105 H    0.973
                            69 C    0.102
    74   6 C    3.908 --    66 C    1.327    77 N    1.221    75 C    1.180
    75   6 C    3.955 --    76 C    1.642    74 C    1.180   106 H    0.973
    76   6 C    3.956 --    75 C    1.642    78 C    1.187   107 H    0.974
    77   7 N    3.248 --    78 C    1.257    74 C    1.221    59 Cu   0.503
    78   6 C    3.897 --    79 C    1.258    77 N    1.257    76 C    1.187
    79   6 C    3.939 --    80 C    1.259    78 C    1.258   122 C    1.188
    80   6 C    3.897 --    79 C    1.259    84 N    1.257    81 C    1.187
    81   6 C    3.956 --    82 C    1.642    80 C    1.187   108 H    0.974
    82   6 C    3.954 --    81 C    1.642    83 C    1.180   109 H    0.973
    83   6 C    3.908 --    85 C    1.327    84 N    1.221    82 C    1.180
    84   7 N    3.248 --    80 C    1.257    83 C    1.221    59 Cu   0.503
    85   6 C    3.935 --    83 C    1.327    93 C    1.318    86 C    1.027
    86   6 C    3.989 --    92 C    1.394    87 C    1.384    85 C    1.027
    87   6 C    3.988 --    88 C    1.466    86 C    1.384   110 H    0.973
                            91 C    0.103
    88   6 C    3.990 --    87 C    1.466    89 C    1.365   111 H    0.971
                            92 C    0.105
    89   6 C    3.901 --    91 C    1.372    88 C    1.365    90 O    1.039
    90   8 O    2.043 --    89 C    1.039   112 H    0.865
    91   6 C    3.988 --    92 C    1.452    89 C    1.372   113 H    0.970
                            87 C    0.103
    92   6 C    3.988 --    91 C    1.452    86 C    1.394   114 H    0.973
                            88 C    0.105
    93   6 C    3.912 --    85 C    1.318    97 N    1.239    94 C    1.173
    94   6 C    3.958 --    95 C    1.654    93 C    1.173   115 H    0.973
    95   6 C    3.955 --    94 C    1.654    96 C    1.172   116 H    0.976
    96   6 C    3.918 --    60 C    1.361    97 N    1.229    95 C    1.172
    97   7 N    3.244 --    93 C    1.239    96 C    1.229    59 Cu   0.505
    98   1 H    1.002 --    60 C    0.971
    99   1 H    0.998 --    62 C    0.976
   100   1 H    1.005 --    63 C    0.973
   101   1 H    1.005 --    68 C    0.973
   102   1 H    0.999 --    69 C    0.970
   103   1 H    0.887 --    71 O    0.865
   104   1 H    0.999 --    72 C    0.971
   105   1 H    1.005 --    73 C    0.973
   106   1 H    1.005 --    75 C    0.973
   107   1 H    1.002 --    76 C    0.974
   108   1 H    1.002 --    81 C    0.974
   109   1 H    1.005 --    82 C    0.973
   110   1 H    1.005 --    87 C    0.973
   111   1 H    0.999 --    88 C    0.971
   112   1 H    0.887 --    90 O    0.865
   113   1 H    0.999 --    91 C    0.970
   114   1 H    1.005 --    92 C    0.973
   115   1 H    1.005 --    94 C    0.973
   116   1 H    0.998 --    95 C    0.976
   117   6 C    3.927 --   118 C    2.372   121 C    1.333   120 C    0.191
   118   6 C    3.927 --   117 C    2.372   119 C    1.333   122 C    0.191
   119   6 C    3.935 --   120 C    2.453   118 C    1.333
   120   6 C    3.891 --   119 C    2.453    21 C    1.188   117 C    0.191
   121   6 C    3.935 --   122 C    2.453   117 C    1.333
   122   6 C    3.891 --   121 C    2.453    79 C    1.188   118 C    0.191
 ---------------------------------------------------------------------------

           -------------------------------------------------
          | TOTAL ENERGY             -221.677077239329 Eh   |
          | GRADIENT NORM               0.000488224575 Eh/α |
          | HOMO-LUMO GAP               0.000043981957 eV   |
           -------------------------------------------------

 * finished run on 2022/07/30 at 09:05:24.250
