   * xtb version 6.5.1 (b24c23e) compiled by 'conda@728c89f4b128' on 2022-07-12
          program call               : xtb C2Py_C8_2.xyz --gfn 1 --opt -T 48

   ID    Z sym.   atoms
    1    6 C      1-5, 7-12, 14-18, 20-25, 27-32, 34-39, 60-64, 66-71, 73-77,
                  79-84, 86-91, 93-98, 119-126
    2    7 N      6, 13, 19, 26, 33, 40, 65, 72, 78, 85, 92, 99
    3    1 H      41-59, 100-118
########################################################################
[WARNING] Please study the warnings concerning your input carefully
-1- prog_main_parseArguments: Unknown option '-T' provided
########################################################################

          :  Hamiltonian                  GFN1-xTB          :
 * total energy  :  -218.5444503 Eh     change       -0.1274373E-08 Eh
 * total energy  :  -218.7534210 Eh     change       -0.2089707E+00 Eh
 * total energy  :  -218.8276695 Eh     change       -0.7424853E-01 Eh
 * total energy  :  -218.8528053 Eh     change       -0.2513579E-01 Eh
 * total energy  :  -218.8627519 Eh     change       -0.9946581E-02 Eh
 * total energy  :  -218.8684810 Eh     change       -0.5729126E-02 Eh
 * total energy  :  -218.8713150 Eh     change       -0.2833959E-02 Eh
 * total energy  :  -218.8718709 Eh     change       -0.5558860E-03 Eh
 * total energy  :  -218.8738789 Eh     change       -0.2008039E-02 Eh
 * total energy  :  -218.8748535 Eh     change       -0.9745680E-03 Eh
 * total energy  :  -218.8824143 Eh     change       -0.2207284E-04 Eh
 * total energy  :  -218.8824270 Eh     change       -0.1269001E-04 Eh
 * total energy  :  -218.8824427 Eh     change       -0.1570071E-04 Eh
 * total energy  :  -218.8824394 Eh     change        0.3334800E-05 Eh
 * total energy  :  -218.8824384 Eh     change        0.1038377E-05 Eh
 * total energy  :  -218.8824469 Eh     change       -0.8516338E-05 Eh
 * total energy  :  -218.8824417 Eh     change        0.5132823E-05 Eh
 * total energy  :  -218.8824560 Eh     change       -0.1429487E-04 Eh
 * total energy  :  -218.8824585 Eh     change       -0.2436812E-05 Eh
   *** GEOMETRY OPTIMIZATION CONVERGED AFTER 73 ITERATIONS ***

 final structure:
================
126
 xtb: 6.5.1 (b24c23e)
C           10.65809684955424       -0.04705784250396       -0.21937154735747
C           11.26251179955757        0.97052720749519       -0.94874170760386
C           10.61688530933532        1.95321814948843       -1.74864163795633
C           11.58328997276326        2.76014582428453       -2.28402013789481
C           12.84457405628541        2.29250922789027       -1.82669994215253
N           12.60580547222312        1.21568707417569       -1.02781734934488
C           14.10993270996506        2.82736997514654       -2.12831049900451
C           14.13219765572812        3.95532689146245       -2.97848223378640
C           14.14734487320576        4.92347314361290       -3.70991249626690
C           14.17450181155547        6.05006318740520       -4.56322018129300
C           13.00242653094963        6.55469328473705       -5.13805642887788
C           13.08455007862486        7.65873744726969       -5.96757127837752
N           14.23059735225964        8.27321808798340       -6.24998490258769
C           15.34930853055845        7.79953326480035       -5.70745379884652
C           15.37589518243182        6.70179374250084       -4.86614511183065
C           15.33663070139314        2.33039818412309       -1.65920046759542
C           16.61687279787455        2.91519924289981       -2.00604435083911
C           17.55566190872381        2.16828097962426       -1.38753434820702
N           15.50924458178244        1.25910434234092       -0.84653442958775
C           16.84266777307105        1.13338966690276       -0.66410021650290
C           17.49260475541164        0.15071726554504        0.10728538852739
C           16.86213993521532       -0.87335640770654        0.84164208442309
C           17.50228749879700       -1.86640548610489        1.62722571022271
C           16.53091486064987       -2.66544286148333        2.16808186570669
C           15.27304837967892       -2.18069762941792        1.72526294782471
N           15.51963073718723       -1.09839833581902        0.92942567105575
C           14.00796880822816       -2.70868716578409        2.03767763246047
C           13.98487763064551       -3.84321161914511        2.87723466739790
C           13.96909349927068       -4.82321790681468        3.59320398287743
C           13.94246018431516       -5.96772344217440        4.42177265023279
C           15.12467973534647       -6.55516665838234        4.88792947551520
C           15.04341146997276       -7.67781522689617        5.69210913889509
N           13.88896113106645       -8.23431406993207        6.05016704095981
C           12.76067982674169       -7.68145196645397        5.61184782086342
C           12.73236391487615       -6.55919263420238        4.80355195424703
C           12.77966606914719       -2.20304152924899        1.57530119100663
C           11.49241596476870       -2.77998376290526        1.92182118671372
C           10.56089470138076       -2.03652737369149        1.29065222551453
C           11.28233444491267       -1.00816027404655        0.56129465810171
N           12.62088841421575       -1.14164666279269        0.75995905542530
H            9.57485874984004       -0.08565108622618       -0.27368118266370
H            9.55001599823926        2.02354801380279       -1.88876388720593
H           11.44532553522763        3.60586683321982       -2.93854051004199
H           13.32363418536939        0.67344051243054       -0.55879588921023
H           12.04768936779218        6.08469900829141       -4.93502195683060
H           12.19098139952531        8.07086152866662       -6.42733106173992
H           16.26586522159917        8.32566494765875       -5.95746201579240
H           16.30979291255985        6.34952750230538       -4.44566329286508
H           16.74985789268916        3.77797051108397       -2.63897618934080
H           18.62747852678935        2.28464886267452       -1.40131873974907
H           18.56913196301424       -1.95107687051240        1.75703170880326
H           16.66612927615478       -3.51642197079252        2.81605830304763
H           14.80426116378860       -0.54668547923493        0.46743709272593
H           16.08652584350317       -6.13482539521492        4.62010445728613
H           15.94461509996015       -8.15438988290046        6.06706783291756
H           11.83685824619014       -8.16047731346218        5.92331310931872
H           11.79043560517630       -6.14165421704958        4.46889051190710
H           11.35363614049091       -3.63643412961688        2.56241478066320
H            9.48788272844324       -2.14688575763072        1.29767086381185
C           36.06708699608104       -0.21371813394751       -0.07087142440213
C           35.46270755536412       -1.05048783606183        0.86044452347604
C           36.10841813028716       -1.95264445191100        1.75011340443231
C           35.14206659436115       -2.57290971849928        2.49384773786846
C           33.88076153323898       -2.06740765224956        2.07888016224005
N           34.11941176359473       -1.15616195993868        1.09529596116577
C           32.61552282410063       -2.42490461540428        2.57842399443912
C           32.59350800671725       -3.39198141888650        3.60790692588580
C           32.57709847536604       -4.22388474201156        4.49117488201047
C           32.54982009533401       -5.19362775961235        5.51924579376981
C           33.72125754825562       -5.82343061779459        5.95538259717213
C           33.63909684921138       -6.76689328021226        6.96381393518537
N           32.49367843295645       -7.10998414367053        7.54784513759153
C           31.37566540310850       -6.51554204070555        7.13909636805329
C           31.34913174981216       -5.56077154581563        6.13845877469370
C           31.38876914775207       -1.90469697467074        2.13545892669685
C           30.10863029922500       -2.31253859676572        2.67971659457709
C           29.16973857085003       -1.61728295857881        2.00380865132554
N           31.21600249047972       -0.98153728704110        1.15776537892416
C           29.88257250042187       -0.78688780121267        1.05247202877483
C           29.23226784192265        0.08508732722108        0.15812873149266
C           29.86243239483126        0.92579118764518       -0.78083266861219
C           29.22210110185971        1.81294598862700       -1.68417970591300
C           30.19346309716338        2.43819316390161       -2.41910367501519
C           31.45153507769831        1.94754230779105       -1.98340955361632
N           31.20503524622730        1.03906968874222       -0.99372513564912
C           32.71671331314273        2.31765538296889       -2.47244883936173
C           32.73982187310347        3.27659656261385       -3.50804246253168
C           32.75689738061172        4.09605293173777       -4.40325241968377
C           32.78333233675468        5.04596129230820       -5.44924946621593
C           31.60090962280540        5.57214654464272       -5.98316607001486
C           31.68196525336109        6.49576227984930       -7.00982745980374
N           32.83637591528661        6.91534271385217       -7.52161443104288
C           33.96483827111657        6.42058644237955       -7.01902297903695
C           33.99337138670231        5.49305084207781       -5.99311730607693
C           33.94521689136392        1.80459761528401       -2.01875959227681
C           35.23256995759316        2.21386334267008       -2.55280505161083
C           36.16421799432416        1.50608810282029       -1.88205962717828
C           35.44276834625119        0.66724675652574       -0.94088852223124
N           34.10406506125531        0.87780947311323       -1.05317366456787
H           37.15038269569519       -0.26273646460002       -0.11452876242687
H           37.17529630156362       -2.09943938716366        1.80485064061657
H           35.28007861750210       -3.31564293598657        3.26324725508939
H           33.40153276442448       -0.63084878981678        0.60746658323533
H           34.67546609758794       -5.57425412488048        5.50694444511229
H           34.53196837061012       -7.27183340927942        7.32076863804292
H           30.45951842534276       -6.81785628045070        7.63794965816063
H           30.41588349468824       -5.10138507702264        5.83665747810493
H           29.97574163374874       -3.03454508695861        3.46948101272159
H           28.09794981034556       -1.64343513281120        2.11830454887984
H           28.15514349468087        1.94958822105007       -1.75555551171826
H           30.05816617520222        3.17394451150941       -3.19543871783903
H           31.92059106829028        0.52121597003321       -0.49435584894955
H           30.63902370378718        5.25764222228280       -5.59647207047321
H           30.78059345846357        6.91965921454347       -7.44314675805298
H           34.88862868588258        6.78484330770457       -7.45932032941794
H           34.93542841584416        5.11591770216341       -5.61385487256217
H           35.37136647813567        2.94485583993584       -3.33350959765428
H           37.23733475859938        1.52662388014253       -1.98966853508198
C           18.89650124503793        0.17555973439260        0.15192115110639
C           20.12084569652527        0.18486534362397        0.17950974516163
C           21.46284355337863        0.19377967716794        0.19996172813565
C           22.69377120842779        0.19311621715512        0.21015198411121
C           24.03119041545920        0.18500728110004        0.21451920215002
C           25.26203131283171        0.17240696018856        0.21156073206642
C           26.60394839736524        0.14841357993052        0.20282733471115
C           27.82832062494930        0.12498066230145        0.18776419476688

          :  Hamiltonian                  GFN1-xTB          :
         :: total energy            -218.882458475508 Eh    ::
         :: gradient norm              0.000879532576 Eh/a0 ::
         :: HOMO-LUMO gap              0.973606298683 eV    ::
         :: SCC energy              -222.835729255824 Eh    ::
         :: repulsion energy           4.050615105983 Eh    ::

    * Orbital Energies and Occupations

         #    Occupation            Energy/Eh            Energy/eV
      -------------------------------------------------------------
         1        2.0000           -0.8125006             -22.1093
       ...           ...                  ...                  ...
       189        2.0000           -0.4247515             -11.5581
       190        2.0000           -0.4228397             -11.5061
       191        2.0000           -0.4228385             -11.5060
       192        2.0000           -0.4205261             -11.4431
       193        2.0000           -0.4205238             -11.4430
       194        2.0000           -0.4203570             -11.4385
       195        2.0000           -0.4203544             -11.4384
       196        2.0000           -0.4191058             -11.4044
       197        2.0000           -0.4141575             -11.2698
       198        2.0000           -0.4067506             -11.0682
       199        2.0000           -0.4060671             -11.0496
       200        2.0000           -0.3925305             -10.6813
       201        2.0000           -0.3859722             -10.5028 (HOMO)
       202                         -0.3501928              -9.5292 (LUMO)
       203                         -0.3471453              -9.4463
       204                         -0.3452197              -9.3939
       205                         -0.3384951              -9.2109
       206                         -0.3190703              -8.6823
       207                         -0.3149213              -8.5694
       208                         -0.3066548              -8.3445
       209                         -0.2930564              -7.9745
       210                         -0.2900819              -7.8935
       211                         -0.2896751              -7.8825
       212                         -0.2836744              -7.7192
       ...                                ...                  ...
       428                          1.5994188              43.5224
      -------------------------------------------------------------
                  HL-Gap            0.0357794 Eh            0.9736 eV

Wiberg/Mayer (AO) data.
largest (>0.10) Wiberg bond orders for each atom

     #   Z sym  total        # sym  WBO       # sym  WBO       # sym  WBO
 ---------------------------------------------------------------------------
     1   6 C    3.925 --    39 C    1.379     2 C    1.340    41 H    0.971
     2   6 C    3.895 --     1 C    1.340     3 C    1.236     6 N    1.165
     3   6 C    3.953 --     4 C    1.586     2 C    1.236    42 H    0.977
     4   6 C    3.958 --     3 C    1.586     5 C    1.246    43 H    0.975
     5   6 C    3.890 --     7 C    1.256     4 C    1.246     6 N    1.191
     6   7 N    3.472 --     5 C    1.191     2 C    1.165    44 H    0.874
     7   6 C    3.935 --    16 C    1.283     5 C    1.256     8 C    1.161
     8   6 C    3.958 --     9 C    2.624     7 C    1.161
     9   6 C    3.932 --     8 C    2.624    10 C    1.142
    10   6 C    3.987 --    11 C    1.350    15 C    1.350     9 C    1.142
    11   6 C    3.973 --    12 C    1.457    10 C    1.350    45 H    0.974
                            14 C    0.104
    12   6 C    3.973 --    11 C    1.457    13 N    1.407    46 H    0.972
                            15 C    0.104
    13   7 N    2.994 --    12 C    1.407    14 C    1.407
    14   6 C    3.972 --    15 C    1.457    13 N    1.407    47 H    0.972
                            11 C    0.104
    15   6 C    3.973 --    14 C    1.457    10 C    1.350    48 H    0.974
                            12 C    0.104
    16   6 C    3.902 --    19 N    1.309     7 C    1.283    17 C    1.129
    17   6 C    3.965 --    18 C    1.707    16 C    1.129    49 H    0.974
    18   6 C    3.964 --    17 C    1.707    20 C    1.129    50 H    0.974
    19   7 N    3.016 --    20 C    1.327    16 C    1.309
    20   6 C    3.895 --    19 N    1.327    21 C    1.262    18 C    1.129
    21   6 C    3.934 --    20 C    1.262    22 C    1.246   119 C    1.193
    22   6 C    3.878 --    23 C    1.256    21 C    1.246    26 N    1.184
    23   6 C    3.958 --    24 C    1.573    22 C    1.256    51 H    0.975
    24   6 C    3.954 --    23 C    1.573    25 C    1.254    52 H    0.975
    25   6 C    3.890 --    27 C    1.261    24 C    1.254    26 N    1.178
    26   7 N    3.475 --    22 C    1.184    25 C    1.178    53 H    0.873
    27   6 C    3.922 --    36 C    1.268    25 C    1.261    28 C    1.164
    28   6 C    3.958 --    29 C    2.620    27 C    1.164
    29   6 C    3.927 --    28 C    2.620    30 C    1.143
    30   6 C    3.987 --    31 C    1.349    35 C    1.349    29 C    1.143
    31   6 C    3.972 --    32 C    1.457    30 C    1.349    54 H    0.974
                            34 C    0.103
    32   6 C    3.973 --    31 C    1.457    33 N    1.407    55 H    0.972
                            35 C    0.103
    33   7 N    2.993 --    32 C    1.407    34 C    1.407
    34   6 C    3.972 --    35 C    1.457    33 N    1.407    56 H    0.972
                            31 C    0.103
    35   6 C    3.972 --    34 C    1.457    30 C    1.349    57 H    0.974
                            32 C    0.103
    36   6 C    3.919 --    40 N    1.344    27 C    1.268    37 C    1.121
    37   6 C    3.966 --    38 C    1.721    36 C    1.121    58 H    0.975
    38   6 C    3.967 --    37 C    1.721    39 C    1.117    59 H    0.976
    39   6 C    3.919 --     1 C    1.379    40 N    1.281    38 C    1.117
    40   7 N    3.008 --    36 C    1.344    39 C    1.281
    41   1 H    1.002 --     1 C    0.971
    42   1 H    0.997 --     3 C    0.977
    43   1 H    1.002 --     4 C    0.975
    44   1 H    0.986 --     6 N    0.874
    45   1 H    1.002 --    11 C    0.974
    46   1 H    1.013 --    12 C    0.972
    47   1 H    1.013 --    14 C    0.972
    48   1 H    1.002 --    15 C    0.974
    49   1 H    1.003 --    17 C    0.974
    50   1 H    1.002 --    18 C    0.974
    51   1 H    1.001 --    23 C    0.975
    52   1 H    1.002 --    24 C    0.975
    53   1 H    0.987 --    26 N    0.873
    54   1 H    1.002 --    31 C    0.974
    55   1 H    1.013 --    32 C    0.972
    56   1 H    1.013 --    34 C    0.972
    57   1 H    1.002 --    35 C    0.974
    58   1 H    1.003 --    37 C    0.975
    59   1 H    0.998 --    38 C    0.976
    60   6 C    3.925 --    98 C    1.379    61 C    1.340   100 H    0.971
    61   6 C    3.895 --    60 C    1.340    62 C    1.236    65 N    1.165
    62   6 C    3.953 --    63 C    1.586    61 C    1.236   101 H    0.977
    63   6 C    3.958 --    62 C    1.586    64 C    1.246   102 H    0.975
    64   6 C    3.890 --    66 C    1.256    63 C    1.246    65 N    1.191
    65   7 N    3.472 --    64 C    1.191    61 C    1.165   103 H    0.874
    66   6 C    3.935 --    75 C    1.283    64 C    1.256    67 C    1.161
    67   6 C    3.958 --    68 C    2.624    66 C    1.161
    68   6 C    3.932 --    67 C    2.624    69 C    1.142
    69   6 C    3.987 --    70 C    1.350    74 C    1.350    68 C    1.142
    70   6 C    3.973 --    71 C    1.457    69 C    1.350   104 H    0.974
                            73 C    0.104
    71   6 C    3.973 --    70 C    1.457    72 N    1.407   105 H    0.972
                            74 C    0.104
    72   7 N    2.994 --    71 C    1.407    73 C    1.407
    73   6 C    3.972 --    74 C    1.457    72 N    1.407   106 H    0.972
                            70 C    0.104
    74   6 C    3.973 --    73 C    1.457    69 C    1.350   107 H    0.974
                            71 C    0.104
    75   6 C    3.902 --    78 N    1.309    66 C    1.283    76 C    1.129
    76   6 C    3.965 --    77 C    1.707    75 C    1.129   108 H    0.974
    77   6 C    3.964 --    76 C    1.707    79 C    1.129   109 H    0.974
    78   7 N    3.016 --    79 C    1.327    75 C    1.309
    79   6 C    3.895 --    78 N    1.327    80 C    1.261    77 C    1.129
    80   6 C    3.934 --    79 C    1.261    81 C    1.246   126 C    1.193
    81   6 C    3.878 --    82 C    1.256    80 C    1.246    85 N    1.184
    82   6 C    3.958 --    83 C    1.573    81 C    1.256   110 H    0.975
    83   6 C    3.954 --    82 C    1.573    84 C    1.254   111 H    0.975
    84   6 C    3.890 --    86 C    1.261    83 C    1.254    85 N    1.178
    85   7 N    3.475 --    81 C    1.184    84 C    1.178   112 H    0.873
    86   6 C    3.922 --    95 C    1.268    84 C    1.261    87 C    1.164
    87   6 C    3.958 --    88 C    2.620    86 C    1.164
    88   6 C    3.927 --    87 C    2.620    89 C    1.143
    89   6 C    3.987 --    90 C    1.349    94 C    1.349    88 C    1.143
    90   6 C    3.972 --    91 C    1.457    89 C    1.349   113 H    0.974
                            93 C    0.103
    91   6 C    3.973 --    90 C    1.457    92 N    1.407   114 H    0.972
                            94 C    0.103
    92   7 N    2.993 --    91 C    1.407    93 C    1.407
    93   6 C    3.972 --    94 C    1.457    92 N    1.407   115 H    0.972
                            90 C    0.103
    94   6 C    3.972 --    93 C    1.457    89 C    1.349   116 H    0.974
                            91 C    0.103
    95   6 C    3.919 --    99 N    1.344    86 C    1.268    96 C    1.121
    96   6 C    3.966 --    97 C    1.721    95 C    1.121   117 H    0.975
    97   6 C    3.967 --    96 C    1.721    98 C    1.117   118 H    0.976
    98   6 C    3.919 --    60 C    1.379    99 N    1.281    97 C    1.117
    99   7 N    3.008 --    95 C    1.344    98 C    1.281
   100   1 H    1.002 --    60 C    0.971
   101   1 H    0.997 --    62 C    0.977
   102   1 H    1.002 --    63 C    0.975
   103   1 H    0.986 --    65 N    0.874
   104   1 H    1.002 --    70 C    0.974
   105   1 H    1.013 --    71 C    0.972
   106   1 H    1.013 --    73 C    0.972
   107   1 H    1.002 --    74 C    0.974
   108   1 H    1.003 --    76 C    0.974
   109   1 H    1.002 --    77 C    0.974
   110   1 H    1.001 --    82 C    0.975
   111   1 H    1.002 --    83 C    0.975
   112   1 H    0.987 --    85 N    0.873
   113   1 H    1.002 --    90 C    0.974
   114   1 H    1.013 --    91 C    0.972
   115   1 H    1.013 --    93 C    0.972
   116   1 H    1.002 --    94 C    0.974
   117   1 H    1.003 --    96 C    0.975
   118   1 H    0.998 --    97 C    0.976
   119   6 C    3.877 --   120 C    2.437    21 C    1.193   122 C    0.186
   120   6 C    3.933 --   119 C    2.437   121 C    1.346
   121   6 C    3.892 --   122 C    2.333   120 C    1.346   124 C    0.182
   122   6 C    3.924 --   121 C    2.333   123 C    1.371   119 C    0.186
   123   6 C    3.924 --   124 C    2.333   122 C    1.371   126 C    0.186
   124   6 C    3.892 --   123 C    2.333   125 C    1.346   121 C    0.182
   125   6 C    3.933 --   126 C    2.437   124 C    1.346
   126   6 C    3.877 --   125 C    2.437    80 C    1.193   123 C    0.186
 ---------------------------------------------------------------------------

           -------------------------------------------------
          | TOTAL ENERGY             -218.882458475508 Eh   |
          | GRADIENT NORM               0.000879532576 Eh/α |
          | HOMO-LUMO GAP               0.973606298683 eV   |
           -------------------------------------------------

 * finished run on 2022/07/29 at 05:50:46.245
