   * xtb version 6.5.1 (b24c23e) compiled by 'conda@728c89f4b128' on 2022-07-12
          program call               : xtb Co_Ph3Me_C4_3.xyz --gfn 1 --opt -T 48

   ID    Z sym.   atoms
    1   27 Co     1, 75, 157
    2    6 C      2-6, 8-20, 22-27, 29-42, 76-80, 82-94, 96-101, 103-116,
                  149-156, 158-162, 164-176, 178-183, 185-198
    3    7 N      7, 21, 28, 43, 81, 95, 102, 117, 163, 177, 184, 199
    4    1 H      44-74, 118-148, 200-229

          :  Hamiltonian                  GFN1-xTB          :
 * total energy  :  -355.4359660 Eh     change        0.8225243E-09 Eh
 * total energy  :  -355.9255859 Eh     change       -0.4896199E+00 Eh
 * total energy  :  -356.0866532 Eh     change       -0.1610673E+00 Eh
 * total energy  :  -356.1792609 Eh     change       -0.9260774E-01 Eh
 * total energy  :  -356.2360028 Eh     change       -0.5674191E-01 Eh
 * total energy  :  -356.2648874 Eh     change       -0.2888457E-01 Eh
 * total energy  :  -356.2837416 Eh     change       -0.1885418E-01 Eh
 * total energy  :  -356.2961250 Eh     change       -0.1238348E-01 Eh
 * total energy  :  -356.3022915 Eh     change       -0.6166506E-02 Eh
 * total energy  :  -356.3108134 Eh     change       -0.8521902E-02 Eh
 * total energy  :  -356.3536202 Eh     change       -0.1146033E-04 Eh
 * total energy  :  -356.3536288 Eh     change       -0.8634074E-05 Eh
 * total energy  :  -356.3536372 Eh     change       -0.8388005E-05 Eh
 * total energy  :  -356.3536459 Eh     change       -0.8764162E-05 Eh
 * total energy  :  -356.3536554 Eh     change       -0.9438911E-05 Eh
 * total energy  :  -356.3536660 Eh     change       -0.1056844E-04 Eh
 * total energy  :  -356.3536786 Eh     change       -0.1260323E-04 Eh
 * total energy  :  -356.3536956 Eh     change       -0.1700310E-04 Eh
 * total energy  :  -356.3537004 Eh     change       -0.4818042E-05 Eh
   *** GEOMETRY OPTIMIZATION CONVERGED AFTER 94 ITERATIONS ***

 final structure:
================
229
 xtb: 6.5.1 (b24c23e)
Co          33.03652135491387        0.07323893110258       -0.07869988076524
C           29.65039571561248        0.19278611612520       -0.28281046785406
C           30.29956023138939        1.20038762008892        0.39620446496069
C           29.61939763040326        2.28632721315319        1.03463628842227
C           30.57626705307848        3.10543697946285        1.52911763972553
C           31.83858369561193        2.52253479926511        1.18023358253901
N           31.66002025581386        1.33658845337152        0.51437383258654
C           33.05327287628732        3.14854044233179        1.40674336176652
C           33.05813244188953        4.49417767032829        2.04581567625140
C           32.90650580440847        5.63793015614408        1.25621666315838
C           32.74359771870062        5.50726499939124       -0.23474332699632
C           32.90706055336165        6.88930199010473        1.86086054436355
C           33.05454182283963        7.01773800986499        3.23814747883456
C           33.07039660816878        8.37963108116100        3.87816386739848
C           33.20773026460004        5.87270748033373        4.01314395582943
C           33.21122269150400        4.61095989175428        3.43000904339386
C           33.37740140962121        3.37513156897211        4.27342816323685
C           34.25854048067276        2.58434846853678        1.02930842129887
C           35.52056348746768        3.23579709567425        1.21017694362732
C           36.47012805678313        2.36673908683691        0.79055875585985
N           34.43122822795818        1.33167091010800        0.48560240180838
C           35.78510125284426        1.18726636441753        0.36272715698182
C           36.45050819379948        0.03243101602157       -0.05121887455920
C           35.76532000181948       -1.12327205998042       -0.42983204341285
C           36.42711416599006       -2.34252167869097       -0.77431148956248
C           35.45950027318035       -3.22611951378362       -1.11515389626053
C           34.21113268165200       -2.53545378960765       -0.99330805315841
N           34.40907343706720       -1.24981976595452       -0.54166902933196
C           33.00281772623423       -3.08062221271733       -1.38759148956812
C           32.97890751736349       -4.46768852451125       -1.93038741413075
C           33.19205100827217       -4.68946337726209       -3.29441077072984
C           33.45314493896903       -3.52602178622708       -4.21347212280907
C           33.15948718113636       -5.98811046770285       -3.78710661459043
C           32.91912025254292       -7.06802393960581       -2.94244084913031
C           32.87039757082547       -8.46529021592345       -3.49918687689807
C           32.70898272448552       -6.83509723257113       -1.58799902752852
C           32.73611243116447       -5.54386756349194       -1.07290953386029
C           32.50518099243926       -5.29766689787099        0.39417806092978
C           31.81313836963723       -2.37389931727048       -1.31836709308586
C           30.56114899781864       -2.89153834493022       -1.78644525442218
C           29.62260855340817       -1.96026357538644       -1.49855448664105
C           30.30178827003374       -0.88342287507466       -0.84354015994198
N           31.64989713700457       -1.13006419965863       -0.76482024344676
H           28.57036265237868        0.23711603495304       -0.35942603397539
H           28.54699993584216        2.38899333736915        1.08463994837584
H           30.45986829535271        4.02870329454755        2.07353989921736
H           31.82992992858354        4.95741117770555       -0.46889489347028
H           33.58317420539649        4.95581636325814       -0.66179499773952
H           32.69109954564082        6.48735328137236       -0.70785692638987
H           32.78856320691911        7.77730134300938        1.24855831431555
H           32.68766683081279        8.33430476290584        4.89801973050434
H           34.09365242279387        8.76062576183689        3.91602851413529
H           32.46737714194651        9.08477296172343        3.30557075143332
H           33.32400639111423        5.96369266539640        5.08816008261333
H           34.28797170700766        2.84392221337870        3.98944084785457
H           33.43821776395480        3.63038796644123        5.33091607098967
H           32.53545591487068        2.69686037912848        4.12352449057084
H           35.64438086848542        4.22916229564613        1.61013156559564
H           37.54090660960667        2.49120383646212        0.77464973991951
H           37.49540422628595       -2.48576200710067       -0.75033417666984
H           35.56303521602072       -4.25061182682202       -1.43418512380819
H           32.63317362525225       -2.80761611605294       -4.15888030097062
H           33.55746066392184       -3.86067279238773       -5.24510912986634
H           34.36894855596984       -3.00959613809147       -3.91940447068920
H           33.32398878699676       -6.16190639487783       -4.84553034636908
H           33.68436500480710       -8.62618297653037       -4.20724992147976
H           32.94482501751484       -9.20596374349542       -2.70302251417563
H           31.92777708659512       -8.62332857920009       -4.02804535303417
H           32.52109080177022       -7.67052116811215       -0.92151265999744
H           31.61775223698973       -4.67823965299240        0.53817076885817
H           33.35504259796141       -4.76829406555556        0.82885218014311
H           32.36595568447740       -6.23632983064685        0.92960239179646
H           30.43802157657174       -3.84764774273214       -2.26922171684743
H           28.56140792580506       -1.98595802324838       -1.68893523596161
Co          59.85893565100724       -0.00151821847607       -0.10578792937014
C           63.23598691334708        0.02176484820037       -0.24979623593417
C           62.57931706206246       -1.17501480350143       -0.44244046264237
C           63.24038213821134       -2.42244724106723       -0.68126459673844
C           62.27494324478391       -3.32308021576862       -0.98116935636913
C           61.02597737288141       -2.62067453145299       -0.93642558607547
N           61.21872058702214       -1.31876034154722       -0.54919780974844
C           59.82636959917307       -3.15243109929860       -1.38237511154153
C           59.81421424251480       -4.53561862445169       -1.93425562645630
C           60.16244418153748       -4.75726652294296       -3.26956959542564
C           60.54034428849262       -3.59747243985472       -4.15204111386057
C           60.15916189127651       -6.05437182582164       -3.76984091337582
C           59.81708072599994       -7.13178643448386       -2.95992241069787
C           59.80547461581589       -8.53176321626123       -3.51184658187349
C           59.46728454611196       -6.89843626135563       -1.63342122004976
C           59.46166492839875       -5.61023669805559       -1.11236681342769
C           59.08158759633271       -5.36581372391402        0.32370163961412
C           58.64529863423987       -2.43091073313732       -1.34867445363305
C           57.39692576762369       -2.91915656054777       -1.85150561485819
C           56.45236740596278       -2.01602930023169       -1.49385424168259
N           58.47254836632361       -1.21491155486883       -0.72877094892362
C           57.12520367828192       -0.98414057308194       -0.76822065607750
C           56.46115628689307        0.01516614360943       -0.05416297961967
C           57.15428468224518        0.99211238526448        0.66324407148482
C           56.51400108763748        2.00567550023733        1.44186995323358
C           57.48297208292335        2.87115101960059        1.82632554568159
C           58.71160547322179        2.38591680450243        1.27362751519331
N           58.50444523423159        1.19927829469493        0.60781415696271
C           59.89657740757053        3.10108902305424        1.28419986443009
C           59.91999606627127        4.45733023259845        1.89903222590706
C           59.52000005238556        5.56919103574143        1.15151621399492
C           59.05398745015670        5.39349379590323       -0.26924998170350
C           59.55666655125823        6.83090331043213        1.73253658459854
C           59.98280958297561        7.00140161422528        3.04626171903964
C           60.03697067317852        8.37785170158281        3.65213378510243
C           60.37536005058448        5.88792565685949        3.78090461400504
C           60.34873887110774        4.61624375518140        3.21962656699247
C           60.77838296774593        3.41628138044791        4.02091817110894
C           61.06389468716569        2.59904937603691        0.73004852700223
C           62.30213457941132        3.31986361763776        0.68688904524663
C           63.24411731895658        2.45245563311251        0.24701840991069
C           62.58080822503157        1.20289487697901        0.02539995876018
N           61.23542349921774        1.31769520758823        0.27253474575525
H           64.31811819712885        0.03198835124782       -0.30489557388875
H           64.30792778781553       -2.56677306740594       -0.62973694974851
H           62.37931123416057       -4.36744334939514       -1.22803256387313
H           61.47380635961324       -3.14876162613584       -3.80617599224339
H           59.76816840356178       -2.82696225593275       -4.12036918026862
H           60.67226863535991       -3.92077400907690       -5.18416449375612
H           60.43056928776586       -6.22625011691308       -4.80631570001304
H           60.15792261306588       -9.24429572241817       -2.76528066628887
H           58.78809036866076       -8.81293555017548       -3.79347856247018
H           60.43729774553570       -8.60692802676320       -4.39697758340376
H           59.19807158045231       -7.73353046094941       -0.99493185247477
H           58.15909245639964       -4.78396480895752        0.37544596034422
H           58.92883540769176       -6.30673776856843        0.85148196341781
H           59.86239058642519       -4.79884933246128        0.83356597151975
H           57.27643755898759       -3.84041534440569       -2.39838541760957
H           55.39054737281486       -2.03983912113179       -1.67942333553863
H           55.45610762503510        2.04112035490179        1.64716596714009
H           57.39063478744568        3.76811520243471        2.41727517422522
H           59.79723203325011        4.84375801707101       -0.84921639010680
H           58.88119089827938        6.35880248015245       -0.74415520571979
H           58.12344585123358        4.82270008026274       -0.29290485732456
H           59.24833156315174        7.69463129777049        1.15251009431948
H           59.18745278561096        8.97820966034903        3.32473858996607
H           60.03335455581036        8.32543155046477        4.74091551631411
H           60.95115272269523        8.88665179378524        3.33759045545136
H           60.70719059743097        6.01063189784416        4.80672539860168
H           61.68555297529794        2.98334160312611        3.59442849481176
H           60.00270570239275        2.64881531619034        4.00367497370423
H           60.97830108184611        3.69091173391124        5.05621049590129
H           62.41658840656228        4.35388270782760        0.97019713077293
H           64.29886196643072        2.61855048456402        0.09517055573701
C           39.07776032823434        0.01317834643505       -0.06831860614774
C           37.85571285160287        0.02463888078081       -0.05964501512093
C           40.42762572049210        0.00275492426637       -0.06603561895761
C           41.64982324803507       -0.00479740425017       -0.05137255586573
C           52.48341049890227        0.02679294415164       -0.03541977860756
C           51.26149402817499        0.02071856712845       -0.03294289228061
C           53.83395140888690        0.02926226356388       -0.04120829029024
C           55.05563784637837        0.02757838537657       -0.04498376794598
Co          46.45458553290788        0.01587814632025       -0.04096304921337
C           43.05342740433748       -0.01657523114279       -0.04394189833890
C           43.73269858378342        0.47066354022873        1.07631796773901
C           43.07683390513274        0.98596024984936        2.23674763169473
C           44.02914814854547        1.12420002242646        3.19162453326997
C           45.26350560032893        0.69912713999876        2.60559835068561
N           45.07692013906974        0.34649167429860        1.29007663020784
C           46.44176556494380        0.53266135806401        3.31631651836212
C           46.42947030401814        0.74897589789733        4.78940013760232
C           46.82305325374605        1.98030811118546        5.32156772837308
C           47.26222137870398        3.09142380434945        4.40556365725602
C           46.80489574185993        2.16524785031354        6.69892653312045
C           46.40235983104652        1.14329897370480        7.55287921192082
C           46.40808445225743        1.35075445381257        9.04324552048728
C           46.01494853595530       -0.07802037622811        7.01179583938928
C           46.02294133173334       -0.28540628670412        5.63743952088899
C           45.59853324961460       -1.60977120097938        5.06093740259349
C           47.63082078919952        0.17585517819930        2.70174939315138
C           48.87088374228781        0.01884124069657        3.39953744940310
C           49.83472288854673       -0.10893278045412        2.45551560474413
N           47.82565785988214        0.08003449563946        1.34327431723503
C           49.17816167394411       -0.03981009716657        1.18792721019917
C           49.85695105494106        0.00707044450146       -0.03217681590864
C           49.17676060742010        0.03331483477196       -1.25254373328077
C           49.83001930978524        0.11116141879345       -2.52099063375555
C           48.87117913506570       -0.06384585810802       -3.46312322585391
C           47.63734108111471       -0.25227275543051       -2.76303629057345
N           47.83058416490827       -0.14287391803515       -1.40609826414022
C           46.45676475750690       -0.64895296233770       -3.37102462414149
C           46.45322682332290       -0.89825233400457       -4.83889352210660
C           46.03849203811470        0.11127004291554       -5.71254985162157
C           45.59283847838802        1.44279888893420       -5.16940365618485
C           46.04051870015176       -0.12797877644301       -7.08176476409788
C           46.44583270695865       -1.35654716077806       -7.59243714488557
C           46.46178982670052       -1.59836657325470       -9.07753593953200
C           46.85651263807073       -2.35344491699849       -6.71308936240395
C           46.86514233944094       -2.13635245942066       -5.34037242959692
C           47.31395983992328       -3.21945665220598       -4.39604217416638
C           45.27776748154155       -0.80812902104507       -2.66145184675723
C           44.04346012266743       -1.23136325014137       -3.24957571821525
C           43.08331816045048       -1.05164546000111       -2.30996353520762
C           43.73598229458496       -0.52281892428249       -1.15370955953699
N           45.08518633919704       -0.43492094101480       -1.35130204918856
H           42.02045374357276        1.19153215837246        2.30142940184716
H           43.92144550354944        1.47298539383318        4.20598642123410
H           48.19303995120174        2.82009970680701        3.90329516773337
H           47.42497635153404        4.01332024740570        4.96303596052567
H           46.50895638430192        3.27276877905843        3.63705942953108
H           47.10788024138269        3.12168056514047        7.11229462623778
H           47.39810828931413        1.12426101281030        9.44593722748245
H           45.68550650734685        0.69558166036563        9.53015202058036
H           46.17058615927108        2.38544939975111        9.29190380106940
H           45.70038212609636       -0.88138169050163        7.66988028823486
H           44.68248355741517       -1.49172739925787        4.47862063044473
H           46.36954645827707       -2.00011136078442        4.39449471282209
H           45.41606155948404       -2.33720933109643        5.85132551085285
H           48.97446111384142        0.02479745507623        4.47254830930726
H           50.89793259521559       -0.22931361076052        2.58757543877023
H           50.88807370820262        0.26891659854651       -2.65513949513762
H           48.97466163852245       -0.07734689810756       -4.53608601437113
H           44.66762264148606        1.32754512109296       -4.60106846834645
H           45.41753971916939        2.15294947618442       -5.97695014247385
H           46.34833178741481        1.85328956398753       -4.49737600168581
H           45.71967223468519        0.65602407884393       -7.75986433674543
H           46.23457896908899       -2.64059021925188       -9.30332352975391
H           47.45208009096942       -1.37269922114342       -9.48002169961240
H           45.73632879802283       -0.96101731216046       -9.58343001556591
H           47.17349796310427       -3.31530478360392       -7.10265844495641
H           47.48793795144290       -4.15324980198173       -4.92981127272248
H           46.56095169154573       -3.38949184978009       -3.62472939866511
H           48.24060591793551       -2.92534075582832       -3.89889866104997
H           43.94076548195606       -1.60140154189700       -4.25689857228582
H           42.02408821987902       -1.23937606745319       -2.38178472818873

          :  Hamiltonian                  GFN1-xTB          :
         :: total energy            -356.353700376131 Eh    ::
         :: gradient norm              0.000620611027 Eh/a0 ::
         :: HOMO-LUMO gap              0.008903148801 eV    ::
         :: SCC energy              -362.092599627316 Eh    ::
         :: repulsion energy           5.947127626859 Eh    ::

    * Orbital Energies and Occupations

         #    Occupation            Energy/Eh            Energy/eV
      -------------------------------------------------------------
         1        2.0000           -0.7727140             -21.0266
       ...           ...                  ...                  ...
       322        2.0000           -0.3946772             -10.7397
       323        2.0000           -0.3943667             -10.7313
       324        2.0000           -0.3939470             -10.7198
       325        1.9999           -0.3916296             -10.6568
       326        1.9998           -0.3913200             -10.6484
       327        1.9998           -0.3913166             -10.6483
       328        1.9998           -0.3912606             -10.6467
       329        1.9997           -0.3908792             -10.6364
       330        1.9997           -0.3908277             -10.6350
       331        1.9983           -0.3892134             -10.5910
       332        1.8386           -0.3847853             -10.4705
       333        1.1151           -0.3825614             -10.4100
       334        1.1025           -0.3825346             -10.4093 (HOMO)
       335        0.9469           -0.3822074             -10.4004 (LUMO)
       336                         -0.3401863              -9.2569
       337                         -0.3311506              -9.0111
       338                         -0.3271901              -8.9033
       339                         -0.3270324              -8.8990
       340                         -0.3245538              -8.8316
       341                         -0.3240297              -8.8173
       342                         -0.3016505              -8.2083
       343                         -0.2955746              -8.0430
       344                         -0.2938642              -7.9965
       345                         -0.2922868              -7.9535
       ...                                ...                  ...
       747                          1.5142978              41.2061
      -------------------------------------------------------------
                  HL-Gap            0.0003272 Eh            0.0089 eV

Wiberg/Mayer (AO) data.
largest (>0.10) Wiberg bond orders for each atom

     #   Z sym  total        # sym  WBO       # sym  WBO       # sym  WBO
 ---------------------------------------------------------------------------
     1  27 Co   2.996 --     7 N    0.635    43 N    0.634    21 N    0.630
                            28 N    0.630
     2   6 C    3.927 --    42 C    1.366     3 C    1.364    44 H    0.970
     3   6 C    3.926 --     2 C    1.364     7 N    1.205     4 C    1.174
     4   6 C    3.960 --     5 C    1.649     3 C    1.174    45 H    0.975
     5   6 C    3.963 --     4 C    1.649     6 C    1.175    46 H    0.974
     6   6 C    3.919 --     8 C    1.325     7 N    1.211     5 C    1.175
     7   7 N    3.346 --     6 C    1.211     3 C    1.205     1 Co   0.635
     8   6 C    3.931 --    18 C    1.338     6 C    1.325     9 C    1.004
     9   6 C    3.987 --    16 C    1.381    10 C    1.379     8 C    1.004
                            13 C    0.104
    10   6 C    3.984 --    12 C    1.421     9 C    1.379    11 C    1.021
                            15 C    0.103
    11   6 C    3.995 --    10 C    1.021    49 H    0.986    48 H    0.975
                            47 H    0.973
    12   6 C    3.993 --    10 C    1.421    13 C    1.414    50 H    0.970
                            16 C    0.103
    13   6 C    3.988 --    15 C    1.414    12 C    1.414    14 C    1.020
                             9 C    0.104
    14   6 C    3.996 --    13 C    1.020    53 H    0.983    51 H    0.983
                            52 H    0.971
    15   6 C    3.993 --    16 C    1.420    13 C    1.414    54 H    0.970
                            10 C    0.103
    16   6 C    3.985 --    15 C    1.420     9 C    1.381    17 C    1.020
                            12 C    0.103
    17   6 C    3.996 --    16 C    1.020    56 H    0.986    57 H    0.975
                            55 H    0.973
    18   6 C    3.917 --     8 C    1.338    21 N    1.193    19 C    1.179
    19   6 C    3.959 --    20 C    1.639    18 C    1.179    58 H    0.974
    20   6 C    3.962 --    19 C    1.639    22 C    1.188    59 H    0.973
    21   7 N    3.347 --    22 C    1.232    18 C    1.193     1 Co   0.630
    22   6 C    3.907 --    23 C    1.264    21 N    1.232    20 C    1.188
    23   6 C    3.932 --    22 C    1.264    24 C    1.262   150 C    1.182
    24   6 C    3.907 --    23 C    1.262    28 N    1.234    25 C    1.188
    25   6 C    3.962 --    26 C    1.639    24 C    1.188    60 H    0.973
    26   6 C    3.959 --    25 C    1.639    27 C    1.179    61 H    0.974
    27   6 C    3.917 --    29 C    1.340    28 N    1.191    26 C    1.179
    28   7 N    3.347 --    24 C    1.234    27 C    1.191     1 Co   0.630
    29   6 C    3.931 --    27 C    1.340    39 C    1.323    30 C    1.004
    30   6 C    3.987 --    37 C    1.383    31 C    1.377    29 C    1.004
                            34 C    0.104
    31   6 C    3.985 --    33 C    1.424    30 C    1.377    32 C    1.020
                            36 C    0.102
    32   6 C    3.995 --    31 C    1.020    63 H    0.986    62 H    0.974
                            64 H    0.973
    33   6 C    3.993 --    31 C    1.424    34 C    1.410    65 H    0.971
                            37 C    0.103
    34   6 C    3.988 --    36 C    1.418    33 C    1.410    35 C    1.020
                            30 C    0.104
    35   6 C    3.996 --    34 C    1.020    67 H    0.985    66 H    0.980
                            68 H    0.972
    36   6 C    3.993 --    34 C    1.418    37 C    1.417    69 H    0.970
                            31 C    0.102
    37   6 C    3.984 --    36 C    1.417    30 C    1.383    38 C    1.021
                            33 C    0.103
    38   6 C    3.996 --    37 C    1.021    72 H    0.986    71 H    0.974
                            70 H    0.973
    39   6 C    3.919 --    29 C    1.323    43 N    1.213    40 C    1.175
    40   6 C    3.963 --    41 C    1.649    39 C    1.175    73 H    0.974
    41   6 C    3.959 --    40 C    1.649    42 C    1.174    74 H    0.975
    42   6 C    3.926 --     2 C    1.366    43 N    1.203    41 C    1.174
    43   7 N    3.346 --    39 C    1.213    42 C    1.203     1 Co   0.634
    44   1 H    1.000 --     2 C    0.970
    45   1 H    0.998 --     4 C    0.975
    46   1 H    1.002 --     5 C    0.974
    47   1 H    1.008 --    11 C    0.973
    48   1 H    1.007 --    11 C    0.975
    49   1 H    1.004 --    11 C    0.986
    50   1 H    1.000 --    12 C    0.970
    51   1 H    1.004 --    14 C    0.983
    52   1 H    1.006 --    14 C    0.971
    53   1 H    1.004 --    14 C    0.983
    54   1 H    1.000 --    15 C    0.970
    55   1 H    1.008 --    17 C    0.973
    56   1 H    1.004 --    17 C    0.986
    57   1 H    1.007 --    17 C    0.975
    58   1 H    1.002 --    19 C    0.974
    59   1 H    1.002 --    20 C    0.973
    60   1 H    1.002 --    25 C    0.973
    61   1 H    1.002 --    26 C    0.974
    62   1 H    1.007 --    32 C    0.974
    63   1 H    1.004 --    32 C    0.986
    64   1 H    1.008 --    32 C    0.973
    65   1 H    0.999 --    33 C    0.971
    66   1 H    1.005 --    35 C    0.980
    67   1 H    1.004 --    35 C    0.985
    68   1 H    1.006 --    35 C    0.972
    69   1 H    1.000 --    36 C    0.970
    70   1 H    1.007 --    38 C    0.973
    71   1 H    1.007 --    38 C    0.974
    72   1 H    1.004 --    38 C    0.986
    73   1 H    1.002 --    40 C    0.974
    74   1 H    0.998 --    41 C    0.975
    75  27 Co   3.044 --    81 N    0.642   117 N    0.642   102 N    0.637
                            95 N    0.637
    76   6 C    3.930 --   116 C    1.366    77 C    1.364   118 H    0.970
    77   6 C    3.925 --    76 C    1.364    81 N    1.202    78 C    1.175
    78   6 C    3.960 --    79 C    1.649    77 C    1.175   119 H    0.975
    79   6 C    3.963 --    78 C    1.649    80 C    1.175   120 H    0.974
    80   6 C    3.920 --    82 C    1.327    81 N    1.207    79 C    1.175
    81   7 N    3.349 --    80 C    1.207    77 C    1.202    75 Co   0.642
    82   6 C    3.934 --    92 C    1.336    80 C    1.327    83 C    1.004
    83   6 C    3.987 --    84 C    1.382    90 C    1.379    82 C    1.004
                            87 C    0.104
    84   6 C    3.984 --    86 C    1.419    83 C    1.382    85 C    1.020
                            89 C    0.103
    85   6 C    3.995 --    84 C    1.020   123 H    0.986   122 H    0.976
                           121 H    0.972
    86   6 C    3.993 --    84 C    1.419    87 C    1.416   124 H    0.970
                            90 C    0.102
    87   6 C    3.988 --    86 C    1.416    89 C    1.412    88 C    1.020
                            83 C    0.104
    88   6 C    3.996 --    87 C    1.020   127 H    0.984   125 H    0.981
                           126 H    0.972
    89   6 C    3.993 --    90 C    1.423    87 C    1.412   128 H    0.971
                            84 C    0.103
    90   6 C    3.985 --    89 C    1.423    83 C    1.379    91 C    1.020
                            86 C    0.102
    91   6 C    3.995 --    90 C    1.020   130 H    0.986   131 H    0.975
                           129 H    0.972
    92   6 C    3.917 --    82 C    1.336    95 N    1.192    93 C    1.180
    93   6 C    3.960 --    94 C    1.639    92 C    1.180   132 H    0.974
    94   6 C    3.962 --    93 C    1.639    96 C    1.188   133 H    0.974
    95   7 N    3.350 --    96 C    1.227    92 C    1.192    75 Co   0.637
    96   6 C    3.908 --    97 C    1.266    95 N    1.227    94 C    1.188
    97   6 C    3.936 --    96 C    1.266    98 C    1.265   156 C    1.179
    98   6 C    3.908 --    97 C    1.265   102 N    1.229    99 C    1.189
    99   6 C    3.962 --   100 C    1.639    98 C    1.189   134 H    0.974
   100   6 C    3.960 --    99 C    1.639   101 C    1.179   135 H    0.974
   101   6 C    3.917 --   103 C    1.339   102 N    1.190   100 C    1.179
   102   7 N    3.350 --    98 C    1.229   101 C    1.190    75 Co   0.637
   103   6 C    3.934 --   101 C    1.339   113 C    1.324   104 C    1.004
   104   6 C    3.987 --   111 C    1.382   105 C    1.378   103 C    1.004
                           108 C    0.104
   105   6 C    3.984 --   107 C    1.423   104 C    1.378   106 C    1.020
                           110 C    0.102
   106   6 C    3.995 --   105 C    1.020   137 H    0.986   136 H    0.975
                           138 H    0.972
   107   6 C    3.993 --   105 C    1.423   108 C    1.411   139 H    0.971
                           111 C    0.103
   108   6 C    3.988 --   110 C    1.416   107 C    1.411   109 C    1.020
                           104 C    0.104
   109   6 C    3.996 --   108 C    1.020   141 H    0.984   140 H    0.981
                           142 H    0.972
   110   6 C    3.993 --   111 C    1.418   108 C    1.416   143 H    0.970
                           105 C    0.102
   111   6 C    3.984 --   110 C    1.418   104 C    1.382   112 C    1.020
                           107 C    0.103
   112   6 C    3.995 --   111 C    1.020   146 H    0.986   145 H    0.976
                           144 H    0.972
   113   6 C    3.920 --   103 C    1.324   117 N    1.209   114 C    1.175
   114   6 C    3.963 --   115 C    1.649   113 C    1.175   147 H    0.974
   115   6 C    3.960 --   114 C    1.649   116 C    1.174   148 H    0.975
   116   6 C    3.925 --    76 C    1.366   117 N    1.200   115 C    1.174
   117   7 N    3.349 --   113 C    1.209   116 C    1.200    75 Co   0.642
   118   1 H    1.000 --    76 C    0.970
   119   1 H    0.998 --    78 C    0.975
   120   1 H    1.001 --    79 C    0.974
   121   1 H    1.008 --    85 C    0.972
   122   1 H    1.007 --    85 C    0.976
   123   1 H    1.004 --    85 C    0.986
   124   1 H    1.000 --    86 C    0.970
   125   1 H    1.005 --    88 C    0.981
   126   1 H    1.006 --    88 C    0.972
   127   1 H    1.004 --    88 C    0.984
   128   1 H    0.999 --    89 C    0.971
   129   1 H    1.008 --    91 C    0.972
   130   1 H    1.004 --    91 C    0.986
   131   1 H    1.007 --    91 C    0.975
   132   1 H    1.001 --    93 C    0.974
   133   1 H    1.001 --    94 C    0.974
   134   1 H    1.001 --    99 C    0.974
   135   1 H    1.001 --   100 C    0.974
   136   1 H    1.007 --   106 C    0.975
   137   1 H    1.004 --   106 C    0.986
   138   1 H    1.008 --   106 C    0.972
   139   1 H    0.999 --   107 C    0.971
   140   1 H    1.005 --   109 C    0.981
   141   1 H    1.004 --   109 C    0.984
   142   1 H    1.006 --   109 C    0.972
   143   1 H    1.000 --   110 C    0.970
   144   1 H    1.008 --   112 C    0.972
   145   1 H    1.007 --   112 C    0.976
   146   1 H    1.004 --   112 C    0.986
   147   1 H    1.001 --   114 C    0.974
   148   1 H    0.998 --   115 C    0.975
   149   6 C    3.930 --   150 C    2.474   151 C    1.307
   150   6 C    3.913 --   149 C    2.474    23 C    1.182   152 C    0.196
   151   6 C    3.924 --   152 C    2.471   149 C    1.307
   152   6 C    3.919 --   151 C    2.471   158 C    1.188   150 C    0.196
   153   6 C    3.924 --   154 C    2.475   155 C    1.303
   154   6 C    3.918 --   153 C    2.475   179 C    1.184   156 C    0.196
   155   6 C    3.931 --   156 C    2.478   153 C    1.303
   156   6 C    3.913 --   155 C    2.478    97 C    1.179   154 C    0.196
   157  27 Co   3.068 --   199 N    0.635   177 N    0.634   184 N    0.631
                           163 N    0.631
   158   6 C    3.923 --   198 C    1.258   159 C    1.258   152 C    1.188
   159   6 C    3.908 --   158 C    1.258   163 N    1.231   160 C    1.191
   160   6 C    3.961 --   161 C    1.634   159 C    1.191   200 H    0.974
   161   6 C    3.961 --   160 C    1.634   162 C    1.184   201 H    0.974
   162   6 C    3.915 --   164 C    1.326   163 N    1.196   161 C    1.184
   163   7 N    3.342 --   159 C    1.231   162 C    1.196   157 Co   0.631
   164   6 C    3.926 --   174 C    1.332   162 C    1.326   165 C    1.005
   165   6 C    3.986 --   172 C    1.380   166 C    1.379   164 C    1.005
                           169 C    0.104
   166   6 C    3.984 --   168 C    1.421   165 C    1.379   167 C    1.020
                           171 C    0.102
   167   6 C    3.995 --   166 C    1.020   203 H    0.986   204 H    0.976
                           202 H    0.972
   168   6 C    3.993 --   166 C    1.421   169 C    1.413   205 H    0.970
                           172 C    0.103
   169   6 C    3.988 --   171 C    1.414   168 C    1.413   170 C    1.020
                           165 C    0.104
   170   6 C    3.996 --   169 C    1.020   207 H    0.983   208 H    0.982
                           206 H    0.971
   171   6 C    3.993 --   172 C    1.420   169 C    1.414   209 H    0.970
                           166 C    0.102
   172   6 C    3.984 --   171 C    1.420   165 C    1.380   173 C    1.021
                           168 C    0.103
   173   6 C    3.995 --   172 C    1.021   212 H    0.986   211 H    0.975
                           210 H    0.972
   174   6 C    3.915 --   164 C    1.332   177 N    1.194   175 C    1.181
   175   6 C    3.961 --   176 C    1.636   174 C    1.181   213 H    0.974
   176   6 C    3.961 --   175 C    1.636   178 C    1.190   214 H    0.974
   177   7 N    3.340 --   178 C    1.233   174 C    1.194   157 Co   0.634
   178   6 C    3.909 --   179 C    1.261   177 N    1.233   176 C    1.190
   179   6 C    3.923 --   178 C    1.261   180 C    1.259   154 C    1.184
   180   6 C    3.909 --   179 C    1.259   184 N    1.232   181 C    1.192
   181   6 C    3.961 --   182 C    1.634   180 C    1.192   215 H    0.974
   182   6 C    3.961 --   181 C    1.634   183 C    1.183   216 H    0.974
   183   6 C    3.915 --   185 C    1.327   184 N    1.195   182 C    1.183
   184   7 N    3.343 --   180 C    1.232   183 C    1.195   157 Co   0.631
   185   6 C    3.926 --   195 C    1.331   183 C    1.327   186 C    1.005
   186   6 C    3.986 --   187 C    1.380   193 C    1.379   185 C    1.005
                           190 C    0.104
   187   6 C    3.984 --   189 C    1.420   186 C    1.380   188 C    1.021
                           192 C    0.103
   188   6 C    3.995 --   187 C    1.021   218 H    0.986   219 H    0.976
                           217 H    0.972
   189   6 C    3.992 --   187 C    1.420   190 C    1.415   220 H    0.970
                           193 C    0.102
   190   6 C    3.988 --   189 C    1.415   192 C    1.413   191 C    1.020
                           186 C    0.104
   191   6 C    3.996 --   190 C    1.020   223 H    0.983   221 H    0.982
                           222 H    0.971
   192   6 C    3.993 --   193 C    1.421   190 C    1.413   224 H    0.970
                           187 C    0.103
   193   6 C    3.984 --   192 C    1.421   186 C    1.379   194 C    1.020
                           189 C    0.102
   194   6 C    3.995 --   193 C    1.020   225 H    0.986   226 H    0.976
                           227 H    0.972
   195   6 C    3.915 --   185 C    1.331   199 N    1.193   196 C    1.182
   196   6 C    3.961 --   197 C    1.636   195 C    1.182   228 H    0.974
   197   6 C    3.961 --   196 C    1.636   198 C    1.190   229 H    0.974
   198   6 C    3.908 --   158 C    1.258   199 N    1.233   197 C    1.190
   199   7 N    3.340 --   198 C    1.233   195 C    1.193   157 Co   0.635
   200   1 H    1.001 --   160 C    0.974
   201   1 H    1.001 --   161 C    0.974
   202   1 H    1.009 --   167 C    0.972
   203   1 H    1.004 --   167 C    0.986
   204   1 H    1.007 --   167 C    0.976
   205   1 H    0.999 --   168 C    0.970
   206   1 H    1.006 --   170 C    0.971
   207   1 H    1.004 --   170 C    0.983
   208   1 H    1.004 --   170 C    0.982
   209   1 H    1.000 --   171 C    0.970
   210   1 H    1.008 --   173 C    0.972
   211   1 H    1.006 --   173 C    0.975
   212   1 H    1.004 --   173 C    0.986
   213   1 H    1.001 --   175 C    0.974
   214   1 H    1.001 --   176 C    0.974
   215   1 H    1.001 --   181 C    0.974
   216   1 H    1.001 --   182 C    0.974
   217   1 H    1.008 --   188 C    0.972
   218   1 H    1.004 --   188 C    0.986
   219   1 H    1.007 --   188 C    0.976
   220   1 H    1.000 --   189 C    0.970
   221   1 H    1.004 --   191 C    0.982
   222   1 H    1.006 --   191 C    0.971
   223   1 H    1.004 --   191 C    0.983
   224   1 H    0.999 --   192 C    0.970
   225   1 H    1.004 --   194 C    0.986
   226   1 H    1.006 --   194 C    0.976
   227   1 H    1.008 --   194 C    0.972
   228   1 H    1.001 --   196 C    0.974
   229   1 H    1.001 --   197 C    0.974
 ---------------------------------------------------------------------------

           -------------------------------------------------
          | TOTAL ENERGY             -356.353700376131 Eh   |
          | GRADIENT NORM               0.000620611027 Eh/α |
          | HOMO-LUMO GAP               0.008903148801 eV   |
           -------------------------------------------------

 * finished run on 2022/07/30 at 03:13:55.288
