   * xtb version 6.5.1 (b24c23e) compiled by 'conda@728c89f4b128' on 2022-07-12
          program call               : xtb Co_Py_C2_4.xyz --gfn 1 --opt -T 48

   ID    Z sym.   atoms
    1   27 Co     1, 55, 115, 168
    2    6 C      2-6, 8-11, 13-17, 19-24, 26-29, 31-36, 56-60, 62-65, 67-71,
                  73-78, 80-83, 85-90, 109-114, 116-120, 122-125, 127-131,
                  133-138, 140-143, 145-150, 169-173, 175-178, 180-184,
                  186-191, 193-196, 198-203
    3    7 N      7, 12, 18, 25, 30, 37, 61, 66, 72, 79, 84, 91, 121, 126,
                  132, 139, 144, 151, 174, 179, 185, 192, 197, 204
    4    1 H      38-54, 92-108, 152-167, 205-220

          :  Hamiltonian                  GFN1-xTB          :
 * total energy  :  -391.7416682 Eh     change       -0.8316988E-08 Eh
 * total energy  :  -391.9278230 Eh     change       -0.1861547E+00 Eh
 * total energy  :  -392.0581593 Eh     change       -0.1303363E+00 Eh
 * total energy  :  -392.1329546 Eh     change       -0.7479525E-01 Eh
 * total energy  :  -392.1833838 Eh     change       -0.5042924E-01 Eh
 * total energy  :  -392.2135676 Eh     change       -0.3018382E-01 Eh
 * total energy  :  -392.2385665 Eh     change       -0.2499890E-01 Eh
 * total energy  :  -392.2586822 Eh     change       -0.2011571E-01 Eh
 * total energy  :  -392.2747592 Eh     change       -0.1607697E-01 Eh
 * total energy  :  -392.2879370 Eh     change       -0.1317780E-01 Eh
 * total energy  :  -392.3495494 Eh     change       -0.1008120E-04 Eh
 * total energy  :  -392.3495580 Eh     change       -0.8641550E-05 Eh
 * total energy  :  -392.3495669 Eh     change       -0.8841205E-05 Eh
 * total energy  :  -392.3495726 Eh     change       -0.5672090E-05 Eh
 * total energy  :  -392.3495778 Eh     change       -0.5222191E-05 Eh
 * total energy  :  -392.3495834 Eh     change       -0.5664478E-05 Eh
 * total energy  :  -392.3495892 Eh     change       -0.5729248E-05 Eh
 * total energy  :  -392.3495944 Eh     change       -0.5246997E-05 Eh
 * total energy  :  -392.3495992 Eh     change       -0.4783496E-05 Eh
   *** GEOMETRY OPTIMIZATION CONVERGED AFTER 104 ITERATIONS ***

 final structure:
================
220
 xtb: 6.5.1 (b24c23e)
Co          41.05520210629001       -0.01693901914002       -0.02065833602247
C           37.68583001555814       -0.03704811485994       -0.07701070048416
C           38.34938126218988       -1.24536158195664       -0.06823041283388
C           37.69280326927660       -2.51741629349284       -0.08124104565681
C           38.64562912049600       -3.44879726370909        0.15698661847304
C           39.88587424719669       -2.74507261027119        0.30914165044432
N           39.70012061166707       -1.39967984626141        0.11919140530321
C           41.06067433826671       -3.32524650095438        0.76906566911745
C           41.06196406746482       -4.76694200578906        1.11109510014753
C           41.23798033707640       -5.19956807066426        2.42416431183749
C           41.22931197078027       -6.55947536226132        2.69277285650084
N           41.06470148109552       -7.48272261969993        1.75109750010882
C           40.89872068130543       -7.07756633794629        0.49624312369513
C           40.88739276823328       -5.74093253276946        0.12943204319362
C           42.23264201323295       -2.59903606911627        0.91422757057531
C           43.47354554858092       -3.15516620172541        1.36431780353175
C           44.42565447221445       -2.21753213601770        1.14283227304620
N           42.42053842358523       -1.31063599198730        0.46765045857178
C           43.76691904785228       -1.09338538638190        0.55566332026682
C           44.44258298827861       -0.01161429695321       -0.01421765725679
C           43.76180182374178        1.07435785128919       -0.56920232076890
C           44.41221060100024        2.19774980917728       -1.16657755212106
C           43.45966118387712        3.14191366381930       -1.35944682249075
C           42.22974767474798        2.59258059620649       -0.87342297345867
N           42.41787746852692        1.29652882720027       -0.45323831323538
C           41.04902355401632        3.30958027103454       -0.74486515361357
C           41.05404421351982        4.75759504072822       -1.04636601095172
C           40.22879116444631        5.29873996504756       -2.03173040082371
C           40.27377254588203        6.66201122545702       -2.27676176247212
N           41.06868396453488        7.49232960095688       -1.60930600538855
C           41.85713432559663        6.98512142731714       -0.66717378955885
C           41.88791767201128        5.63540971599524       -0.35419482746222
C           39.86370888254496        2.70278699971224       -0.34985362060523
C           38.61812737388600        3.39255201039873       -0.17978831768423
C           37.66651808344451        2.44489491302664       -0.00769773172315
C           38.33396474024406        1.17951627800117       -0.05348304349671
N           39.68751241256061        1.35120989654985       -0.19909098182048
H           36.60237541573370       -0.04400329928913       -0.09320140860270
H           36.63432769671363       -2.65683308098512       -0.23314198959438
H           38.52926002294477       -4.51663397347333        0.24655570316742
H           41.36476800870726       -4.48164742148433        3.22561115553326
H           41.35996641514651       -6.92197469954920        3.70819208387183
H           40.76911615370043       -7.85559804326798       -0.25038257025775
H           40.75956401420454       -5.45671067527401       -0.90822478469659
H           43.59365219129590       -4.14568570875221        1.77179229437990
H           45.48507709863649       -2.27652478562052        1.33346676284940
H           45.46547969421874        2.24910463274202       -1.39063563983920
H           43.56874377266017        4.12388823053415       -1.79014566187289
H           39.57416546999572        4.65811170479566       -2.61050754999172
H           39.64419742222264        7.10593361600959       -3.04234286358984
H           42.49335298093475        7.68866043217514       -0.13815743607743
H           42.53905208901460        5.26826594803864        0.43017110595255
H           38.50019820317457        4.46384538906930       -0.19787716851911
H           36.60490753646910        2.57087955921433        0.13373008179293
Co          73.49500144658930        0.03701055417800       -0.03953550293802
C           76.86562698780503        0.02136606246040       -0.15475412666522
C           76.19681739476091        1.11384160492410       -0.66388253374063
C           76.84954718960873        2.25333156154418       -1.23405308370917
C           75.89852442352684        3.20176010756359       -1.40162821722952
C           74.66280947007607        2.63604822687163       -0.94432636513721
N           74.84875270806215        1.33935390224106       -0.53948212532423
C           73.49016350628101        3.35919794413541       -0.77025816207337
C           73.49095626237128        4.81043092123323       -1.06990136253911
C           73.32659289595625        5.75607335098656       -0.05943453384255
C           73.33717823286671        7.10266339459196       -0.38821416182163
N           73.49276699635833        7.54304886576283       -1.63241264252443
C           73.64702799214410        6.64680070291018       -2.60155757214091
C           73.65559346404530        5.27984984985232       -2.37183413568385
C           72.31694473601628        2.76552213993274       -0.33208212077973
C           71.07617145394039        3.46316300140407       -0.17405746067084
C           70.12145853868093        2.52213309153257        0.01949514387429
N           72.12595571597075        1.41003875118560       -0.18318788319201
C           70.77805574504029        1.25409820101854       -0.02334283145832
C           70.10129768723725        0.03092251197949       -0.02962961697571
C           70.78619793611499       -1.18706231185275       -0.00818902746152
C           70.14004492230080       -2.46076933054701       -0.03532034162083
C           71.09508878503740       -3.38827428454205        0.21638458321404
C           72.32404933266022       -2.67577983237413        0.39473740752842
N           72.13169176729807       -1.32953410058204        0.18683228150122
C           73.51033639224467       -3.25838369268307        0.81615713320902
C           73.50957492716280       -4.68869300973579        1.19309456793548
C           74.32089258613404       -5.61397664049636        0.53716241935535
C           74.27762720016625       -6.94410869185231        0.92406445517267
N           73.49741757419355       -7.38863555711009        1.90394280257168
C           72.72265316064583       -6.51287349150370        2.53602570750157
C           72.69117589616711       -5.16461369434445        2.21720048489355
C           74.69808940674694       -2.54103798213117        0.87557954570568
C           75.95054150646031       -3.08528698197569        1.31283530089476
C           76.90017022432228       -2.16644850316165        1.01771501499061
C           76.22438823313982       -1.05471725298931        0.42105432470803
N           74.86913630872422       -1.26764459741967        0.39633376875114
H           77.94852663046123        0.01593948361055       -0.19358774944050
H           77.90500524462658        2.30895328442456       -1.44803792513800
H           76.01314583077485        4.20433929161974       -1.78047198778843
H           73.20672466536548        5.44230033353190        0.97060512494776
H           73.21562429072888        7.85933842775081        0.38133777851162
H           73.76906851535939        7.03791760468440       -3.60738295895369
H           73.77358070905471        4.58475460076301       -3.19447843997827
H           70.95886927366165        4.53305841140170       -0.22938194742120
H           69.06312976943295        2.65948246191704        0.16974693784068
H           69.08894209580995       -2.61107400701445       -0.21992099576931
H           70.98885050517646       -4.45925145127626        0.27404121032245
H           74.96285474871793       -5.29981734466253       -0.27715495447895
H           74.89584060578682       -7.68414584639186        0.42434141999153
H           72.09819519274208       -6.90612922094323        3.33286871796950
H           72.05119210132419       -4.48471362115414        2.76689163405062
H           76.07383847567444       -4.04978498801838        1.77805658281466
H           77.96517715055980       -2.21937876545127        1.17848600963613
C           45.84870225289854       -0.01265146391663       -0.02513919512165
C           47.06575072018408       -0.01107779188479       -0.03533507458419
C           56.66540376269231        0.00534324230925       -0.05080952365092
C           57.88361422391665        0.01091161853441       -0.04859920522185
C           67.47759199988086        0.01953298459059       -0.04722965747946
C           68.69551683754081        0.02595095515062       -0.04158344947355
Co          51.86716440779710       -0.00183221310956       -0.04298189125202
C           48.47122760396341       -0.01318417126824       -0.04381746514644
C           49.15516516833366       -0.69526975855513        0.96591712264730
C           48.50930033648813       -1.35734889797276        2.05396444994499
C           49.46702804562187       -2.06542036666508        2.70153624641132
C           50.69264749931317       -1.83638398775352        1.99903507816472
N           50.49931543778103       -0.94124583699528        0.97423942846525
C           51.87467026405369       -2.52488104502897        2.24060164044104
C           51.87514552463280       -3.61490364547964        3.24004361603844
C           51.02924775662574       -4.71617200451164        3.11040238151283
C           51.06544588120232       -5.71252414808694        4.07291529566740
N           51.87012351732050       -5.66942055468950        5.12996558699160
C           52.67723348103840       -4.62199924582491        5.26277569093763
C           52.71844304647279       -3.57972087301204        4.35013801664974
C           53.05378363877159       -2.21680899354237        1.57768141675821
C           54.28728465360864       -2.92152234241306        1.75464307452256
C           55.24191614321477       -2.20112722322862        1.11683224512230
N           53.24035981591851       -1.11807963119618        0.77033295791726
C           54.58589168527203       -1.06879610426532        0.54415302727173
C           55.26249387687527       -0.00081503462736       -0.05375074825690
C           54.57780353343387        1.05737996033209       -0.65972364623699
C           55.22360203446337        2.19250021800398       -1.23800686814969
C           54.26586726934932        2.89046726043998       -1.89630269472631
C           53.04019947454664        2.17212045887191       -1.72123716137788
N           53.23474589550488        1.08279763846583       -0.90418089788925
C           51.85935269097202        2.46237229625586       -2.38986428041599
C           51.85603730402543        3.53982567443656       -3.40291460950973
C           52.69921153633501        3.49289936690885       -4.51280707314932
C           52.65754900482235        4.52512871897245       -5.43658744412620
N           51.85040866437724        5.57407248012386       -5.31463292914965
C           51.04644251846044        5.62859943721566       -4.25780764560293
C           51.01060341319953        4.64254482507369       -3.28452236078450
C           50.67947101475288        1.77684537644731       -2.13179229886629
C           49.44652801456376        2.00592706455395       -2.82183778232544
C           48.49135964496201        1.31709255534435       -2.15055588112633
C           49.14664431340311        0.66159942070270       -1.06402449226425
N           50.49339813014968        0.89136826219722       -1.09652881928619
H           47.45763791861129       -1.28426027226762        2.27912290779582
H           49.36300492899161       -2.68762168736725        3.57535382566819
H           50.36503243630867       -4.79900226129614        2.25842086005288
H           50.41994505664138       -6.58208070541862        3.99141996590028
H           53.32026901089984       -4.61425101777976        6.13796025262393
H           53.38363990547165       -2.73889682334053        4.50646716916397
H           54.39823845294190       -3.84456375433701        2.29982532156649
H           56.29745605759019       -2.40438839329125        1.03567517934006
H           56.27502318989355        2.41248041202235       -1.14728021792634
H           54.36945257457975        3.80845727113514       -2.45142638971597
H           53.36509034430374        2.65086435942153       -4.65944558038609
H           53.30026429813179        4.50853312528220       -6.31186043556964
H           50.40115285860963        6.49908053201030       -4.18474377544051
H           50.34736489557216        4.73539273911309       -2.43281821385224
H           49.33603444897341        2.61756373152531       -3.70227414448500
H           47.43569369265931        1.25235568432385       -2.35899649078753
Co          62.67859753964124        0.00016313561822       -0.07115381109242
C           59.28631433872881        0.01479071451690       -0.04686159517445
C           59.96918372658178       -0.77137506524693        0.88699507252161
C           59.32473347329460       -1.54530193578900        1.89992586540770
C           60.28371740782642       -2.31611289674972        2.46926737475773
C           61.50827775751448       -2.01700017399428        1.79057412116588
N           61.31350260176145       -1.01053893818980        0.87303927203466
C           62.68432322227144       -2.73944496685779        1.93485838221618
C           62.69431871661317       -3.93233318040473        2.80832368210575
C           61.82942899500338       -5.00352767060061        2.58647602245754
C           61.88264254218865       -6.10056478236105        3.43182681274602
N           62.72108614261868       -6.18310874901053        4.45969461367769
C           63.54645078210435       -5.16497177094793        4.68044867352489
C           63.57292269763576       -4.02896462587277        3.88727077373539
C           63.85587784238538       -2.37580097338650        1.28215617231946
C           65.07723931019791       -3.11928096923335        1.33581612416692
C           66.03206024788864       -2.34014939559481        0.77022574316054
N           64.04827414921593       -1.18608271574656        0.62181429814827
C           65.38967004129752       -1.13110922560005        0.36508554293541
C           66.07271609336880        0.01725631386203       -0.04975426343550
C           65.38765778277386        1.16435826178607       -0.46423491412579
C           66.03038193477806        2.37235557704183       -0.87270253162134
C           65.07425561361062        3.15366936143081       -1.43230233128612
C           63.85188665074752        2.41184809151003       -1.37366185035436
N           64.04403212110689        1.22423547700539       -0.70818796918555
C           62.68011867978991        2.77697829956430       -2.02439385190066
C           62.68644858944959        3.97106355027949       -2.89623115784132
C           63.56254567136602        4.07275616584909       -3.97677590636931
C           63.52792965552465        5.20866810481107       -4.76975082363822
N           62.69681382092359        6.22189895657805       -4.54757653889060
C           61.86110678318760        6.13472454088220       -3.51797464240334
C           61.81611684727063        5.03741083628204       -2.67245007861266
C           61.50443420485934        2.05286818565067       -1.88240213497718
C           60.28055832052001        2.34693788007198       -2.56395643121600
C           59.32286776309451        1.57287236085438       -1.99612110181165
C           59.96765028132417        0.80297784416836       -0.98057663039310
N           61.30942174431969        1.05219428380592       -0.95910909721986
H           58.27317054958946       -1.49762363330350        2.13246322203603
H           60.18044417478771       -3.02726488245721        3.27248522054438
H           61.13816818445589       -4.98615678472075        1.75236364356591
H           61.22321631254073       -6.94927504091550        3.27597766089153
H           64.21747329528596       -5.26096995409086        5.52895600885019
H           64.25488671726201       -3.21765917378383        4.11226397494208
H           65.18194364643375       -4.10646736309468        1.75539997448330
H           67.08172027518459       -2.54955465785723        0.64523636296240
H           67.08143888639211        2.57852622504435       -0.75439751547200
H           65.17849540259874        4.14030255311077       -1.85320567760292
H           64.24837843443551        3.26517438830682       -4.20340360874587
H           64.19640103411484        5.30871719582635       -5.61979040758588
H           61.19663555929223        6.97927061807892       -3.36093460948848
H           61.12648745221216        5.01579956086734       -1.83709519470583
H           60.17701487161522        3.05498321522018       -3.36991572234383
H           58.27214554974353        1.52055628597087       -2.23144626263643

          :  Hamiltonian                  GFN1-xTB          :
         :: total energy            -392.349599209050 Eh    ::
         :: gradient norm              0.000607184837 Eh/a0 ::
         :: HOMO-LUMO gap              0.000398679704 eV    ::
         :: SCC energy              -398.420668765095 Eh    ::
         :: repulsion energy           6.282213553067 Eh    ::

    * Orbital Energies and Occupations

         #    Occupation            Energy/Eh            Energy/eV
      -------------------------------------------------------------
         1        2.0000           -0.7812741             -21.2596
       ...           ...                  ...                  ...
       351        2.0000           -0.4012773             -10.9193
       352        1.9999           -0.3986326             -10.8473
       353        1.9999           -0.3985799             -10.8459
       354        1.9999           -0.3984983             -10.8437
       355        1.9999           -0.3983941             -10.8409
       356        1.9998           -0.3981132             -10.8332
       357        1.9998           -0.3980413             -10.8313
       358        1.9998           -0.3980130             -10.8305
       359        1.9998           -0.3979012             -10.8274
       360        1.9985           -0.3960608             -10.7774
       361        1.6258           -0.3906410             -10.6299
       362        1.2078           -0.3896461             -10.6028
       363        1.1409           -0.3895150             -10.5992 (HOMO)
       364        1.1334           -0.3895004             -10.5988 (LUMO)
       365        0.8949           -0.3890450             -10.5865
       366                         -0.3530815              -9.6078
       367                         -0.3441860              -9.3658
       368                         -0.3389381              -9.2230
       369                         -0.3386504              -9.2151
       370                         -0.3356625              -9.1338
       371                         -0.3353278              -9.1247
       372                         -0.3348256              -9.1111
       373                         -0.3275398              -8.9128
       374                         -0.3126845              -8.5086
       ...                                ...                  ...
       768                          1.3325419              36.2603
      -------------------------------------------------------------
                  HL-Gap            0.0000147 Eh            0.0004 eV

Wiberg/Mayer (AO) data.
largest (>0.10) Wiberg bond orders for each atom

     #   Z sym  total        # sym  WBO       # sym  WBO       # sym  WBO
 ---------------------------------------------------------------------------
     1  27 Co   3.039 --     7 N    0.638    37 N    0.638    18 N    0.633
                            25 N    0.633
     2   6 C    3.928 --     3 C    1.366    36 C    1.364    38 H    0.970
     3   6 C    3.924 --     2 C    1.366     7 N    1.200     4 C    1.173
     4   6 C    3.960 --     5 C    1.651     3 C    1.173    39 H    0.975
     5   6 C    3.963 --     4 C    1.651     6 C    1.175    40 H    0.973
     6   6 C    3.920 --     8 C    1.319     7 N    1.212     5 C    1.175
     7   7 N    3.346 --     6 C    1.212     3 C    1.200     1 Co   0.638
     8   6 C    3.931 --    15 C    1.335     6 C    1.319     9 C    1.022
     9   6 C    3.986 --    10 C    1.395    14 C    1.395     8 C    1.022
                            12 N    0.107
    10   6 C    3.988 --    11 C    1.441     9 C    1.395    41 H    0.973
                            13 C    0.109
    11   6 C    3.972 --    10 C    1.441    12 N    1.416    42 H    0.972
                            14 C    0.109
    12   7 N    3.031 --    11 C    1.416    13 C    1.416     9 C    0.107
    13   6 C    3.972 --    14 C    1.441    12 N    1.416    43 H    0.972
                            10 C    0.109
    14   6 C    3.987 --    13 C    1.441     9 C    1.395    44 H    0.973
                            11 C    0.109
    15   6 C    3.917 --     8 C    1.335    18 N    1.192    16 C    1.180
    16   6 C    3.958 --    17 C    1.640    15 C    1.180    45 H    0.973
    17   6 C    3.963 --    16 C    1.640    19 C    1.188    46 H    0.971
    18   7 N    3.346 --    19 C    1.231    15 C    1.192     1 Co   0.633
    19   6 C    3.909 --    20 C    1.263    18 N    1.231    17 C    1.188
    20   6 C    3.933 --    21 C    1.264    19 C    1.263   109 C    1.179
    21   6 C    3.909 --    20 C    1.264    25 N    1.228    22 C    1.189
    22   6 C    3.962 --    23 C    1.637    21 C    1.189    47 H    0.971
    23   6 C    3.959 --    22 C    1.637    24 C    1.181    48 H    0.973
    24   6 C    3.918 --    26 C    1.329    25 N    1.195    23 C    1.181
    25   7 N    3.346 --    21 C    1.228    24 C    1.195     1 Co   0.633
    26   6 C    3.931 --    24 C    1.329    33 C    1.318    27 C    1.032
    27   6 C    3.986 --    28 C    1.391    32 C    1.391    26 C    1.032
                            30 N    0.106
    28   6 C    3.986 --    29 C    1.442    27 C    1.391    49 H    0.972
                            31 C    0.108
    29   6 C    3.972 --    28 C    1.442    30 N    1.415    50 H    0.972
                            32 C    0.108
    30   7 N    3.029 --    31 C    1.415    29 C    1.415    27 C    0.106
    31   6 C    3.972 --    32 C    1.442    30 N    1.415    51 H    0.972
                            28 C    0.108
    32   6 C    3.985 --    31 C    1.442    27 C    1.391    52 H    0.973
                            29 C    0.108
    33   6 C    3.921 --    26 C    1.318    37 N    1.213    34 C    1.176
    34   6 C    3.963 --    35 C    1.649    33 C    1.176    53 H    0.973
    35   6 C    3.958 --    34 C    1.649    36 C    1.174    54 H    0.975
    36   6 C    3.924 --     2 C    1.364    37 N    1.201    35 C    1.174
    37   7 N    3.345 --    33 C    1.213    36 C    1.201     1 Co   0.638
    38   1 H    1.000 --     2 C    0.970
    39   1 H    0.997 --     4 C    0.975
    40   1 H    1.004 --     5 C    0.973
    41   1 H    1.003 --    10 C    0.973
    42   1 H    1.013 --    11 C    0.972
    43   1 H    1.013 --    13 C    0.972
    44   1 H    1.003 --    14 C    0.973
    45   1 H    1.004 --    16 C    0.973
    46   1 H    1.004 --    17 C    0.971
    47   1 H    1.004 --    22 C    0.971
    48   1 H    1.003 --    23 C    0.973
    49   1 H    1.004 --    28 C    0.972
    50   1 H    1.013 --    29 C    0.972
    51   1 H    1.013 --    31 C    0.972
    52   1 H    1.004 --    32 C    0.973
    53   1 H    1.004 --    34 C    0.973
    54   1 H    0.997 --    35 C    0.975
    55  27 Co   3.030 --    61 N    0.636    91 N    0.636    72 N    0.632
                            79 N    0.631
    56   6 C    3.926 --    57 C    1.366    90 C    1.364    92 H    0.970
    57   6 C    3.924 --    56 C    1.366    61 N    1.200    58 C    1.173
    58   6 C    3.960 --    59 C    1.651    57 C    1.173    93 H    0.975
    59   6 C    3.963 --    58 C    1.651    60 C    1.176    94 H    0.973
    60   6 C    3.920 --    62 C    1.318    61 N    1.214    59 C    1.176
    61   7 N    3.345 --    60 C    1.214    57 C    1.200    55 Co   0.636
    62   6 C    3.930 --    69 C    1.336    60 C    1.318    63 C    1.022
    63   6 C    3.986 --    64 C    1.395    68 C    1.395    62 C    1.022
                            66 N    0.107
    64   6 C    3.988 --    65 C    1.441    63 C    1.395    95 H    0.973
                            67 C    0.109
    65   6 C    3.972 --    64 C    1.441    66 N    1.416    96 H    0.972
                            68 C    0.109
    66   7 N    3.031 --    65 C    1.416    67 C    1.416    63 C    0.107
    67   6 C    3.972 --    68 C    1.441    66 N    1.416    97 H    0.972
                            64 C    0.109
    68   6 C    3.987 --    67 C    1.441    63 C    1.395    98 H    0.973
                            65 C    0.109
    69   6 C    3.918 --    62 C    1.336    72 N    1.191    70 C    1.180
    70   6 C    3.957 --    71 C    1.639    69 C    1.180    99 H    0.973
    71   6 C    3.963 --    70 C    1.639    73 C    1.189   100 H    0.969
    72   7 N    3.345 --    73 C    1.234    69 C    1.191    55 Co   0.632
    73   6 C    3.908 --    74 C    1.259    72 N    1.234    71 C    1.189
    74   6 C    3.931 --    75 C    1.261    73 C    1.259   114 C    1.185
    75   6 C    3.908 --    74 C    1.261    79 N    1.230    76 C    1.190
    76   6 C    3.962 --    77 C    1.636    75 C    1.190   101 H    0.969
    77   6 C    3.958 --    76 C    1.636    78 C    1.182   102 H    0.973
    78   6 C    3.918 --    80 C    1.329    79 N    1.195    77 C    1.182
    79   7 N    3.345 --    75 C    1.230    78 C    1.195    55 Co   0.631
    80   6 C    3.930 --    78 C    1.329    87 C    1.317    81 C    1.032
    81   6 C    3.986 --    82 C    1.391    86 C    1.391    80 C    1.032
                            84 N    0.106
    82   6 C    3.986 --    83 C    1.442    81 C    1.391   103 H    0.972
                            85 C    0.108
    83   6 C    3.972 --    82 C    1.442    84 N    1.416   104 H    0.972
                            86 C    0.108
    84   7 N    3.030 --    83 C    1.416    85 C    1.415    81 C    0.106
    85   6 C    3.972 --    86 C    1.443    84 N    1.415   105 H    0.972
                            82 C    0.108
    86   6 C    3.985 --    85 C    1.443    81 C    1.391   106 H    0.973
                            83 C    0.108
    87   6 C    3.921 --    80 C    1.317    91 N    1.213    88 C    1.176
    88   6 C    3.963 --    89 C    1.649    87 C    1.176   107 H    0.973
    89   6 C    3.958 --    88 C    1.649    90 C    1.174   108 H    0.975
    90   6 C    3.924 --    56 C    1.364    91 N    1.202    89 C    1.174
    91   7 N    3.344 --    87 C    1.213    90 C    1.202    55 Co   0.636
    92   1 H    1.000 --    56 C    0.970
    93   1 H    0.997 --    58 C    0.975
    94   1 H    1.004 --    59 C    0.973
    95   1 H    1.003 --    64 C    0.973
    96   1 H    1.013 --    65 C    0.972
    97   1 H    1.013 --    67 C    0.972
    98   1 H    1.003 --    68 C    0.973
    99   1 H    1.004 --    70 C    0.973
   100   1 H    1.004 --    71 C    0.969
   101   1 H    1.004 --    76 C    0.969
   102   1 H    1.003 --    77 C    0.973
   103   1 H    1.004 --    82 C    0.972
   104   1 H    1.013 --    83 C    0.972
   105   1 H    1.013 --    85 C    0.972
   106   1 H    1.004 --    86 C    0.973
   107   1 H    1.004 --    88 C    0.973
   108   1 H    0.997 --    89 C    0.975
   109   6 C    3.922 --   110 C    2.567    20 C    1.179
   110   6 C    3.930 --   109 C    2.567   116 C    1.183
   111   6 C    3.923 --   112 C    2.551   134 C    1.193
   112   6 C    3.924 --   111 C    2.551   169 C    1.194
   113   6 C    3.930 --   114 C    2.562   187 C    1.189
   114   6 C    3.923 --   113 C    2.562    74 C    1.185
   115  27 Co   3.006 --   151 N    0.625   132 N    0.625   121 N    0.623
                           139 N    0.622
   116   6 C    3.916 --   150 C    1.260   117 C    1.260   110 C    1.183
   117   6 C    3.910 --   116 C    1.260   121 N    1.231   118 C    1.193
   118   6 C    3.961 --   119 C    1.631   117 C    1.193   152 H    0.971
   119   6 C    3.960 --   118 C    1.631   120 C    1.186   153 H    0.973
   120   6 C    3.916 --   122 C    1.317   121 N    1.201   119 C    1.186
   121   7 N    3.336 --   117 C    1.231   120 C    1.201   115 Co   0.623
   122   6 C    3.922 --   129 C    1.327   120 C    1.317   123 C    1.033
   123   6 C    3.986 --   128 C    1.391   124 C    1.390   122 C    1.033
                           126 N    0.106
   124   6 C    3.985 --   125 C    1.442   123 C    1.390   154 H    0.972
                           127 C    0.109
   125   6 C    3.972 --   124 C    1.442   126 N    1.415   155 H    0.972
                           128 C    0.109
   126   7 N    3.030 --   127 C    1.416   125 C    1.415   123 C    0.106
   127   6 C    3.972 --   128 C    1.442   126 N    1.416   156 H    0.972
                           124 C    0.109
   128   6 C    3.986 --   127 C    1.442   123 C    1.391   157 H    0.972
                           125 C    0.109
   129   6 C    3.917 --   122 C    1.327   132 N    1.195   130 C    1.183
   130   6 C    3.959 --   131 C    1.634   129 C    1.183   158 H    0.973
   131   6 C    3.959 --   130 C    1.634   133 C    1.191   159 H    0.972
   132   7 N    3.334 --   133 C    1.238   129 C    1.195   115 Co   0.625
   133   6 C    3.909 --   134 C    1.254   132 N    1.238   131 C    1.191
   134   6 C    3.916 --   133 C    1.254   135 C    1.254   111 C    1.193
   135   6 C    3.909 --   134 C    1.254   139 N    1.237   136 C    1.192
   136   6 C    3.961 --   137 C    1.632   135 C    1.192   160 H    0.972
   137   6 C    3.959 --   136 C    1.632   138 C    1.184   161 H    0.973
   138   6 C    3.917 --   140 C    1.324   139 N    1.196   137 C    1.184
   139   7 N    3.334 --   135 C    1.237   138 C    1.196   115 Co   0.622
   140   6 C    3.922 --   138 C    1.324   147 C    1.319   141 C    1.033
   141   6 C    3.986 --   146 C    1.391   142 C    1.391   140 C    1.033
                           144 N    0.106
   142   6 C    3.985 --   143 C    1.442   141 C    1.391   162 H    0.973
                           145 C    0.109
   143   6 C    3.972 --   142 C    1.442   144 N    1.415   163 H    0.972
                           146 C    0.109
   144   7 N    3.030 --   145 C    1.416   143 C    1.415   141 C    0.106
   145   6 C    3.972 --   146 C    1.442   144 N    1.416   164 H    0.972
                           142 C    0.109
   146   6 C    3.986 --   145 C    1.442   141 C    1.391   165 H    0.972
                           143 C    0.109
   147   6 C    3.916 --   140 C    1.319   151 N    1.200   148 C    1.185
   148   6 C    3.959 --   149 C    1.632   147 C    1.185   166 H    0.973
   149   6 C    3.960 --   148 C    1.632   150 C    1.192   167 H    0.971
   150   6 C    3.910 --   116 C    1.260   151 N    1.232   149 C    1.192
   151   7 N    3.336 --   150 C    1.232   147 C    1.200   115 Co   0.625
   152   1 H    1.003 --   118 C    0.971
   153   1 H    1.003 --   119 C    0.973
   154   1 H    1.004 --   124 C    0.972
   155   1 H    1.013 --   125 C    0.972
   156   1 H    1.013 --   127 C    0.972
   157   1 H    1.004 --   128 C    0.972
   158   1 H    1.003 --   130 C    0.973
   159   1 H    1.004 --   131 C    0.972
   160   1 H    1.003 --   136 C    0.972
   161   1 H    1.003 --   137 C    0.973
   162   1 H    1.004 --   142 C    0.973
   163   1 H    1.013 --   143 C    0.972
   164   1 H    1.013 --   145 C    0.972
   165   1 H    1.004 --   146 C    0.972
   166   1 H    1.003 --   148 C    0.973
   167   1 H    1.003 --   149 C    0.971
   168  27 Co   3.028 --   192 N    0.629   174 N    0.626   185 N    0.624
                           204 N    0.623
   169   6 C    3.916 --   170 C    1.254   203 C    1.253   112 C    1.194
   170   6 C    3.909 --   169 C    1.254   174 N    1.237   171 C    1.192
   171   6 C    3.960 --   172 C    1.633   170 C    1.192   205 H    0.972
   172   6 C    3.959 --   171 C    1.633   173 C    1.183   206 H    0.973
   173   6 C    3.917 --   175 C    1.326   174 N    1.195   172 C    1.183
   174   7 N    3.334 --   170 C    1.237   173 C    1.195   168 Co   0.626
   175   6 C    3.922 --   173 C    1.326   182 C    1.316   176 C    1.034
   176   6 C    3.986 --   177 C    1.391   181 C    1.390   175 C    1.034
                           179 N    0.106
   177   6 C    3.985 --   178 C    1.442   176 C    1.391   207 H    0.972
                           180 C    0.108
   178   6 C    3.972 --   177 C    1.442   179 N    1.416   208 H    0.972
                           181 C    0.109
   179   7 N    3.029 --   178 C    1.416   180 C    1.415   176 C    0.106
   180   6 C    3.972 --   181 C    1.442   179 N    1.415   209 H    0.972
                           177 C    0.108
   181   6 C    3.984 --   180 C    1.442   176 C    1.390   210 H    0.972
                           178 C    0.109
   182   6 C    3.916 --   175 C    1.316   185 N    1.200   183 C    1.186
   183   6 C    3.960 --   184 C    1.630   182 C    1.186   211 H    0.973
   184   6 C    3.959 --   183 C    1.630   186 C    1.194   212 H    0.969
   185   7 N    3.337 --   186 C    1.231   182 C    1.200   168 Co   0.624
   186   6 C    3.909 --   187 C    1.256   185 N    1.231   184 C    1.194
   187   6 C    3.917 --   188 C    1.257   186 C    1.256   113 C    1.189
   188   6 C    3.909 --   187 C    1.257   192 N    1.231   189 C    1.193
   189   6 C    3.959 --   190 C    1.632   188 C    1.193   213 H    0.969
   190   6 C    3.960 --   189 C    1.632   191 C    1.185   214 H    0.973
   191   6 C    3.916 --   193 C    1.319   192 N    1.199   190 C    1.185
   192   7 N    3.336 --   188 C    1.231   191 C    1.199   168 Co   0.629
   193   6 C    3.922 --   200 C    1.324   191 C    1.319   194 C    1.034
   194   6 C    3.986 --   199 C    1.391   195 C    1.390   193 C    1.034
                           197 N    0.106
   195   6 C    3.984 --   196 C    1.442   194 C    1.390   215 H    0.972
                           198 C    0.109
   196   6 C    3.972 --   195 C    1.442   197 N    1.415   216 H    0.972
                           199 C    0.108
   197   7 N    3.029 --   198 C    1.416   196 C    1.415   194 C    0.106
   198   6 C    3.972 --   199 C    1.442   197 N    1.416   217 H    0.972
                           195 C    0.109
   199   6 C    3.985 --   198 C    1.442   194 C    1.391   218 H    0.972
                           196 C    0.108
   200   6 C    3.917 --   193 C    1.324   204 N    1.195   201 C    1.185
   201   6 C    3.959 --   202 C    1.632   200 C    1.185   219 H    0.973
   202   6 C    3.959 --   201 C    1.632   203 C    1.193   220 H    0.972
   203   6 C    3.909 --   169 C    1.253   204 N    1.237   202 C    1.193
   204   7 N    3.335 --   203 C    1.237   200 C    1.195   168 Co   0.623
   205   1 H    1.003 --   171 C    0.972
   206   1 H    1.003 --   172 C    0.973
   207   1 H    1.004 --   177 C    0.972
   208   1 H    1.013 --   178 C    0.972
   209   1 H    1.013 --   180 C    0.972
   210   1 H    1.004 --   181 C    0.972
   211   1 H    1.003 --   183 C    0.973
   212   1 H    1.005 --   184 C    0.969
   213   1 H    1.005 --   189 C    0.969
   214   1 H    1.003 --   190 C    0.973
   215   1 H    1.004 --   195 C    0.972
   216   1 H    1.013 --   196 C    0.972
   217   1 H    1.013 --   198 C    0.972
   218   1 H    1.004 --   199 C    0.972
   219   1 H    1.003 --   201 C    0.973
   220   1 H    1.003 --   202 C    0.972
 ---------------------------------------------------------------------------

           -------------------------------------------------
          | TOTAL ENERGY             -392.349599209050 Eh   |
          | GRADIENT NORM               0.000607184837 Eh/α |
          | HOMO-LUMO GAP               0.000398679704 eV   |
           -------------------------------------------------

 * finished run on 2022/07/29 at 22:40:15.602
