   * xtb version 6.5.1 (b24c23e) compiled by 'conda@728c89f4b128' on 2022-07-12
          program call               : xtb Cu_Ph2OMe_C6_3.xyz --gfn 1 --opt -T 48

   ID    Z sym.   atoms
    1   29 Cu     1, 73, 157
    2    6 C      2-6, 8-11, 13-21, 23-27, 29-33, 36, 37, 39-43, 45, 74-78,
                  80-83, 85-93, 95-99, 101-105, 108, 109, 111-115, 117,
                  145-156, 158-162, 164-167, 169-177, 179-183, 185-189, 192,
                  193, 195-199, 201
    3    7 N      7, 12, 34, 35, 79, 84, 106, 107, 163, 168, 190, 191
    4    8 O      22, 28, 38, 44, 94, 100, 110, 116, 178, 184, 194, 200
    5    1 H      46-72, 118-144, 202-227

          :  Hamiltonian                  GFN1-xTB          :
 * total energy  :  -403.9436859 Eh     change       -0.5411493E-09 Eh
 * total energy  :  -404.3303285 Eh     change       -0.3866425E+00 Eh
 * total energy  :  -404.4686630 Eh     change       -0.1383346E+00 Eh
 * total energy  :  -404.5699991 Eh     change       -0.1013361E+00 Eh
 * total energy  :  -404.6481203 Eh     change       -0.7812116E-01 Eh
 * total energy  :  -404.6980869 Eh     change       -0.4996666E-01 Eh
 * total energy  :  -404.7265221 Eh     change       -0.2843519E-01 Eh
 * total energy  :  -404.7454306 Eh     change       -0.1890846E-01 Eh
 * total energy  :  -404.7545688 Eh     change       -0.9138209E-02 Eh
 * total energy  :  -404.7627802 Eh     change       -0.8211380E-02 Eh
 * total energy  :  -404.8147697 Eh     change       -0.1722321E-04 Eh
 * total energy  :  -404.8147752 Eh     change       -0.5512683E-05 Eh
 * total energy  :  -404.8147495 Eh     change        0.2565670E-04 Eh
 * total energy  :  -404.8147858 Eh     change       -0.3629076E-04 Eh
 * total energy  :  -404.8147653 Eh     change        0.2054573E-04 Eh
 * total energy  :  -404.8147878 Eh     change       -0.2254803E-04 Eh
 * total energy  :  -404.8147839 Eh     change        0.3947812E-05 Eh
 * total energy  :  -404.8147964 Eh     change       -0.1256400E-04 Eh
 * total energy  :  -404.8147976 Eh     change       -0.1169697E-05 Eh
   *** GEOMETRY OPTIMIZATION CONVERGED AFTER 101 ITERATIONS ***

 final structure:
================
227
 xtb: 6.5.1 (b24c23e)
Cu          28.57658083101789        0.08667273625123       -0.04304037333987
C           25.16939768795434        0.19231307909033       -0.11151200130233
C           25.80337341864690        1.04468675943616        0.78036325861486
C           25.12850750365756        1.94064637591858        1.67630743571807
C           26.08729588069454        2.58339928681708        2.38807818264816
C           27.35675553209248        2.09011994506445        1.92909420652453
N           27.15310859985317        1.15815176993224        0.95275980300284
C           28.59810869184300        2.48736806143713        2.42684890482905
C           29.83005302742681        1.99382027424790        2.00066121559573
C           31.10447077246285        2.43454446702570        2.49220356375882
C           32.05422147804546        1.74224283218888        1.81403333658401
N           30.02381510708586        1.04258301718421        1.03392131903339
C           31.36740832580566        0.87545056228811        0.90272176983749
C           32.00652402634591       -0.00176084127362        0.00890082006704
C           31.34990210629388       -0.85286073201658       -0.89733884596126
C           32.01821341289191       -1.76500244905193       -1.77752326353929
C           31.05479554956253       -2.41843593020509       -2.47464036668439
C           29.79052986835627       -1.90466218062292       -2.02990591772185
C           28.54799714996975       -2.33281660814586       -2.49495513254987
C           28.53422286099823       -3.38607940560911       -3.55033935237850
C           28.95898326981557       -3.09273744953937       -4.85272966278874
O           29.36166759752248       -1.81280422578174       -5.07178692744717
C           29.82606989564306       -1.41697335641096       -6.34636027119671
C           28.94264214004746       -4.07877899833068       -5.83878530814193
C           28.50616582716988       -5.35504453414207       -5.51704799059042
C           28.08320823902531       -5.66935631219350       -4.23436885925308
C           28.09495027952790       -4.68203800602816       -3.24965055275352
O           27.70661340290538       -4.89356988237052       -1.96384332663277
C           27.24359353311546       -6.16478008495381       -1.55606362715909
C           27.31475715814839       -1.85378871098809       -2.05121600543261
C           26.03648661006278       -2.26870472962371       -2.56073121702589
C           25.09194269468049       -1.55938741616828       -1.89463808964783
C           25.78468119598072       -0.70166640088765       -0.97526358000429
N           27.13050573263576       -0.90191490180099       -1.09041962944341
N           30.00397170211354       -0.95276775769741       -1.06784531749725
C           28.60721387916755        3.52240759141722        3.50045822187377
C           28.94309383379192        3.17477628482883        4.81536139448611
O           29.24047381858434        1.86484512975592        5.02503985599890
C           29.59789825056759        1.40962865545562        6.31434290962731
C           28.94851569747601        4.14121798173387        5.82072417908134
C           28.62252159641449        5.45174818037972        5.50544645185165
C           28.28903066139545        5.81957879344315        4.21057062238383
C           28.27904833581080        4.85207261314026        3.20624745158733
O           27.97206241279589        5.11422728839287        1.90781108350435
C           27.63699480530516        6.42600784994277        1.50294220937169
H           24.08484798701159        0.22679619098425       -0.13425874181157
H           24.05720425324959        2.04903588573291        1.74458352345527
H           25.95664262898184        3.32598791320837        3.15895093277052
H           31.24684438345806        3.18215136346635        3.25587767223388
H           33.12629622223057        1.80693660373126        1.91175046168000
H           33.08797496674080       -1.88604097612181       -1.84114381872678
H           31.18177334643660       -3.18347912188871       -3.22353191378098
H           29.04530936033398       -1.52261917573495       -7.10947885443532
H           30.09907241010265       -0.36385165774967       -6.25661911423169
H           30.70890061946396       -1.99314482822950       -6.64903186309947
H           29.26456490009955       -3.86143795352528       -6.84844292767837
H           28.49521331779831       -6.12225872411832       -6.28347505506424
H           27.74981464418433       -6.67402776812830       -4.01126044662783
H           26.99144385782287       -6.07123447784821       -0.49807647320745
H           26.34818094226008       -6.46443992352135       -2.11415971388183
H           28.01828906330654       -6.93206957716550       -1.67491491670273
H           25.89058403276129       -3.00745094118954       -3.33254099226572
H           24.01971361324879       -1.59938796699734       -2.00801677552762
H           29.79277507785692        0.34012280017892        6.21575034611812
H           28.78462454934231        1.56233518186806        7.03438204683670
H           30.50393336604053        1.90828698625821        6.67980886278459
H           29.20251133062343        3.88260335943092        6.84005079295108
H           28.62828214154927        6.20372081218411        6.28689787858018
H           28.04064700204300        6.84988180202765        3.99344592781537
H           28.46331079467192        7.12498087408372        1.68116501152423
H           27.43852486746432        6.37196271818887        0.43078315401781
H           26.73845050639798        6.78839251320851        2.01725374914922
Cu          60.66836243433533        0.01645850308842       -0.09630488907577
C           64.07511211642866        0.10789736716457       -0.17971917404663
C           63.44609247090774       -0.64707467757044       -1.15859432006065
C           64.12625797294226       -1.40036875584279       -2.17382201655697
C           63.17104133689899       -2.00082441716854       -2.92614667021465
C           61.89846158037500       -1.61323256856723       -2.38215557962960
N           62.09687111588736       -0.79408688929978       -1.30834680751947
C           60.65838149238644       -2.02598611363872       -2.87084616857903
C           59.42340361893095       -1.66867083391360       -2.33174420251267
C           58.15067355209351       -2.05928000734796       -2.86797309383942
C           57.19769616266811       -1.50222176272483       -2.07875674121196
N           59.22540954744064       -0.87893162770732       -1.22983965627844
C           57.88088197242574       -0.76673304772342       -1.05622846895954
C           57.23827126644375       -0.05266231933214       -0.02945378687069
C           57.89191800007231        0.67871564427840        0.97810218921362
C           57.22026158002680        1.37281143910512        2.03648713119372
C           58.18025709499030        1.95565843447873        2.79793048826818
C           59.44571271320635        1.62699145619413        2.20582724586508
C           60.68538176026789        2.03641430566040        2.69540700220318
C           60.69323344612839        2.90983677548638        3.90354792369839
C           60.22271974325816        4.22769160770052        3.82942122200575
O           59.78402002726931        4.63407093835422        2.60849653545092
C           59.25916908262726        5.93429515752057        2.43262762160832
C           60.23322010568921        5.04536095278099        4.95901702001758
C           60.70984898866723        4.54081904391743        6.15944633104232
C           61.17848931797074        3.23944558635496        6.25770680886362
C           61.17239959003050        2.42325134634394        5.12705236575554
O           61.60335585686909        1.13355162357956        5.12569011759816
C           62.11680159606813        0.54944316687136        6.30543401551098
C           61.92022254170143        1.69518076831887        2.14173875856343
C           63.19540321966481        2.15032275031217        2.62390931121586
C           64.14292040466555        1.61047061078942        1.81790369091587
C           63.45505331260086        0.82538169707237        0.83245569155756
N           62.10902780791520        0.89595422265489        1.05137209423734
N           59.23663476827124        0.84297716963644        1.10173859509786
C           60.65387784809408       -2.92100227416384       -4.06344376169873
C           60.28016927952680       -4.26541304024581       -3.93675024967045
O           59.94342483656371       -4.67223037248265       -2.68404506522609
C           59.54248198541467       -6.00672916974963       -2.44823134383105
C           60.27921215392991       -5.10514298025625       -5.05011253620140
C           60.64774314534607       -4.59579256737590       -6.28608960418033
C           61.01917378777652       -3.26822522101423       -6.43609740872853
C           61.02433655261500       -2.42962152591239       -5.32187885330410
O           61.36578275998639       -1.11429678800138       -5.36854483031516
C           61.75047862532251       -0.51809701350249       -6.59069186730227
H           65.15967525495634        0.13843071814266       -0.20715676544567
H           65.19833175195646       -1.45765044041557       -2.28116466513707
H           63.30632005698330       -2.65074420435110       -3.77585065584845
H           58.01149355524844       -2.67762553002702       -3.74014657311079
H           56.12573940484057       -1.57467605033780       -2.17244650318171
H           56.15079505026988        1.40038015617830        2.17252137416420
H           58.04989350919949        2.55476001955555        3.68466291074599
H           60.01219001844055        6.70385600790593        2.64180380199494
H           58.95958932535869        6.00171475951973        1.38512190010573
H           58.38222214532232        6.10280186696802        3.06938065652542
H           59.87635517052122        6.06544991384584        4.91069757570266
H           60.71644995518267        5.17622867362683        7.03827344637278
H           61.54248104691627        2.87151236415770        7.20765934017471
H           62.40050110263697       -0.47093280590485        6.04068142222088
H           63.00203931358043        1.08654373591549        6.66735703829309
H           61.36176514119360        0.51825965223644        7.10039542701415
H           63.33771863669609        2.80185935958138        3.47118343139024
H           65.21413115059934        1.72800275403819        1.87088155644645
H           59.32095025615578       -6.07341706840310       -1.38134943214328
H           60.34189418205656       -6.71623145610471       -2.69477790060701
H           58.64177039954546       -6.26258937999819       -3.01949969189969
H           59.99612946351267       -6.14553821196817       -4.96218247521191
H           60.64569658184076       -5.24845200473508       -7.15221859809367
H           61.30034904750188       -2.89782221343637       -7.41280716134702
H           60.94239226021730       -0.56171078681578       -7.33117950286105
H           61.97165553979875        0.52646149446868       -6.36308847596690
H           62.64790258078700       -0.99371254879284       -7.00511841230633
C           37.20980239228353       -0.06891320972676        0.04054403459664
C           35.98174242920496       -0.06048411768594        0.03528184592718
C           34.63634982570401       -0.04564590609131        0.02946171765540
C           33.41288311098260       -0.02877772751913        0.02204839061829
C           38.55517539243872       -0.07732291444837        0.04195397250965
C           39.77887007788317       -0.07920922658249        0.04592868162083
C           53.26346013223719       -0.08923915486144        0.02525370781973
C           52.03527532918628       -0.09398171064000        0.03779760885091
C           50.69016534919464       -0.09548988822880        0.04759577052233
C           49.46640088338440       -0.09341520968563        0.05536871913774
C           54.60863885509150       -0.08025470859410        0.00986000639019
C           55.83215813814100       -0.07125479971361       -0.00776838484411
Cu          44.62266617646254       -0.08013982051921        0.05130622887981
C           41.18494468605805       -0.08036844837041        0.04725312380660
C           41.83247461161146       -0.06802812972288        1.29554887944859
C           41.15408623099332       -0.08209419282877        2.55732351879613
C           42.11090607343432       -0.06268312405821        3.51964744835786
C           43.38005735599728       -0.03179310449169        2.85089631484368
N           43.17725797424534       -0.03950334269902        1.49663127006467
C           44.61882418836868       -0.01399070587312        3.49145208464951
C           45.85934445643243       -0.02368655099562        2.85442018456852
C           47.12701367422611        0.03059431748451        3.52439122113051
C           48.08604536514631        0.01032890363610        2.56419526438870
N           46.06526352888915       -0.06925615372107        1.50124630311339
C           47.41047852902105       -0.05131931255592        1.30231325097645
C           48.06057214468932       -0.09179264072697        0.05575363152407
C           47.41263061656424       -0.12556737941745       -1.19225676218544
C           48.09075708720449       -0.18541217086452       -2.45281896664358
C           47.13405758095823       -0.19033287279028       -3.41545970577041
C           45.86519813103230       -0.12943548528734       -2.74836461533364
C           44.62653371190420       -0.12309971306117       -3.38950059739689
C           44.62977485769267       -0.12877157672252       -4.88050808962380
C           44.19571419196619       -1.25755333927423       -5.58791942161298
O           43.79538252680040       -2.31428974072613       -4.83212199492317
C           43.31422182759795       -3.49240180124071       -5.44638588677166
C           44.20193563208277       -1.26141026424292       -6.98244725066997
C           44.63732365763575       -0.13480133307217       -7.66367783165085
C           45.06872782610110        0.99497638405345       -6.98515943945936
C           45.06724065331104        0.99720596992117       -5.59067180256775
O           45.46241495497234        2.05748822051899       -4.83731752282313
C           45.94205793021388        3.23514111426984       -5.45369215882310
C           43.38599196829914       -0.10969418987509       -2.75227540237976
C           42.11823852585620       -0.07222694833389       -3.42331024990893
C           41.15935677296154       -0.06355317765462       -2.46289795710125
C           41.83504388677690       -0.08854547182648       -1.19982151280547
N           43.18022589671512       -0.11496987032149       -1.39835359025302
N           46.06806992666786       -0.09562315759815       -1.39442567414974
C           44.61474517650979        0.02086210207511        4.98217791826262
C           45.02972100680726       -1.09541602158555        5.72002688659429
O           45.41588997728824       -2.17739113024433        4.99331678845403
C           45.85860935384755       -3.35320135702313        5.64021563417695
C           45.01978611348282       -1.06233371201003        7.11419444703595
C           44.59938171035228        0.08815313279481        7.76416235618388
C           44.18677025141820        1.20605734743583        7.05493804487626
C           44.19230441407613        1.17150087080426        5.66090719143442
O           43.81419842772305        2.21664365036289        4.87811414696668
C           43.35104084607869        3.41757512752849        5.46129885961107
H           40.08293462635388       -0.10818751563644        2.67989988568362
H           41.97557992403316       -0.07193029369698        4.58917810914503
H           47.25977765289492        0.08010457631658        4.59312483892701
H           49.15701275314562        0.03797324197981        2.68807583963494
H           49.16166079127732       -0.22213438876996       -2.57456181854462
H           47.26932173915978       -0.23475877250579       -4.48409770803971
H           42.42804633761794       -3.29180247208457       -6.06071609873445
H           43.04139978481555       -4.16870345854659       -4.63408054944899
H           44.08503296446924       -3.96660332591951       -6.06610884966942
H           43.87321286001636       -2.12960529361681       -7.53784135104225
H           44.64039788910015       -0.13727622581000       -8.74817377342421
H           45.40046439061092        1.86076011392411       -7.54251635175611
H           46.20672651538688        3.91613867600825       -4.64264414028932
H           45.17297638489318        3.70320720842565       -6.08013968674863
H           46.83294356921463        3.03601447924887       -6.06158043584415
H           41.98496667107870       -0.05288424364784       -4.49291305193775
H           40.08846352829417       -0.03720268885714       -2.58757283855851
H           45.07059744710787       -3.78820349696664        6.26697538595703
H           46.11536586541922       -4.05791744255148        4.84711857154420
H           46.74712765040877       -3.16358093863028        6.25467495803291
H           45.33419262144693       -1.92024570214572        7.69333873626012
H           44.59308157558753        0.11414695265174        8.84833614374560
H           43.86596947103793        2.09083483121707        7.58832094527956
H           44.12513251101507        3.88984641687885        6.07836553911661
H           42.45481636976579        3.24861742728637        6.07059900875148
H           43.10022769352566        4.08109310486350        4.63151059362794

          :  Hamiltonian                  GFN1-xTB          :
         :: total energy            -404.814797595020 Eh    ::
         :: gradient norm              0.000611524028 Eh/a0 ::
         :: HOMO-LUMO gap              0.000218889066 eV    ::
         :: SCC energy              -410.530446288622 Eh    ::
         :: repulsion energy           5.914617398469 Eh    ::

    * Orbital Energies and Occupations

         #    Occupation            Energy/Eh            Energy/eV
      -------------------------------------------------------------
         1        2.0000           -0.8049246             -21.9031
       ...           ...                  ...                  ...
       351        2.0000           -0.3932519             -10.7009
       352        2.0000           -0.3932309             -10.7004
       353        2.0000           -0.3929282             -10.6921
       354        2.0000           -0.3927054             -10.6861
       355        2.0000           -0.3921891             -10.6720
       356        2.0000           -0.3800870             -10.3427
       357        2.0000           -0.3800237             -10.3410
       358        2.0000           -0.3796446             -10.3307
       359        2.0000           -0.3743116             -10.1855
       360        2.0000           -0.3701784             -10.0731
       361        2.0000           -0.3636766              -9.8961
       362        1.0180           -0.3405383              -9.2665
       363        0.9929           -0.3404846              -9.2651 (HOMO)
       364        0.9891           -0.3404765              -9.2648 (LUMO)
       365        0.0000           -0.3251637              -8.8482
       366                         -0.3178611              -8.6494
       367                         -0.3129209              -8.5150
       368                         -0.3117528              -8.4832
       369                         -0.3117017              -8.4818
       370                         -0.3111498              -8.4668
       371                         -0.2887342              -7.8569
       372                         -0.2809746              -7.6457
       373                         -0.2795056              -7.6057
       374                         -0.2666374              -7.2556
       ...                                ...                  ...
       763                          1.5931333              43.3514
      -------------------------------------------------------------
                  HL-Gap            0.0000080 Eh            0.0002 eV

Wiberg/Mayer (AO) data.
largest (>0.10) Wiberg bond orders for each atom

     #   Z sym  total        # sym  WBO       # sym  WBO       # sym  WBO
 ---------------------------------------------------------------------------
     1  29 Cu   2.192 --    34 N    0.507     7 N    0.506    35 N    0.504
                            12 N    0.504
     2   6 C    3.930 --    33 C    1.361     3 C    1.361    46 H    0.972
     3   6 C    3.919 --     2 C    1.361     7 N    1.231     4 C    1.170
     4   6 C    3.955 --     5 C    1.657     3 C    1.170    47 H    0.976
     5   6 C    3.958 --     4 C    1.657     6 C    1.172    48 H    0.975
     6   6 C    3.912 --     8 C    1.324     7 N    1.237     5 C    1.172
     7   7 N    3.246 --     6 C    1.237     3 C    1.231     1 Cu   0.506
     8   6 C    3.935 --     9 C    1.335     6 C    1.324    36 C    1.012
     9   6 C    3.908 --     8 C    1.335    12 N    1.218    10 C    1.178
    10   6 C    3.955 --    11 C    1.646     9 C    1.178    49 H    0.975
    11   6 C    3.957 --    10 C    1.646    13 C    1.184    50 H    0.974
    12   7 N    3.250 --    13 C    1.259     9 C    1.218     1 Cu   0.504
    13   6 C    3.899 --    14 C    1.260    12 N    1.259    11 C    1.184
    14   6 C    3.940 --    15 C    1.260    13 C    1.260   148 C    1.185
    15   6 C    3.899 --    14 C    1.260    35 N    1.259    16 C    1.184
    16   6 C    3.957 --    17 C    1.646    15 C    1.184    51 H    0.974
    17   6 C    3.955 --    16 C    1.646    18 C    1.178    52 H    0.975
    18   6 C    3.908 --    19 C    1.335    35 N    1.218    17 C    1.178
    19   6 C    3.935 --    18 C    1.335    30 C    1.324    20 C    1.013
    20   6 C    3.978 --    21 C    1.344    27 C    1.344    19 C    1.013
                            25 C    0.101
    21   6 C    3.903 --    24 C    1.362    20 C    1.344    22 O    1.031
    22   8 O    2.144 --    21 C    1.031    23 C    0.936
    23   6 C    3.908 --    54 H    0.983    55 H    0.980    53 H    0.980
                            22 O    0.936
    24   6 C    3.983 --    25 C    1.442    21 C    1.362    56 H    0.969
    25   6 C    3.993 --    24 C    1.442    26 C    1.442    57 H    0.974
                            20 C    0.101
    26   6 C    3.983 --    25 C    1.442    27 C    1.362    58 H    0.969
    27   6 C    3.903 --    26 C    1.362    20 C    1.344    28 O    1.030
    28   8 O    2.144 --    27 C    1.030    29 C    0.936
    29   6 C    3.908 --    59 H    0.983    60 H    0.980    61 H    0.980
                            28 O    0.936
    30   6 C    3.912 --    19 C    1.324    34 N    1.237    31 C    1.172
    31   6 C    3.958 --    32 C    1.657    30 C    1.172    62 H    0.975
    32   6 C    3.955 --    31 C    1.657    33 C    1.170    63 H    0.976
    33   6 C    3.919 --     2 C    1.361    34 N    1.231    32 C    1.170
    34   7 N    3.246 --    30 C    1.237    33 C    1.231     1 Cu   0.507
    35   7 N    3.249 --    15 C    1.259    18 C    1.218     1 Cu   0.504
    36   6 C    3.978 --    43 C    1.344    37 C    1.344     8 C    1.012
                            41 C    0.101
    37   6 C    3.903 --    40 C    1.362    36 C    1.344    38 O    1.031
    38   8 O    2.144 --    37 C    1.031    39 C    0.936
    39   6 C    3.908 --    64 H    0.983    65 H    0.980    66 H    0.980
                            38 O    0.936
    40   6 C    3.983 --    41 C    1.442    37 C    1.362    67 H    0.969
    41   6 C    3.993 --    40 C    1.442    42 C    1.442    68 H    0.974
                            36 C    0.101
    42   6 C    3.983 --    41 C    1.442    43 C    1.362    69 H    0.969
    43   6 C    3.903 --    42 C    1.362    36 C    1.344    44 O    1.030
    44   8 O    2.144 --    43 C    1.030    45 C    0.936
    45   6 C    3.908 --    71 H    0.983    72 H    0.980    70 H    0.980
                            44 O    0.936
    46   1 H    1.002 --     2 C    0.972
    47   1 H    0.998 --     4 C    0.976
    48   1 H    1.002 --     5 C    0.975
    49   1 H    1.002 --    10 C    0.975
    50   1 H    1.002 --    11 C    0.974
    51   1 H    1.002 --    16 C    0.974
    52   1 H    1.002 --    17 C    0.975
    53   1 H    1.009 --    23 C    0.980
    54   1 H    1.016 --    23 C    0.983
    55   1 H    1.009 --    23 C    0.980
    56   1 H    1.000 --    24 C    0.969
    57   1 H    1.003 --    25 C    0.974
    58   1 H    1.000 --    26 C    0.969
    59   1 H    1.016 --    29 C    0.983
    60   1 H    1.009 --    29 C    0.980
    61   1 H    1.009 --    29 C    0.980
    62   1 H    1.002 --    31 C    0.975
    63   1 H    0.998 --    32 C    0.976
    64   1 H    1.016 --    39 C    0.983
    65   1 H    1.009 --    39 C    0.980
    66   1 H    1.009 --    39 C    0.980
    67   1 H    1.000 --    40 C    0.969
    68   1 H    1.003 --    41 C    0.974
    69   1 H    1.000 --    42 C    0.969
    70   1 H    1.009 --    45 C    0.980
    71   1 H    1.016 --    45 C    0.983
    72   1 H    1.009 --    45 C    0.980
    73  29 Cu   2.193 --   106 N    0.507    79 N    0.506   107 N    0.504
                            84 N    0.504
    74   6 C    3.930 --   105 C    1.361    75 C    1.361   118 H    0.972
    75   6 C    3.919 --    74 C    1.361    79 N    1.231    76 C    1.170
    76   6 C    3.955 --    77 C    1.657    75 C    1.170   119 H    0.976
    77   6 C    3.958 --    76 C    1.657    78 C    1.173   120 H    0.975
    78   6 C    3.912 --    80 C    1.324    79 N    1.237    77 C    1.173
    79   7 N    3.245 --    78 C    1.237    75 C    1.231    73 Cu   0.506
    80   6 C    3.935 --    81 C    1.334    78 C    1.324   108 C    1.013
    81   6 C    3.908 --    80 C    1.334    84 N    1.218    82 C    1.178
    82   6 C    3.955 --    83 C    1.645    81 C    1.178   121 H    0.975
    83   6 C    3.957 --    82 C    1.645    85 C    1.185   122 H    0.974
    84   7 N    3.249 --    85 C    1.259    81 C    1.218    73 Cu   0.504
    85   6 C    3.899 --    86 C    1.259    84 N    1.259    83 C    1.185
    86   6 C    3.940 --    85 C    1.259    87 C    1.259   156 C    1.186
    87   6 C    3.899 --    86 C    1.259   107 N    1.259    88 C    1.185
    88   6 C    3.957 --    89 C    1.645    87 C    1.185   123 H    0.974
    89   6 C    3.955 --    88 C    1.645    90 C    1.178   124 H    0.975
    90   6 C    3.907 --    91 C    1.334   107 N    1.218    89 C    1.178
    91   6 C    3.935 --    90 C    1.334   102 C    1.323    92 C    1.015
    92   6 C    3.977 --    99 C    1.343    93 C    1.343    91 C    1.015
                            97 C    0.101
    93   6 C    3.903 --    96 C    1.362    92 C    1.343    94 O    1.031
    94   8 O    2.144 --    93 C    1.031    95 C    0.935
    95   6 C    3.908 --   126 H    0.983   127 H    0.980   125 H    0.980
                            94 O    0.935
    96   6 C    3.983 --    97 C    1.442    93 C    1.362   128 H    0.969
    97   6 C    3.992 --    96 C    1.442    98 C    1.442   129 H    0.974
                            92 C    0.101
    98   6 C    3.983 --    97 C    1.442    99 C    1.362   130 H    0.969
    99   6 C    3.903 --    98 C    1.362    92 C    1.343   100 O    1.030
   100   8 O    2.144 --    99 C    1.030   101 C    0.936
   101   6 C    3.908 --   131 H    0.983   132 H    0.980   133 H    0.980
                           100 O    0.936
   102   6 C    3.912 --    91 C    1.323   106 N    1.237   103 C    1.173
   103   6 C    3.958 --   104 C    1.657   102 C    1.173   134 H    0.975
   104   6 C    3.955 --   103 C    1.657   105 C    1.170   135 H    0.976
   105   6 C    3.919 --    74 C    1.361   106 N    1.231   104 C    1.170
   106   7 N    3.245 --   102 C    1.237   105 C    1.231    73 Cu   0.507
   107   7 N    3.249 --    87 C    1.259    90 C    1.218    73 Cu   0.504
   108   6 C    3.978 --   115 C    1.344   109 C    1.343    80 C    1.013
                           113 C    0.101
   109   6 C    3.903 --   112 C    1.362   108 C    1.343   110 O    1.031
   110   8 O    2.144 --   109 C    1.031   111 C    0.936
   111   6 C    3.908 --   136 H    0.983   138 H    0.980   137 H    0.980
                           110 O    0.936
   112   6 C    3.983 --   113 C    1.442   109 C    1.362   139 H    0.969
   113   6 C    3.993 --   112 C    1.442   114 C    1.442   140 H    0.974
                           108 C    0.101
   114   6 C    3.983 --   113 C    1.442   115 C    1.362   141 H    0.969
   115   6 C    3.903 --   114 C    1.362   108 C    1.344   116 O    1.030
   116   8 O    2.144 --   115 C    1.030   117 C    0.936
   117   6 C    3.908 --   143 H    0.983   144 H    0.980   142 H    0.980
                           116 O    0.936
   118   1 H    1.002 --    74 C    0.972
   119   1 H    0.998 --    76 C    0.976
   120   1 H    1.002 --    77 C    0.975
   121   1 H    1.002 --    82 C    0.975
   122   1 H    1.002 --    83 C    0.974
   123   1 H    1.002 --    88 C    0.974
   124   1 H    1.002 --    89 C    0.975
   125   1 H    1.009 --    95 C    0.980
   126   1 H    1.016 --    95 C    0.983
   127   1 H    1.009 --    95 C    0.980
   128   1 H    1.000 --    96 C    0.969
   129   1 H    1.003 --    97 C    0.974
   130   1 H    1.000 --    98 C    0.969
   131   1 H    1.016 --   101 C    0.983
   132   1 H    1.009 --   101 C    0.980
   133   1 H    1.009 --   101 C    0.980
   134   1 H    1.002 --   103 C    0.975
   135   1 H    0.998 --   104 C    0.976
   136   1 H    1.016 --   111 C    0.983
   137   1 H    1.009 --   111 C    0.980
   138   1 H    1.009 --   111 C    0.980
   139   1 H    1.000 --   112 C    0.969
   140   1 H    1.003 --   113 C    0.974
   141   1 H    1.000 --   114 C    0.969
   142   1 H    1.009 --   117 C    0.980
   143   1 H    1.016 --   117 C    0.983
   144   1 H    1.009 --   117 C    0.980
   145   6 C    3.926 --   146 C    2.374   149 C    1.331   148 C    0.190
   146   6 C    3.925 --   145 C    2.374   147 C    1.330   150 C    0.190
   147   6 C    3.936 --   148 C    2.455   146 C    1.330
   148   6 C    3.889 --   147 C    2.455    14 C    1.185   145 C    0.190
   149   6 C    3.933 --   150 C    2.453   145 C    1.331
   150   6 C    3.890 --   149 C    2.453   158 C    1.187   146 C    0.190
   151   6 C    3.925 --   152 C    2.372   155 C    1.331   154 C    0.190
   152   6 C    3.926 --   151 C    2.372   153 C    1.332   156 C    0.190
   153   6 C    3.933 --   154 C    2.452   152 C    1.332
   154   6 C    3.890 --   153 C    2.452   170 C    1.189   151 C    0.190
   155   6 C    3.936 --   156 C    2.454   151 C    1.331
   156   6 C    3.890 --   155 C    2.454    86 C    1.186   152 C    0.190
   157  29 Cu   2.167 --   191 N    0.500   163 N    0.500   190 N    0.499
                           168 N    0.499
   158   6 C    3.929 --   159 C    1.258   189 C    1.258   150 C    1.187
   159   6 C    3.900 --   163 N    1.260   158 C    1.258   160 C    1.186
   160   6 C    3.955 --   161 C    1.643   159 C    1.186   202 H    0.974
   161   6 C    3.956 --   160 C    1.643   162 C    1.180   203 H    0.975
   162   6 C    3.905 --   164 C    1.329   163 N    1.220   161 C    1.180
   163   7 N    3.243 --   159 C    1.260   162 C    1.220   157 Cu   0.500
   164   6 C    3.931 --   165 C    1.330   162 C    1.329   192 C    1.014
   165   6 C    3.905 --   164 C    1.330   168 N    1.220   166 C    1.180
   166   6 C    3.956 --   167 C    1.643   165 C    1.180   204 H    0.975
   167   6 C    3.955 --   166 C    1.643   169 C    1.186   205 H    0.974
   168   7 N    3.243 --   169 C    1.261   165 C    1.220   157 Cu   0.499
   169   6 C    3.899 --   168 N    1.261   170 C    1.257   167 C    1.186
   170   6 C    3.929 --   169 C    1.257   171 C    1.257   154 C    1.189
   171   6 C    3.899 --   191 N    1.261   170 C    1.257   172 C    1.186
   172   6 C    3.955 --   173 C    1.643   171 C    1.186   206 H    0.974
   173   6 C    3.956 --   172 C    1.643   174 C    1.180   207 H    0.975
   174   6 C    3.905 --   175 C    1.329   191 N    1.220   173 C    1.180
   175   6 C    3.931 --   186 C    1.329   174 C    1.329   176 C    1.014
   176   6 C    3.977 --   177 C    1.343   183 C    1.343   175 C    1.014
                           181 C    0.101
   177   6 C    3.903 --   180 C    1.362   176 C    1.343   178 O    1.031
   178   8 O    2.144 --   177 C    1.031   179 C    0.936
   179   6 C    3.908 --   209 H    0.983   208 H    0.980   210 H    0.980
                           178 O    0.936
   180   6 C    3.983 --   181 C    1.442   177 C    1.362   211 H    0.969
   181   6 C    3.993 --   180 C    1.442   182 C    1.442   212 H    0.974
                           176 C    0.101
   182   6 C    3.983 --   181 C    1.442   183 C    1.362   213 H    0.969
   183   6 C    3.903 --   182 C    1.362   176 C    1.343   184 O    1.031
   184   8 O    2.144 --   183 C    1.031   185 C    0.935
   185   6 C    3.908 --   214 H    0.983   216 H    0.980   215 H    0.980
                           184 O    0.935
   186   6 C    3.905 --   175 C    1.329   190 N    1.220   187 C    1.180
   187   6 C    3.956 --   188 C    1.643   186 C    1.180   217 H    0.975
   188   6 C    3.955 --   187 C    1.643   189 C    1.186   218 H    0.974
   189   6 C    3.900 --   190 N    1.261   158 C    1.258   188 C    1.186
   190   7 N    3.243 --   189 C    1.261   186 C    1.220   157 Cu   0.499
   191   7 N    3.243 --   171 C    1.261   174 C    1.220   157 Cu   0.500
   192   6 C    3.977 --   193 C    1.344   199 C    1.343   164 C    1.014
                           197 C    0.101
   193   6 C    3.903 --   196 C    1.362   192 C    1.344   194 O    1.031
   194   8 O    2.144 --   193 C    1.031   195 C    0.935
   195   6 C    3.908 --   220 H    0.983   221 H    0.980   219 H    0.980
                           194 O    0.935
   196   6 C    3.983 --   197 C    1.442   193 C    1.362   222 H    0.969
   197   6 C    3.993 --   196 C    1.442   198 C    1.442   223 H    0.974
                           192 C    0.101
   198   6 C    3.983 --   197 C    1.442   199 C    1.362   224 H    0.969
   199   6 C    3.903 --   198 C    1.362   192 C    1.343   200 O    1.031
   200   8 O    2.144 --   199 C    1.031   201 C    0.936
   201   6 C    3.908 --   227 H    0.983   226 H    0.980   225 H    0.980
                           200 O    0.936
   202   1 H    1.002 --   160 C    0.974
   203   1 H    1.002 --   161 C    0.975
   204   1 H    1.002 --   166 C    0.975
   205   1 H    1.002 --   167 C    0.974
   206   1 H    1.002 --   172 C    0.974
   207   1 H    1.002 --   173 C    0.975
   208   1 H    1.009 --   179 C    0.980
   209   1 H    1.016 --   179 C    0.983
   210   1 H    1.009 --   179 C    0.980
   211   1 H    1.000 --   180 C    0.969
   212   1 H    1.003 --   181 C    0.974
   213   1 H    1.000 --   182 C    0.969
   214   1 H    1.016 --   185 C    0.983
   215   1 H    1.009 --   185 C    0.980
   216   1 H    1.009 --   185 C    0.980
   217   1 H    1.002 --   187 C    0.975
   218   1 H    1.002 --   188 C    0.974
   219   1 H    1.009 --   195 C    0.980
   220   1 H    1.016 --   195 C    0.983
   221   1 H    1.009 --   195 C    0.980
   222   1 H    1.000 --   196 C    0.969
   223   1 H    1.003 --   197 C    0.974
   224   1 H    1.000 --   198 C    0.969
   225   1 H    1.009 --   201 C    0.980
   226   1 H    1.009 --   201 C    0.980
   227   1 H    1.016 --   201 C    0.983
 ---------------------------------------------------------------------------

           -------------------------------------------------
          | TOTAL ENERGY             -404.814797595020 Eh   |
          | GRADIENT NORM               0.000611524028 Eh/α |
          | HOMO-LUMO GAP               0.000218889066 eV   |
           -------------------------------------------------

 * finished run on 2022/07/30 at 12:34:18.256
