   * xtb version 6.5.1 (b24c23e) compiled by 'conda@728c89f4b128' on 2022-07-12
          program call               : xtb Cu_PhNH2_C4_3.xyz --gfn 1 --opt -T 48

   ID    Z sym.   atoms
    1   29 Cu     1, 61, 129
    2    6 C      2-6, 8-12, 14-18, 20-25, 27-31, 33-38, 62-66, 68-72, 74-78,
                  80-85, 87-91, 93-98, 121-128, 130-134, 136-140, 142-146,
                  148-153, 155-159, 161-166
    3    7 N      7, 13, 19, 26, 32, 39, 67, 73, 79, 86, 92, 99, 135, 141,
                  147, 154, 160, 167
    4    1 H      40-60, 100-120, 168-187
########################################################################
[WARNING] Please study the warnings concerning your input carefully
-1- prog_main_parseArguments: Unknown option '-T' provided
########################################################################

          :  Hamiltonian                  GFN1-xTB          :
 * total energy  :  -322.3251881 Eh     change       -0.1247486E-07 Eh
 * total energy  :  -323.6706777 Eh     change       -0.1345490E+01 Eh
 * total energy  :  -323.9142054 Eh     change       -0.2435277E+00 Eh
 * total energy  :  -324.0482499 Eh     change       -0.1340444E+00 Eh
 * total energy  :  -324.1154305 Eh     change       -0.6718065E-01 Eh
 * total energy  :  -324.1470324 Eh     change       -0.3160190E-01 Eh
 * total energy  :  -324.1643887 Eh     change       -0.1735632E-01 Eh
 * total energy  :  -324.1728883 Eh     change       -0.8499573E-02 Eh
 * total energy  :  -324.1787129 Eh     change       -0.5824598E-02 Eh
 * total energy  :  -324.1828456 Eh     change       -0.4132757E-02 Eh
 * total energy  :  -324.2034835 Eh     change       -0.9562650E-05 Eh
 * total energy  :  -324.2034917 Eh     change       -0.8199207E-05 Eh
 * total energy  :  -324.2034956 Eh     change       -0.3864900E-05 Eh
 * total energy  :  -324.2035081 Eh     change       -0.1253924E-04 Eh
 * total energy  :  -324.2035176 Eh     change       -0.9517167E-05 Eh
 * total energy  :  -324.2035251 Eh     change       -0.7490623E-05 Eh
 * total energy  :  -324.2035321 Eh     change       -0.7009362E-05 Eh
 * total energy  :  -324.2035376 Eh     change       -0.5442185E-05 Eh
 * total energy  :  -324.2035418 Eh     change       -0.4251672E-05 Eh
   *** GEOMETRY OPTIMIZATION CONVERGED AFTER 55 ITERATIONS ***

 final structure:
================
187
 xtb: 6.5.1 (b24c23e)
Cu          31.64928157962931        0.02801892303482        0.02833743457886
C           28.24592016834387        0.09717100768470        0.08608705631021
C           28.88371219388700        1.21070530449317       -0.43993888892538
C           28.21128719520283        2.34346333326758       -1.00736997716121
C           29.17237958658102        3.20953941200497       -1.41509109875250
C           30.44126658073984        2.62015454608349       -1.08546462491303
N           30.23478899499138        1.40343260652638       -0.50107234194699
C           31.68723202674241        3.20016920417063       -1.34113798088066
C           31.70511193937733        4.55715142629079       -1.93739275594832
C           32.32068234241014        4.78401815461005       -3.17101755772557
C           32.33602076794286        6.04707484028663       -3.73543668159792
C           31.74502862410231        7.12147778331796       -3.06565842081960
N           31.72350920889768        8.37854375198183       -3.64521150332793
C           31.12428331431727        6.90280820586079       -1.83318696113790
C           31.10551853631878        5.63448407986722       -1.28040632067184
C           32.91764346006441        2.59328647298581       -1.07686005648585
C           34.19640888825123        3.21851119639937       -1.25942041057168
C           35.13923460712059        2.31532280122614       -0.88724272363853
N           33.10165098319502        1.32735922215653       -0.58587251204727
C           34.44403909509790        1.13655045499594       -0.46769515362715
C           35.07573841791530       -0.03579541539326       -0.01596853525468
C           34.41288435540342       -1.18666666709727        0.44602173286485
C           35.07414214803021       -2.39349646665307        0.83973696727972
C           34.10802119113618       -3.26388931842413        1.23005299726734
C           32.84939320186668       -2.58953984305164        1.08650696716696
N           33.06782506127651       -1.32821847755847        0.59762861867776
C           31.60468459690732       -3.14920840129065        1.38539783115062
C           31.58598774474168       -4.51020168531788        1.97251151498925
C           32.22801413725810       -4.77133613141937        3.18566485640564
C           32.20707136467682       -6.03800794689921        3.74176524742630
C           31.55191257217454       -7.08198879979741        3.08364636633316
N           31.49401723266565       -8.34087341003849        3.65671622223940
C           30.90515402728006       -6.82899217163927        1.87129700602504
C           30.92297082413427       -5.55694193213541        1.32711386506298
C           30.37543939200245       -2.51777040625489        1.17436496636656
C           29.09565686994334       -3.05659676407561        1.54573496746014
C           28.15736689206118       -2.14955119959823        1.17573068994426
C           28.85551761180683       -1.04266565730523        0.58866371679699
N           30.19888980263363       -1.29071276063887        0.60197028050012
H           27.16105199798725        0.11946079877908        0.10517062682759
H           27.14044346984849        2.44435972607967       -1.09017673725482
H           29.03979133170966        4.15859797661880       -1.90917028133568
H           32.77345031100020        3.95352283756743       -3.70167975004408
H           32.80732108099272        6.20789046968160       -4.69893592084513
H           32.44617997763411        8.54508966667980       -4.32717242813866
H           31.58813054737532        9.14140826641126       -3.00119953992061
H           30.66107539528226        7.73225487268215       -1.30991643033195
H           30.63837770022866        5.47723397554607       -0.31427415616247
H           34.35016046748342        4.22654135316587       -1.60927245636786
H           36.21128703968767        2.43175997460606       -0.88554420860421
H           36.14066776986461       -2.54980855094664        0.80832971106349
H           34.23266527643388       -4.27981403492739        1.56849309546370
H           32.73059537731018       -3.96426338133367        3.70753539004220
H           32.69932395971281       -6.22536918485448        4.68986733278731
H           32.22588349854559       -8.54043648515223        4.31977404294472
H           31.31241271512248       -9.09380092220460        3.01237751021995
H           30.39250668794832       -7.63460189006399        1.35696684090735
H           30.43409599749170       -5.37309879227167        0.37654873868651
H           28.94166223926651       -4.00209661101277        2.04043250809350
H           27.08682906498960       -2.20689246485259        1.29574836533215
Cu          58.58111642244108       -0.01900136893355        0.05041531552342
C           61.98516309092853       -0.00992278525081        0.13498793004310
C           61.34827026062502       -1.06391688812828        0.77294525463746
C           62.02179059203989       -2.16172412357522        1.40438298585742
C           61.06141008543295       -2.98363078717710        1.89640577177409
C           59.79174849537792       -2.38676197972477        1.58315159598591
N           59.99734062853310       -1.22502023689615        0.89590545414493
C           58.54612981487800       -2.92765368363829        1.91499586991636
C           58.52996769914472       -4.17782414011062        2.71153725748850
C           57.92653462789208       -5.33399068758772        2.21045259047694
C           57.91216865625549       -6.50432316905610        2.94832604891526
C           58.49195055236114       -6.53906535004288        4.21902044138458
N           58.51418551172097       -7.71842783252948        4.94422112948695
C           59.10116521361606       -5.38852124263871        4.72602011170072
C           59.11894950693173       -4.22494189902469        3.97747031409336
C           57.31491299592871       -2.37585467696601        1.55203539108453
C           56.03628081587842       -2.88426641424266        1.95996928849423
C           55.09260778010836       -2.07074471811860        1.42082343298461
N           57.12961059274677       -1.25806402104079        0.78162986420166
C           55.78695574912212       -1.05622180672301        0.68743725617479
C           55.15408583458389       -0.01596735191705       -0.01595249030129
C           55.81521008107268        1.01787016994537       -0.70241437917290
C           55.15173780171503        2.02650627421626       -1.47149584181823
C           56.11735030373003        2.83242146211165       -1.98268988332626
C           57.37806540046252        2.32725440957417       -1.51876296972154
N           57.16088760353113        1.21637575512288       -0.74656827380995
C           58.62329341235840        2.87862272798518       -1.83071530098949
C           58.64274363679750        4.12050324789954       -2.64014151591832
C           58.01690188650817        5.28196921658771       -2.18068575458583
C           58.03925662266303        6.44449371190250       -2.93067714356763
C           58.67960302308889        6.46577960465833       -4.17229056389188
N           58.73905757181198        7.63785673098336       -4.90710077272419
C           59.31072368189691        5.30953820301225       -4.63783214244672
C           59.29151215338950        4.15400297778873       -3.87699555615256
C           59.85363046334243        2.34636459489324       -1.43401886353507
C           61.13393127055735        2.94935368852285       -1.68631268133370
C           62.07294415293062        2.13738179070868       -1.13959832130221
C           61.37494924389652        1.03862076585934       -0.53709666291542
N           60.03103010934218        1.19032389592605       -0.72959593124882
H           63.07007669922437       -0.00630185525486        0.16291178813708
H           63.09286584318689       -2.28334663996858        1.44639613636167
H           61.19496694977536       -3.92016517020347        2.41359329709448
H           57.48244314068602       -5.31776320694156        1.22109611205982
H           57.45017777984195       -7.39824542973302        2.54361540765208
H           57.79627974939263       -8.38149023238776        4.69903813371481
H           58.63887535122331       -7.60358851663334        5.93741234951837
H           59.55601644780025       -5.41028432024278        5.71038001455602
H           59.57693244358935       -3.33085697677648        4.38638803982329
H           55.88304245291654       -3.74250242266667        2.59409352917379
H           54.02045695155271       -2.13877134865506        1.51421696342026
H           54.08413226050947        2.09438340075796       -1.60764985766515
H           55.99081711203169        3.68387164317923       -2.63170234298934
H           57.52606527528366        5.27648856564870       -1.21354598625298
H           57.55959788293218        7.34300672064917       -2.55792426770190
H           58.01403614303496        8.30622083462596       -4.70014333510539
H           58.90713253858728        7.51318778954983       -5.89269475370681
H           59.81227833411189        5.32058896534985       -5.59943025569131
H           59.76819839125859        3.25551239718513       -4.25363032529447
H           61.28776527317010        3.88338276928978       -2.20240071599011
H           63.14396268646393        2.26592595374757       -1.12731599237292
C           37.70338340747086       -0.06932107184211       -0.03016689100022
C           36.48137869815356       -0.05712455120495       -0.02608381505452
C           39.05295363803297       -0.07543193583011       -0.03288553175760
C           40.27511125833057       -0.07402209725284       -0.03361503504836
C           51.17593825846583       -0.00577946885741       -0.03312273997236
C           49.95386749427580       -0.00842791040608       -0.02592450014467
C           52.52588810318476       -0.00612954724566       -0.03473162187389
C           53.74787479683201       -0.00970930520813       -0.03174534611780
Cu          45.11386305346168       -0.03614867288233       -0.01052552964303
C           41.68054149139471       -0.06709583083608       -0.03698415631458
C           42.31975329706119        1.13304031523186       -0.39712723139686
C           41.63128040308696        2.34433372982108       -0.72606654760166
C           42.58034784315790        3.28064244649916       -0.98290415751128
C           43.85565690113491        2.64249103347431       -0.82402958968504
N           43.66332861112225        1.33601614480157       -0.45934063492943
C           45.09128161787418        3.27276866090461       -0.98789130392674
C           45.08324015865171        4.70036233889824       -1.39237415437420
C           44.52959008552295        5.09501587113805       -2.61223707485188
C           44.52616285434676        6.42576213779615       -2.99210029806396
C           45.07679897955614        7.39620135211416       -2.15140570894026
N           45.03197270814162        8.73432464866978       -2.50573532463410
C           45.62007829435959        7.01106941210476       -0.92328492786485
C           45.62853946775545        5.67705051556714       -0.55594618963678
C           46.33543785623262        2.66625715876795       -0.79843494604554
C           47.60140734938233        3.30256978619480       -1.02474660718232
C           48.56372063470340        2.38443681154568       -0.75142759378837
N           46.54614813115241        1.37160506252631       -0.40405230991249
C           47.89254975495935        1.18092255925756       -0.36375625045168
C           48.54812220960048       -0.01189314255229       -0.00956519704436
C           47.90867616230210       -1.21122680681986        0.35280044396978
C           48.59618190775128       -2.42577054372972        0.67079832952442
C           47.64670470909796       -3.35528665077372        0.95057069961960
C           46.37221969294168       -2.71053038982608        0.81352373632764
N           46.56507712779950       -1.40710938539532        0.43916358661575
C           45.13632858255858       -3.33345762214484        1.00604178052088
C           45.14668550255839       -4.74826531947580        1.45091742485048
C           44.56415199869284       -5.74736914493247        0.66750094119742
C           44.57524374506125       -7.06857650482594        1.07856241438741
C           45.17133255028891       -7.42022309162486        2.29219662278224
N           45.14207468813293       -8.73370976801509        2.72983272203272
C           45.74486618273215       -6.42524221304553        3.08777886588903
C           45.73711905026450       -5.10779522525713        2.66482614369210
C           43.89203716443360       -2.72821469779159        0.81250060293117
C           42.62545504202670       -3.35607190438483        1.05861092657351
C           41.66391577652613       -2.44574277971916        0.75812911099311
C           42.33598016934162       -1.25337032909796        0.33929478027015
N           43.68220470770505       -1.44392936591047        0.38426901289481
H           40.55910966838852        2.45792300621996       -0.74558994471848
H           42.43224203374720        4.31613605703240       -1.24338132429853
H           44.11510550308410        4.34553501691308       -3.27771309923353
H           44.09943957103989        6.71937961899467       -3.94505397355652
H           44.94770791532954        8.90873333800634       -3.49453517450034
H           45.71440075487237        9.31718960870641       -2.04765812913374
H           46.03617280679210        7.76169156070952       -0.26009046277518
H           46.04574930715587        5.38622358906138        0.40203263557525
H           47.73432115704456        4.31708666081120       -1.36430972030747
H           49.63411678947985        2.50147070361629       -0.81018505844378
H           49.66783662994393       -2.54590798746311        0.66909621341888
H           47.79410720361231       -4.39114730223683        1.21024827954150
H           44.11570004287509       -5.48527764549840       -0.28459510118465
H           44.12482090739939       -7.83598022652159        0.45843571361492
H           45.85255498867535       -8.97309263341588        3.40300994487335
H           45.02494088253443       -9.42086575404692        2.00225229353682
H           46.19669003559199       -6.69006379250753        4.03755573296730
H           46.17636243284491       -4.34000144144901        3.29242613962921
H           42.49068504089830       -4.35922495174166        1.42943821818620
H           40.59346771591709       -2.55993799138088        0.82106363938548

          :  Hamiltonian                  GFN1-xTB          :
         :: total energy            -324.203541836943 Eh    ::
         :: gradient norm              0.000308536749 Eh/a0 ::
         :: HOMO-LUMO gap              0.002152953475 eV    ::
         :: SCC energy              -329.311849380828 Eh    ::
         :: repulsion energy           5.275305776755 Eh    ::

    * Orbital Energies and Occupations

         #    Occupation            Energy/Eh            Energy/eV
      -------------------------------------------------------------
         1        2.0000           -0.7776340             -21.1605
       ...           ...                  ...                  ...
       289        2.0000           -0.3974316             -10.8147
       290        2.0000           -0.3962133             -10.7815
       291        2.0000           -0.3953589             -10.7583
       292        2.0000           -0.3950501             -10.7499
       293        2.0000           -0.3945703             -10.7368
       294        2.0000           -0.3873870             -10.5413
       295        2.0000           -0.3873341             -10.5399
       296        2.0000           -0.3867705             -10.5246
       297        2.0000           -0.3818423             -10.3905
       298        2.0000           -0.3760516             -10.2329
       299        2.0000           -0.3677169             -10.0061
       300        1.0253           -0.3478751              -9.4662
       301        1.0058           -0.3478335              -9.4650 (HOMO)
       302        0.9688           -0.3477544              -9.4629 (LUMO)
       303        0.0000           -0.3329783              -9.0608
       304                         -0.3234789              -8.8023
       305                         -0.3188021              -8.6750
       306                         -0.3187379              -8.6733
       307                         -0.3178046              -8.6479
       308                         -0.3147710              -8.5654
       309                         -0.2921851              -7.9508
       310                         -0.2847202              -7.7476
       311                         -0.2807765              -7.6403
       312                         -0.2557556              -6.9595
       ...                                ...                  ...
       639                          1.5268872              41.5487
      -------------------------------------------------------------
                  HL-Gap            0.0000791 Eh            0.0022 eV

Wiberg/Mayer (AO) data.
largest (>0.10) Wiberg bond orders for each atom

     #   Z sym  total        # sym  WBO       # sym  WBO       # sym  WBO
 ---------------------------------------------------------------------------
     1  29 Cu   2.195 --    39 N    0.507     7 N    0.506    19 N    0.504
                            26 N    0.504
     2   6 C    3.926 --    38 C    1.360     3 C    1.360    40 H    0.971
     3   6 C    3.918 --     2 C    1.360     7 N    1.229     4 C    1.173
     4   6 C    3.954 --     5 C    1.652     3 C    1.173    41 H    0.976
     5   6 C    3.958 --     4 C    1.652     6 C    1.175    42 H    0.973
     6   6 C    3.911 --     8 C    1.316     7 N    1.239     5 C    1.175
     7   7 N    3.242 --     6 C    1.239     3 C    1.229     1 Cu   0.506
     8   6 C    3.934 --    16 C    1.323     6 C    1.316     9 C    1.034
     9   6 C    3.988 --    15 C    1.381    10 C    1.380     8 C    1.034
    10   6 C    3.988 --    11 C    1.469     9 C    1.380    43 H    0.973
    11   6 C    3.990 --    10 C    1.469    12 C    1.354    44 H    0.972
    12   6 C    3.952 --    14 C    1.354    11 C    1.354    13 N    1.115
    13   7 N    3.133 --    12 C    1.115    46 H    0.934    45 H    0.933
    14   6 C    3.989 --    15 C    1.468    12 C    1.354    47 H    0.972
    15   6 C    3.987 --    14 C    1.468     9 C    1.381    48 H    0.973
    16   6 C    3.907 --     8 C    1.323    19 N    1.222    17 C    1.182
    17   6 C    3.954 --    18 C    1.638    16 C    1.182    49 H    0.973
    18   6 C    3.956 --    17 C    1.638    20 C    1.190    50 H    0.974
    19   7 N    3.247 --    20 C    1.256    16 C    1.222     1 Cu   0.504
    20   6 C    3.899 --    21 C    1.258    19 N    1.256    18 C    1.190
    21   6 C    3.935 --    20 C    1.258    22 C    1.258   122 C    1.188
    22   6 C    3.899 --    21 C    1.258    26 N    1.256    23 C    1.190
    23   6 C    3.956 --    24 C    1.638    22 C    1.190    51 H    0.974
    24   6 C    3.954 --    23 C    1.638    25 C    1.182    52 H    0.973
    25   6 C    3.907 --    27 C    1.324    26 N    1.222    24 C    1.182
    26   7 N    3.247 --    22 C    1.256    25 C    1.222     1 Cu   0.504
    27   6 C    3.934 --    25 C    1.324    35 C    1.316    28 C    1.034
    28   6 C    3.988 --    34 C    1.381    29 C    1.380    27 C    1.034
    29   6 C    3.988 --    30 C    1.469    28 C    1.380    53 H    0.973
    30   6 C    3.990 --    29 C    1.469    31 C    1.354    54 H    0.972
    31   6 C    3.952 --    33 C    1.354    30 C    1.354    32 N    1.115
    32   7 N    3.133 --    31 C    1.115    56 H    0.934    55 H    0.934
    33   6 C    3.989 --    34 C    1.468    31 C    1.354    57 H    0.972
    34   6 C    3.987 --    33 C    1.468    28 C    1.381    58 H    0.973
    35   6 C    3.911 --    27 C    1.316    39 N    1.239    36 C    1.175
    36   6 C    3.958 --    37 C    1.652    35 C    1.175    59 H    0.973
    37   6 C    3.954 --    36 C    1.652    38 C    1.173    60 H    0.976
    38   6 C    3.918 --     2 C    1.360    39 N    1.228    37 C    1.173
    39   7 N    3.242 --    35 C    1.239    38 C    1.228     1 Cu   0.507
    40   1 H    1.002 --     2 C    0.971
    41   1 H    0.998 --     4 C    0.976
    42   1 H    1.005 --     5 C    0.973
    43   1 H    1.005 --    10 C    0.973
    44   1 H    0.999 --    11 C    0.972
    45   1 H    0.961 --    13 N    0.933
    46   1 H    0.961 --    13 N    0.934
    47   1 H    0.999 --    14 C    0.972
    48   1 H    1.005 --    15 C    0.973
    49   1 H    1.006 --    17 C    0.973
    50   1 H    1.003 --    18 C    0.974
    51   1 H    1.002 --    23 C    0.974
    52   1 H    1.006 --    24 C    0.973
    53   1 H    1.005 --    29 C    0.973
    54   1 H    0.999 --    30 C    0.972
    55   1 H    0.961 --    32 N    0.934
    56   1 H    0.961 --    32 N    0.934
    57   1 H    0.999 --    33 C    0.972
    58   1 H    1.005 --    34 C    0.973
    59   1 H    1.005 --    36 C    0.973
    60   1 H    0.998 --    37 C    0.976
    61  29 Cu   2.190 --    99 N    0.506    67 N    0.506    79 N    0.503
                            86 N    0.503
    62   6 C    3.926 --    98 C    1.361    63 C    1.360   100 H    0.971
    63   6 C    3.918 --    62 C    1.360    67 N    1.229    64 C    1.173
    64   6 C    3.954 --    65 C    1.652    63 C    1.173   101 H    0.976
    65   6 C    3.958 --    64 C    1.652    66 C    1.175   102 H    0.973
    66   6 C    3.912 --    68 C    1.316    67 N    1.240    65 C    1.175
    67   7 N    3.242 --    66 C    1.240    63 C    1.229    61 Cu   0.506
    68   6 C    3.934 --    76 C    1.324    66 C    1.316    69 C    1.033
    69   6 C    3.988 --    75 C    1.381    70 C    1.381    68 C    1.033
    70   6 C    3.988 --    71 C    1.468    69 C    1.381   103 H    0.973
    71   6 C    3.990 --    70 C    1.468    72 C    1.354   104 H    0.972
    72   6 C    3.952 --    74 C    1.355    71 C    1.354    73 N    1.114
    73   7 N    3.133 --    72 C    1.114   106 H    0.934   105 H    0.934
    74   6 C    3.989 --    75 C    1.468    72 C    1.355   107 H    0.972
    75   6 C    3.987 --    74 C    1.468    69 C    1.381   108 H    0.973
    76   6 C    3.907 --    68 C    1.324    79 N    1.222    77 C    1.182
    77   6 C    3.955 --    78 C    1.639    76 C    1.182   109 H    0.973
    78   6 C    3.956 --    77 C    1.639    80 C    1.189   110 H    0.974
    79   7 N    3.247 --    80 C    1.256    76 C    1.222    61 Cu   0.503
    80   6 C    3.899 --    81 C    1.259    79 N    1.256    78 C    1.189
    81   6 C    3.935 --    82 C    1.259    80 C    1.259   128 C    1.187
    82   6 C    3.899 --    81 C    1.259    86 N    1.257    83 C    1.189
    83   6 C    3.956 --    84 C    1.639    82 C    1.189   111 H    0.974
    84   6 C    3.955 --    83 C    1.639    85 C    1.182   112 H    0.973
    85   6 C    3.907 --    87 C    1.324    86 N    1.222    84 C    1.182
    86   7 N    3.247 --    82 C    1.257    85 C    1.222    61 Cu   0.503
    87   6 C    3.934 --    85 C    1.324    95 C    1.316    88 C    1.033
    88   6 C    3.988 --    94 C    1.381    89 C    1.381    87 C    1.033
    89   6 C    3.988 --    90 C    1.468    88 C    1.381   113 H    0.973
    90   6 C    3.990 --    89 C    1.468    91 C    1.354   114 H    0.972
    91   6 C    3.952 --    93 C    1.355    90 C    1.354    92 N    1.114
    92   7 N    3.133 --    91 C    1.114   115 H    0.934   116 H    0.934
    93   6 C    3.989 --    94 C    1.468    91 C    1.355   117 H    0.972
    94   6 C    3.988 --    93 C    1.468    88 C    1.381   118 H    0.973
    95   6 C    3.912 --    87 C    1.316    99 N    1.240    96 C    1.175
    96   6 C    3.958 --    97 C    1.652    95 C    1.175   119 H    0.973
    97   6 C    3.954 --    96 C    1.652    98 C    1.173   120 H    0.976
    98   6 C    3.918 --    62 C    1.361    99 N    1.229    97 C    1.173
    99   7 N    3.242 --    95 C    1.240    98 C    1.229    61 Cu   0.506
   100   1 H    1.002 --    62 C    0.971
   101   1 H    0.998 --    64 C    0.976
   102   1 H    1.005 --    65 C    0.973
   103   1 H    1.005 --    70 C    0.973
   104   1 H    0.999 --    71 C    0.972
   105   1 H    0.961 --    73 N    0.934
   106   1 H    0.961 --    73 N    0.934
   107   1 H    0.999 --    74 C    0.972
   108   1 H    1.005 --    75 C    0.973
   109   1 H    1.006 --    77 C    0.973
   110   1 H    1.003 --    78 C    0.974
   111   1 H    1.002 --    83 C    0.974
   112   1 H    1.006 --    84 C    0.973
   113   1 H    1.005 --    89 C    0.973
   114   1 H    0.999 --    90 C    0.972
   115   1 H    0.961 --    92 N    0.934
   116   1 H    0.961 --    92 N    0.934
   117   1 H    0.999 --    93 C    0.972
   118   1 H    1.005 --    94 C    0.973
   119   1 H    1.005 --    96 C    0.973
   120   1 H    0.998 --    97 C    0.976
   121   6 C    3.935 --   122 C    2.476   123 C    1.309
   122   6 C    3.925 --   121 C    2.476    21 C    1.188   124 C    0.199
   123   6 C    3.933 --   124 C    2.475   121 C    1.309
   124   6 C    3.926 --   123 C    2.475   130 C    1.190   122 C    0.199
   125   6 C    3.932 --   126 C    2.476   127 C    1.307
   126   6 C    3.925 --   125 C    2.476   149 C    1.188   128 C    0.199
   127   6 C    3.935 --   128 C    2.477   125 C    1.307
   128   6 C    3.924 --   127 C    2.477    81 C    1.187   126 C    0.199
   129  29 Cu   2.162 --   167 N    0.499   135 N    0.499   154 N    0.499
                           147 N    0.499
   130   6 C    3.925 --   166 C    1.256   131 C    1.256   124 C    1.190
   131   6 C    3.899 --   135 N    1.259   130 C    1.256   132 C    1.189
   132   6 C    3.954 --   133 C    1.638   131 C    1.189   168 H    0.974
   133   6 C    3.955 --   132 C    1.638   134 C    1.183   169 H    0.973
   134   6 C    3.905 --   136 C    1.323   135 N    1.221   133 C    1.183
   135   7 N    3.240 --   131 C    1.259   134 C    1.221   129 Cu   0.499
   136   6 C    3.930 --   134 C    1.323   144 C    1.321   137 C    1.029
   137   6 C    3.988 --   138 C    1.383   143 C    1.382   136 C    1.029
   138   6 C    3.988 --   139 C    1.467   137 C    1.383   170 H    0.973
                           142 C    0.100
   139   6 C    3.990 --   138 C    1.467   140 C    1.355   171 H    0.972
                           143 C    0.100
   140   6 C    3.953 --   139 C    1.355   142 C    1.355   141 N    1.113
   141   7 N    3.132 --   140 C    1.113   172 H    0.934   173 H    0.934
   142   6 C    3.990 --   143 C    1.467   140 C    1.355   174 H    0.972
                           138 C    0.100
   143   6 C    3.988 --   142 C    1.467   137 C    1.382   175 H    0.973
                           139 C    0.100
   144   6 C    3.905 --   136 C    1.321   147 N    1.222   145 C    1.183
   145   6 C    3.955 --   146 C    1.638   144 C    1.183   176 H    0.973
   146   6 C    3.954 --   145 C    1.638   148 C    1.190   177 H    0.974
   147   7 N    3.240 --   148 C    1.259   144 C    1.222   129 Cu   0.499
   148   6 C    3.900 --   147 N    1.259   149 C    1.257   146 C    1.190
   149   6 C    3.925 --   148 C    1.257   150 C    1.256   126 C    1.188
   150   6 C    3.900 --   154 N    1.258   149 C    1.256   151 C    1.190
   151   6 C    3.954 --   152 C    1.637   150 C    1.190   178 H    0.974
   152   6 C    3.955 --   151 C    1.637   153 C    1.184   179 H    0.973
   153   6 C    3.905 --   155 C    1.320   154 N    1.223   152 C    1.184
   154   7 N    3.240 --   150 C    1.258   153 C    1.223   129 Cu   0.499
   155   6 C    3.930 --   163 C    1.322   153 C    1.320   156 C    1.032
   156   6 C    3.988 --   157 C    1.382   162 C    1.381   155 C    1.032
   157   6 C    3.988 --   158 C    1.468   156 C    1.382   180 H    0.973
   158   6 C    3.990 --   157 C    1.468   159 C    1.355   181 H    0.972
                           162 C    0.100
   159   6 C    3.952 --   158 C    1.355   161 C    1.355   160 N    1.114
   160   7 N    3.132 --   159 C    1.114   183 H    0.934   182 H    0.934
   161   6 C    3.990 --   162 C    1.468   159 C    1.355   184 H    0.972
   162   6 C    3.988 --   161 C    1.468   156 C    1.381   185 H    0.973
                           158 C    0.100
   163   6 C    3.905 --   155 C    1.322   167 N    1.222   164 C    1.183
   164   6 C    3.955 --   165 C    1.638   163 C    1.183   186 H    0.973
   165   6 C    3.954 --   164 C    1.638   166 C    1.190   187 H    0.974
   166   6 C    3.899 --   167 N    1.259   130 C    1.256   165 C    1.190
   167   7 N    3.240 --   166 C    1.259   163 C    1.222   129 Cu   0.499
   168   1 H    1.003 --   132 C    0.974
   169   1 H    1.005 --   133 C    0.973
   170   1 H    1.005 --   138 C    0.973
   171   1 H    0.999 --   139 C    0.972
   172   1 H    0.961 --   141 N    0.934
   173   1 H    0.961 --   141 N    0.934
   174   1 H    0.999 --   142 C    0.972
   175   1 H    1.005 --   143 C    0.973
   176   1 H    1.006 --   145 C    0.973
   177   1 H    1.003 --   146 C    0.974
   178   1 H    1.003 --   151 C    0.974
   179   1 H    1.006 --   152 C    0.973
   180   1 H    1.005 --   157 C    0.973
   181   1 H    0.999 --   158 C    0.972
   182   1 H    0.961 --   160 N    0.934
   183   1 H    0.961 --   160 N    0.934
   184   1 H    0.999 --   161 C    0.972
   185   1 H    1.005 --   162 C    0.973
   186   1 H    1.005 --   164 C    0.973
   187   1 H    1.003 --   165 C    0.974
 ---------------------------------------------------------------------------

           -------------------------------------------------
          | TOTAL ENERGY             -324.203541836943 Eh   |
          | GRADIENT NORM               0.000308536749 Eh/α |
          | HOMO-LUMO GAP               0.002152953475 eV   |
           -------------------------------------------------

 * finished run on 2022/07/30 at 07:29:01.005
