   * xtb version 6.5.1 (b24c23e) compiled by 'conda@728c89f4b128' on 2022-07-12
          program call               : xtb Fe_DHP_C2_2.xyz --gfn 1 --opt -T 48

   ID    Z sym.   atoms
    1   26 Fe     1, 59
    2    6 C      2-6, 8-11, 13-17, 19-24, 26-29, 31-36, 60-64, 66-69, 71-75,
                  77-82, 84-87, 89-94, 117, 118
    3    7 N      7, 12, 18, 25, 30, 37, 65, 70, 76, 83, 88, 95
    4    1 H      38-58, 96-116
########################################################################
[WARNING] Please study the warnings concerning your input carefully
-1- prog_main_parseArguments: Unknown option '-T' provided
########################################################################

          :  Hamiltonian                  GFN1-xTB          :
 * total energy  :  -197.7365969 Eh     change       -0.2638046E-08 Eh
 * total energy  :  -197.8182837 Eh     change       -0.8168680E-01 Eh
 * total energy  :  -197.8651815 Eh     change       -0.4689783E-01 Eh
 * total energy  :  -197.8776583 Eh     change       -0.1247677E-01 Eh
 * total energy  :  -197.8848075 Eh     change       -0.7149168E-02 Eh
 * total energy  :  -197.8885764 Eh     change       -0.3768972E-02 Eh
 * total energy  :  -197.8905730 Eh     change       -0.1996607E-02 Eh
 * total energy  :  -197.8916875 Eh     change       -0.1114505E-02 Eh
 * total energy  :  -197.8924086 Eh     change       -0.7210462E-03 Eh
 * total energy  :  -197.8929180 Eh     change       -0.5093895E-03 Eh
 * total energy  :  -197.8944295 Eh     change       -0.2090776E-04 Eh
 * total energy  :  -197.8944473 Eh     change       -0.1785166E-04 Eh
 * total energy  :  -197.8944614 Eh     change       -0.1412833E-04 Eh
 * total energy  :  -197.8944736 Eh     change       -0.1216623E-04 Eh
 * total energy  :  -197.8944851 Eh     change       -0.1149457E-04 Eh
 * total energy  :  -197.8944952 Eh     change       -0.1008587E-04 Eh
 * total energy  :  -197.8945027 Eh     change       -0.7513025E-05 Eh
 * total energy  :  -197.8945082 Eh     change       -0.5461718E-05 Eh
 * total energy  :  -197.8945129 Eh     change       -0.4717495E-05 Eh
   *** GEOMETRY OPTIMIZATION CONVERGED AFTER 39 ITERATIONS ***

 final structure:
================
118
 xtb: 6.5.1 (b24c23e)
Fe          15.22647457032987       -0.05433243242206       -0.03489027474135
C           11.84572903932939       -0.07209083303893       -0.15389544068067
C           12.49396754935440       -1.28115011584677       -0.00048228709624
C           11.82108249701028       -2.53506645975294        0.15666747921813
C           12.77848272679702       -3.49314783206489        0.14885519543095
C           14.03467822143701       -2.82413284149353       -0.03387103978621
N           13.84962885920756       -1.46776322470665       -0.06707495110842
C           15.24769730152669       -3.47281586269175       -0.24136446531685
C           15.26275306770145       -4.95001149857759       -0.33541563992644
C           14.54221807915063       -5.60417466692407       -1.26149155844920
C           14.53160767786473       -7.10473964465061       -1.37483765300010
N           15.61770017406173       -7.70726354025244       -0.60017274368312
C           16.20889850854947       -7.03565797691854        0.43365958039474
C           16.09671122119389       -5.70297178741410        0.58751400302274
C           16.44927100805327       -2.78682152418769       -0.37642611324399
C           17.70250691480717       -3.41159187431989       -0.67775125938771
C           18.64759409641146       -2.44195386472434       -0.61736133700370
N           16.62566468512474       -1.43846526313502       -0.18509885966747
C           17.97144203575532       -1.22917963439756       -0.27952691008917
C           18.63022210179667       -0.03125047115062        0.01842969888338
C           17.94575462727302        1.15322889989919        0.31379800118353
C           18.59422225511417        2.36737618119624        0.69770195957273
C           17.63260860900741        3.32039504557193        0.75962143403789
C           16.39837105660089        2.68547625489241        0.40567387005649
N           16.60043825556936        1.34442849459652        0.18795467406872
C           15.19504276700760        3.35944451153998        0.23543020758019
C           15.18572234433117        4.83386523762049        0.36766775690040
C           14.41851365280570        5.45345398626975        1.27966420031879
C           14.38509701401771        6.94984125575203        1.43547594930272
N           15.48635045045753        7.58879550710266        0.71262123895598
C           16.12830504838599        6.95158931675708       -0.31256712064716
C           16.04475641457465        5.62139328127670       -0.50184142937974
C           14.00402621653227        2.70285647272814       -0.05714178019353
C           12.75571871296584        3.36349889180679       -0.30995804701596
C           11.81479007563092        2.39555715089961       -0.42070123255001
C           12.49002339517875        1.14498795649998       -0.24612564826131
N           13.83471539044284        1.34451584815776       -0.07344418951888
H           10.76225109091363       -0.07810404899993       -0.19609122909302
H           10.75345893513551       -2.64854650524588        0.26058605355420
H           12.65622721476151       -4.55852681521589        0.25924869176904
H           13.92087880420417       -5.07744906581296       -1.97626890664239
H           14.65185180469577       -7.40661455892114       -2.42466474159600
H           13.55935586300915       -7.50475485465930       -1.03216434355988
H           15.56757825788032       -8.71220261297528       -0.52294473129693
H           16.83393905365085       -7.64809790414269        1.07559136079060
H           16.60908477551472       -5.18535295656492        1.38590144304284
H           17.83284468841056       -4.45631741068321       -0.90931124759111
H           19.70893117713992       -2.52793297519281       -0.78443135303927
H           19.64908968178586        2.46448147266989        0.89639960315399
H           17.74031843441783        4.36042286209984        1.02175312581549
H           13.77421745420229        4.89956434418328        1.95241426707140
H           14.46910461676891        7.22211691068725        2.49707141962004
H           13.41872914515271        7.34794593967849        1.07466901354156
H           15.42081338628625        8.59421074804169        0.65589446477960
H           16.76681159456543        7.58926510132998       -0.91552698544536
H           16.59626218523638        5.13135616715418       -1.29151327132439
H           12.62823478647704        4.43064793402983       -0.39470927706701
H           10.75644614438866        2.50025345898552       -0.60077762968215
Fe          26.06390146553433        0.06055138958532       -0.02239351808152
C           29.44464537811704        0.10344125133338       -0.13482913144466
C           28.79640657024648        1.25138914040318        0.27453254177975
C           29.46928919623849        2.44234531644200        0.69717837910858
C           28.51188881412343        3.37977563445483        0.89518307570390
C           27.25569617695005        2.76557936722900        0.57309469626941
N           27.44074597982922        1.44794752190191        0.24954451578271
C           26.04267916912360        3.44368272543283        0.50965389628960
C           26.02763203518798        4.90663583666330        0.73486914566310
C           26.74818715270945        5.74432121958813       -0.02919805203493
C           26.75879700256076        7.23424132167486        0.18217700237937
N           25.67269895104286        7.65645227982937        1.06810092957113
C           25.08147819917045        6.77860265831480        1.93367005611918
C           25.19365501921608        5.44395294825675        1.79788826575695
C           24.84110623660875        2.80266683188572        0.23049251312392
C           23.58787060943623        3.47755100645757        0.07028461239906
C           22.64278362333647        2.51754957623802       -0.07885268906492
N           24.66471109800107        1.44466776275379        0.12797052039515
C           23.31893454162176        1.26052842155418       -0.00919528554702
C           22.66015356191511        0.02656632589284        0.02470003763773
C           23.34462110391871       -1.19370481394258        0.05896264314263
C           22.69615742293206       -2.46195587281846        0.17333501930482
C           23.65777088713778       -3.40605289616472        0.02924946243131
C           24.89200441094593       -2.70995984506773       -0.18019002840768
N           24.68993759192835       -1.35343771977183       -0.10498593879098
C           26.09532992232329       -3.33167584981625       -0.49114316072897
C           26.10464860529704       -4.80011764020443       -0.67844494511833
C           26.87187434244808       -5.60100977071972        0.07929761716916
C           26.90530571026157       -7.09596379001132       -0.08970956170523
N           25.80403477652097       -7.56488426723798       -0.93283499938588
C           25.16206428982790       -6.72248732974783       -1.79735536214481
C           25.24560601956225       -5.38266826893267       -1.69671092570062
C           27.28634465010383       -2.62759048151333       -0.63597414357399
C           28.53465118647063       -3.21856735399336       -1.02470796386367
C           29.47558146244224       -2.24941829674185       -0.92509921928122
C           28.80035008564978       -1.06546953248967       -0.48615984766148
N           27.45565911724498       -1.29741461178745       -0.36031789534485
H           30.52812388012781        0.11836707179075       -0.17473666709829
H           30.53691143917857        2.53087251729162        0.82304470914020
H           28.63414320772257        4.39662806541123        1.23168120930296
H           27.36952985621256        5.38328881712890       -0.84036661473583
H           26.63857429991674        7.75442102384501       -0.77838815073848
H           27.73104433171554        7.55137091693586        0.60274156490339
H           25.72279938103704        8.62139960611674        1.35921077086228
H           24.45641074802851        7.23898823936971        2.69207465095839
H           24.68125020615255        4.76703406247324        2.46654796257582
H           23.45753302778698        4.54762953419070        0.06834973711302
H           21.58144754643081        2.63738494502593       -0.22358331083347
H           21.64129198211003       -2.59944659898313        0.34657086049345
H           23.55006319205596       -4.47810498310135        0.06204572603780
H           27.51618860428469       -5.20442091401599        0.85523697073760
H           26.82131745977629       -7.58974947320777        0.88870534155413
H           27.87166792943876       -7.40734432738337       -0.52757153610829
H           25.86959418953433       -8.53468435778141       -1.20406158142273
H           24.52355000099651       -7.21588718123745       -2.52312226968582
H           24.69408994329923       -4.73456316767501       -2.36279362311472
H           28.66213250841048       -4.24264842987549       -1.33655453089045
H           30.53392442456921       -2.31302105477713       -1.12345680619522
C           20.03647156798929       -0.01509008194846        0.02665313176461
C           21.25390419132314        0.00901940115236        0.02926819824816

          :  Hamiltonian                  GFN1-xTB          :
         :: total energy            -197.894512877955 Eh    ::
         :: gradient norm              0.000276962289 Eh/a0 ::
         :: HOMO-LUMO gap              0.069019362161 eV    ::
         :: SCC energy              -200.881127226522 Eh    ::
         :: repulsion energy           3.092994197906 Eh    ::

    * Orbital Energies and Occupations

         #    Occupation            Energy/Eh            Energy/eV
      -------------------------------------------------------------
         1        2.0000           -0.7857713             -21.3819
       ...           ...                  ...                  ...
       171        2.0000           -0.3833940             -10.4327
       172        2.0000           -0.3833893             -10.4326
       173        1.9995           -0.3752634             -10.2114
       174        1.9936           -0.3729316             -10.1480
       175        1.9933           -0.3728837             -10.1467
       176        1.9894           -0.3724481             -10.1348
       177        1.9893           -0.3724316             -10.1344
       178        1.9729           -0.3715438             -10.1102
       179        1.9661           -0.3713280             -10.1044
       180        1.9660           -0.3713269             -10.1043
       181        1.9619           -0.3712160             -10.1013
       182        1.9618           -0.3712125             -10.1012
       183        1.5084           -0.3685366             -10.0284 (HOMO)
       184        0.3506           -0.3660002              -9.9594 (LUMO)
       185        0.3473           -0.3659895              -9.9591
       186                         -0.3249994              -8.8437
       187                         -0.3146436              -8.5619
       188                         -0.3146344              -8.5616
       189                         -0.3079167              -8.3788
       190                         -0.2858091              -7.7773
       191                         -0.2835849              -7.7167
       192                         -0.2835695              -7.7163
       193                         -0.2788387              -7.5876
       194                         -0.2672361              -7.2719
       ...                                ...                  ...
       398                          1.3511971              36.7679
      -------------------------------------------------------------
                  HL-Gap            0.0025364 Eh            0.0690 eV

Wiberg/Mayer (AO) data.
largest (>0.10) Wiberg bond orders for each atom

     #   Z sym  total        # sym  WBO       # sym  WBO       # sym  WBO
 ---------------------------------------------------------------------------
     1  26 Fe   3.115 --     7 N    0.662    37 N    0.662    25 N    0.658
                            18 N    0.658
     2   6 C    3.921 --    36 C    1.363     3 C    1.362    38 H    0.971
     3   6 C    3.928 --     2 C    1.362     7 N    1.210     4 C    1.174
     4   6 C    3.959 --     5 C    1.647     3 C    1.174    39 H    0.975
     5   6 C    3.963 --     4 C    1.647     6 C    1.175    40 H    0.973
     6   6 C    3.924 --     8 C    1.316     7 N    1.222     5 C    1.175
     7   7 N    3.373 --     6 C    1.222     3 C    1.210     1 Fe   0.662
     8   6 C    3.926 --    15 C    1.324     6 C    1.316     9 C    1.032
     9   6 C    3.983 --    10 C    1.748    14 C    1.105     8 C    1.032
    10   6 C    3.942 --     9 C    1.748    11 C    1.015    41 H    0.971
    11   6 C    3.957 --    10 C    1.015    42 H    0.973    43 H    0.964
                            12 N    0.948
    12   7 N    3.243 --    13 C    1.171    11 C    0.948    44 H    0.926
                            14 C    0.121
    13   6 C    3.948 --    14 C    1.676    12 N    1.171    45 H    0.970
    14   6 C    3.946 --    13 C    1.676     9 C    1.105    46 H    0.973
                            12 N    0.121
    15   6 C    3.918 --     8 C    1.324    18 N    1.207    16 C    1.182
    16   6 C    3.958 --    17 C    1.635    15 C    1.182    47 H    0.972
    17   6 C    3.962 --    16 C    1.635    19 C    1.190    48 H    0.970
    18   7 N    3.378 --    19 C    1.237    15 C    1.207     1 Fe   0.658
    19   6 C    3.909 --    20 C    1.261    18 N    1.237    17 C    1.190
    20   6 C    3.926 --    19 C    1.261    21 C    1.259   117 C    1.184
    21   6 C    3.909 --    20 C    1.259    25 N    1.239    22 C    1.190
    22   6 C    3.962 --    23 C    1.635    21 C    1.190    49 H    0.970
    23   6 C    3.958 --    22 C    1.635    24 C    1.182    50 H    0.972
    24   6 C    3.918 --    26 C    1.326    25 N    1.205    23 C    1.182
    25   7 N    3.378 --    21 C    1.239    24 C    1.205     1 Fe   0.658
    26   6 C    3.926 --    24 C    1.326    33 C    1.315    27 C    1.031
    27   6 C    3.983 --    28 C    1.749    32 C    1.105    26 C    1.031
    28   6 C    3.943 --    27 C    1.749    29 C    1.015    51 H    0.971
    29   6 C    3.957 --    28 C    1.015    52 H    0.973    53 H    0.964
                            30 N    0.947
    30   7 N    3.243 --    31 C    1.171    29 C    0.947    54 H    0.926
                            32 C    0.121
    31   6 C    3.948 --    32 C    1.675    30 N    1.171    55 H    0.970
    32   6 C    3.946 --    31 C    1.675    27 C    1.105    56 H    0.973
                            30 N    0.121
    33   6 C    3.924 --    26 C    1.315    37 N    1.223    34 C    1.175
    34   6 C    3.963 --    35 C    1.648    33 C    1.175    57 H    0.974
    35   6 C    3.959 --    34 C    1.648    36 C    1.174    58 H    0.975
    36   6 C    3.928 --     2 C    1.363    37 N    1.209    35 C    1.174
    37   7 N    3.373 --    33 C    1.223    36 C    1.209     1 Fe   0.662
    38   1 H    1.001 --     2 C    0.971
    39   1 H    0.998 --     4 C    0.975
    40   1 H    1.006 --     5 C    0.973
    41   1 H    1.004 --    10 C    0.971
    42   1 H    1.015 --    11 C    0.973
    43   1 H    1.002 --    11 C    0.964
    44   1 H    0.961 --    12 N    0.926
    45   1 H    1.001 --    13 C    0.970
    46   1 H    1.003 --    14 C    0.973
    47   1 H    1.005 --    16 C    0.972
    48   1 H    1.005 --    17 C    0.970
    49   1 H    1.005 --    22 C    0.970
    50   1 H    1.005 --    23 C    0.972
    51   1 H    1.004 --    28 C    0.971
    52   1 H    1.015 --    29 C    0.973
    53   1 H    1.002 --    29 C    0.964
    54   1 H    0.961 --    30 N    0.926
    55   1 H    1.001 --    31 C    0.970
    56   1 H    1.003 --    32 C    0.973
    57   1 H    1.006 --    34 C    0.974
    58   1 H    0.998 --    35 C    0.975
    59  26 Fe   3.115 --    65 N    0.662    95 N    0.662    83 N    0.658
                            76 N    0.658
    60   6 C    3.921 --    94 C    1.363    61 C    1.362    96 H    0.971
    61   6 C    3.928 --    60 C    1.362    65 N    1.210    62 C    1.174
    62   6 C    3.959 --    63 C    1.647    61 C    1.174    97 H    0.975
    63   6 C    3.963 --    62 C    1.647    64 C    1.175    98 H    0.973
    64   6 C    3.924 --    66 C    1.316    65 N    1.222    63 C    1.175
    65   7 N    3.373 --    64 C    1.222    61 C    1.210    59 Fe   0.662
    66   6 C    3.926 --    73 C    1.324    64 C    1.316    67 C    1.032
    67   6 C    3.983 --    68 C    1.748    72 C    1.105    66 C    1.032
    68   6 C    3.942 --    67 C    1.748    69 C    1.015    99 H    0.971
    69   6 C    3.957 --    68 C    1.015   100 H    0.973   101 H    0.964
                            70 N    0.948
    70   7 N    3.243 --    71 C    1.171    69 C    0.948   102 H    0.926
                            72 C    0.121
    71   6 C    3.948 --    72 C    1.676    70 N    1.171   103 H    0.970
    72   6 C    3.946 --    71 C    1.676    67 C    1.105   104 H    0.973
                            70 N    0.121
    73   6 C    3.918 --    66 C    1.324    76 N    1.207    74 C    1.182
    74   6 C    3.958 --    75 C    1.635    73 C    1.182   105 H    0.972
    75   6 C    3.962 --    74 C    1.635    77 C    1.190   106 H    0.970
    76   7 N    3.378 --    77 C    1.237    73 C    1.207    59 Fe   0.658
    77   6 C    3.909 --    78 C    1.261    76 N    1.237    75 C    1.190
    78   6 C    3.926 --    77 C    1.261    79 C    1.259   118 C    1.184
    79   6 C    3.909 --    78 C    1.259    83 N    1.239    80 C    1.190
    80   6 C    3.962 --    81 C    1.635    79 C    1.190   107 H    0.970
    81   6 C    3.958 --    80 C    1.635    82 C    1.182   108 H    0.972
    82   6 C    3.918 --    84 C    1.326    83 N    1.205    81 C    1.182
    83   7 N    3.378 --    79 C    1.239    82 C    1.205    59 Fe   0.658
    84   6 C    3.926 --    82 C    1.326    91 C    1.315    85 C    1.031
    85   6 C    3.983 --    86 C    1.749    90 C    1.105    84 C    1.031
    86   6 C    3.943 --    85 C    1.749    87 C    1.015   109 H    0.971
    87   6 C    3.957 --    86 C    1.015   110 H    0.973   111 H    0.964
                            88 N    0.947
    88   7 N    3.243 --    89 C    1.171    87 C    0.947   112 H    0.926
                            90 C    0.121
    89   6 C    3.948 --    90 C    1.675    88 N    1.171   113 H    0.970
    90   6 C    3.946 --    89 C    1.675    85 C    1.105   114 H    0.973
                            88 N    0.121
    91   6 C    3.924 --    84 C    1.315    95 N    1.223    92 C    1.175
    92   6 C    3.963 --    93 C    1.648    91 C    1.175   115 H    0.974
    93   6 C    3.959 --    92 C    1.648    94 C    1.174   116 H    0.975
    94   6 C    3.928 --    60 C    1.363    95 N    1.209    93 C    1.174
    95   7 N    3.373 --    91 C    1.223    94 C    1.209    59 Fe   0.662
    96   1 H    1.001 --    60 C    0.971
    97   1 H    0.998 --    62 C    0.975
    98   1 H    1.006 --    63 C    0.973
    99   1 H    1.004 --    68 C    0.971
   100   1 H    1.015 --    69 C    0.973
   101   1 H    1.002 --    69 C    0.964
   102   1 H    0.961 --    70 N    0.926
   103   1 H    1.001 --    71 C    0.970
   104   1 H    1.003 --    72 C    0.973
   105   1 H    1.005 --    74 C    0.972
   106   1 H    1.005 --    75 C    0.970
   107   1 H    1.005 --    80 C    0.970
   108   1 H    1.005 --    81 C    0.972
   109   1 H    1.004 --    86 C    0.971
   110   1 H    1.015 --    87 C    0.973
   111   1 H    1.002 --    87 C    0.964
   112   1 H    0.961 --    88 N    0.926
   113   1 H    1.001 --    89 C    0.970
   114   1 H    1.003 --    90 C    0.973
   115   1 H    1.006 --    92 C    0.974
   116   1 H    0.998 --    93 C    0.975
   117   6 C    3.927 --   118 C    2.566    20 C    1.184
   118   6 C    3.927 --   117 C    2.566    78 C    1.184
 ---------------------------------------------------------------------------

           -------------------------------------------------
          | TOTAL ENERGY             -197.894512877955 Eh   |
          | GRADIENT NORM               0.000276962289 Eh/α |
          | HOMO-LUMO GAP               0.069019362161 eV   |
           -------------------------------------------------

 * finished run on 2022/07/29 at 18:05:26.524
