   * xtb version 6.5.1 (b24c23e) compiled by 'conda@728c89f4b128' on 2022-07-12
          program call               : xtb Zn_Py_C2_2.xyz --gfn 1 --opt -T 48

   ID    Z sym.   atoms
    1   30 Zn     1, 55
    2    6 C      2-6, 8-11, 13-17, 19-24, 26-29, 31-36, 56-60, 62-65, 67-71,
                  73-78, 80-83, 85-90, 109, 110
    3    7 N      7, 12, 18, 25, 30, 37, 61, 66, 72, 79, 84, 91
    4    1 H      38-54, 92-108
########################################################################
[WARNING] Please study the warnings concerning your input carefully
-1- prog_main_parseArguments: Unknown option '-T' provided
########################################################################

          :  Hamiltonian                  GFN1-xTB          :
 * total energy  :  -188.4243666 Eh     change       -0.8654411E-10 Eh
 * total energy  :  -188.9205094 Eh     change       -0.4961428E+00 Eh
 * total energy  :  -189.0465398 Eh     change       -0.1260304E+00 Eh
 * total energy  :  -189.0975734 Eh     change       -0.5103357E-01 Eh
 * total energy  :  -189.1228783 Eh     change       -0.2530493E-01 Eh
 * total energy  :  -189.1359744 Eh     change       -0.1309609E-01 Eh
 * total energy  :  -189.1453334 Eh     change       -0.9359015E-02 Eh
 * total energy  :  -189.1520613 Eh     change       -0.6727939E-02 Eh
 * total energy  :  -189.1568777 Eh     change       -0.4816328E-02 Eh
 * total energy  :  -189.1602336 Eh     change       -0.3355970E-02 Eh
 * total energy  :  -189.1708818 Eh     change       -0.1883914E-04 Eh
 * total energy  :  -189.1708963 Eh     change       -0.1451091E-04 Eh
 * total energy  :  -189.1709122 Eh     change       -0.1588646E-04 Eh
 * total energy  :  -189.1709308 Eh     change       -0.1858723E-04 Eh
 * total energy  :  -189.1709454 Eh     change       -0.1455491E-04 Eh
 * total energy  :  -189.1709549 Eh     change       -0.9504357E-05 Eh
 * total energy  :  -189.1709623 Eh     change       -0.7442886E-05 Eh
 * total energy  :  -189.1709683 Eh     change       -0.5970277E-05 Eh
 * total energy  :  -189.1709727 Eh     change       -0.4399960E-05 Eh
   *** GEOMETRY OPTIMIZATION CONVERGED AFTER 64 ITERATIONS ***

 final structure:
================
110
 xtb: 6.5.1 (b24c23e)
Zn          13.62823760416705       -0.04702973863740       -0.00172931946700
C           10.21384377562911       -0.07294329733078        0.02576729268095
C           10.84452016587929       -1.30268153598125        0.17036502317694
C           10.17242914481838       -2.55572464332601        0.37338956378751
C           11.13162605162911       -3.50987356598607        0.46889534130002
C           12.40221122935415       -2.85207154996806        0.31218453318185
N           12.19314906280193       -1.51424238999290        0.14720417084839
C           13.65372219289421       -3.47880849913893        0.33295807528112
C           13.67068153163591       -4.95242089725229        0.49359658557876
C           14.30261604704518       -5.55267190226673        1.58266145981309
C           14.28707133255560       -6.93350404088504        1.69824747192202
N           13.69716006777232       -7.72836730244439        0.81104590265905
C           13.09586445654304       -7.16528618764261       -0.23221575958272
C           13.05424913974734       -5.79447011746739       -0.43166631143636
C           14.89202942528978       -2.83625824325740        0.21649017333156
C           16.16281064892068       -3.50153227234868        0.14746579357890
C           17.11127588982734       -2.53722116633769        0.03679016457916
N           15.09284375523805       -1.48460494292244        0.12858638404060
C           16.43510195610478       -1.27423921151231        0.03760173733217
C           17.07452784247389       -0.01907483965112       -0.03269041703409
C           16.41593489871602        1.22653879407631       -0.09388064063950
C           17.07521267951875        2.49589080889037       -0.17546242868582
C           16.11028086883271        3.44547262117556       -0.26814105817616
C           14.84553577823283        2.76624124553397       -0.22721410965015
N           15.06826406130526        1.41911445056715       -0.12049798122353
C           13.59481900875517        3.38648735290532       -0.32399094634780
C           13.57954225441986        4.86280854157839       -0.46948597880636
C           13.06274342279147        5.46892898827207       -1.61422947922847
C           13.07081937709208        6.85138214944143       -1.71047810458203
N           13.54740381887996        7.64151323175437       -0.75360108696952
C           14.03864370382747        7.07224954895487        0.34246695125859
C           14.07806622247097        5.69933344295914        0.52847227719188
C           12.35445128654887        2.73883019992015       -0.29591330984983
C           11.07076914213097        3.38782518607765       -0.34654055654782
C           10.12780814589292        2.41798886022307       -0.24816056645202
C           10.82269609206279        1.16652449591673       -0.12892876135908
N           12.16840431687730        1.39426143540475       -0.16199461743444
H            9.12849428965092       -0.07989313238812        0.04797784224520
H            9.10254376274927       -2.67651540927284        0.44069885671760
H           10.99568918125087       -4.56535833784978        0.64221454152408
H           14.78586896337044       -4.94438951039882        2.33809032636497
H           14.76878815837791       -7.42200944209165        2.54040370203146
H           12.62586166078726       -7.84033127666216       -0.94151574562155
H           12.56317689354980       -5.38223899926705       -1.30516140577864
H           16.30851270861935       -4.56958193982305        0.16191799773322
H           18.17656206772928       -2.66747111792405       -0.05431716044917
H           18.14253135645436        2.63992925598698       -0.16329403990769
H           16.24346725769157        4.51087370294008       -0.36449883092496
H           12.67386777079063        4.86457046345481       -2.42521952122174
H           12.67793984921730        7.34521648952122       -2.59451169801459
H           14.41779781936037        7.74359537946045        1.10756727393084
H           14.47704347683869        5.28111231606215        1.44497662616674
H           10.91615102492664        4.45145327047501       -0.43269637797069
H            9.05473283386745        2.52875337875509       -0.24764004714861
Zn          24.56204812296835        0.04449965196673       -0.01532183301041
C           27.97643839119841        0.07730239265727        0.00344802776272
C           27.34574606956453        1.29601411354272       -0.21538194799011
C           28.01781250939950        2.55402283696771       -0.38502940340648
C           27.05860670611104        3.49472517096264       -0.57100079619139
C           25.78804219431946        2.81971667143761       -0.53004832847122
N           25.99711966302487        1.49167963998183       -0.29915362713725
C           24.53653960633708        3.42538847047923       -0.69259797786980
C           24.51960531700730        4.88201866043017       -0.96746870176501
C           23.88732693473607        5.77307567620177       -0.10032272692367
C           23.90289439466377        7.12781964782102       -0.39140635308707
N           24.49315040696494        7.63026753488903       -1.47125422741754
C           25.09479267576281        6.78809756053470       -2.30539283959570
C           25.13640772379333        5.41854724140361       -2.09744552875538
C           23.29824120623863        2.77668972201863       -0.61742549491861
C           22.02747014042952        3.39310107407384       -0.87707065134889
C           21.07901423749688        2.43824949878120       -0.70265170402178
N           23.09743330400740        1.45787207901683       -0.30852552845637
C           21.75518460895018        1.23010111210054       -0.33453959626751
C           21.11576345750128        0.00872713237882       -0.03682663856901
C           21.77436606152555       -1.20085535609412        0.26681004328008
C           21.11510520863936       -2.43907383535517        0.55792373950359
C           22.08004731509514       -3.37458064466365        0.74528513339291
C           23.34478209026803       -2.71281519448774        0.58678277587881
N           23.12203794802494       -1.39286153525053        0.29721135648206
C           24.59549414534680       -3.33443896413777        0.67431836268554
C           24.61076163533048       -4.78926545515086        0.96446235808661
C           25.12720543151330       -5.70219257641039        0.04536743202896
C           25.11915291501089       -7.05286162144435        0.35543315728043
N           24.64292092093861       -7.53045434824359        1.50092497441440
C           24.15201845133409       -6.66694650763158        2.38416113177156
C           24.11259379480476       -5.29929298124067        2.16276226737874
C           25.83585348733337       -2.70663333875127        0.51269616564768
C           27.11954177999625       -3.34237174732487        0.65261080875270
C           28.06249538911147       -2.38580606429883        0.46484231042724
C           27.36759784642861       -1.15366615521078        0.21544678349571
N           26.02189090323548       -1.38116544913754        0.25012911432871
H           29.06178729884006        0.09041877027113        0.02269392090300
H           29.08768711805541        2.68920326462200       -0.35553755970490
H           27.19452173191119        4.55504579971982       -0.71175857992884
H           23.40379123029313        5.41082597055398        0.79922184452983
H           23.42090066732784        7.84014854310804        0.27205696576297
H           25.56508138942329        7.22764871780474       -3.18021691452771
H           25.62776193537900        4.77007582200633       -2.81308114235656
H           21.88176345030686        4.41919193015097       -1.17384324242288
H           20.01373943016440        2.53634509017120       -0.82781843518077
H           20.04779044214629       -2.57333729976848        0.61156118023452
H           21.94688007054776       -4.42196112803464        0.96291933195526
H           25.51579919260197       -5.35990600091380       -0.90647954204878
H           25.51174669617449       -7.78252114880061       -0.34686642326153
H           23.77312938252896       -7.08667382499110        3.31158332162885
H           23.71388130441380       -4.63252969622569        2.91809449146929
H           27.27417020887569       -4.38516101785306        0.87913998117189
H           29.13557326974683       -2.49166746757828        0.49734874206376
C           18.48601485721891       -0.00927891124454       -0.04621576285663
C           19.70427685570602       -0.00458362599963       -0.04691402258697

          :  Hamiltonian                  GFN1-xTB          :
         :: total energy            -189.170972677485 Eh    ::
         :: gradient norm              0.000434986659 Eh/a0 ::
         :: HOMO-LUMO gap              1.095224778409 eV    ::
         :: SCC energy              -192.104316413204 Eh    ::
         :: repulsion energy           3.034980599056 Eh    ::

    * Orbital Energies and Occupations

         #    Occupation            Energy/Eh            Energy/eV
      -------------------------------------------------------------
         1        2.0000           -0.7636493             -20.7800
       ...           ...                  ...                  ...
       161        2.0000           -0.4249397             -11.5632
       162        2.0000           -0.4249297             -11.5629
       163        2.0000           -0.4245806             -11.5534
       164        2.0000           -0.4245686             -11.5531
       165        2.0000           -0.4235263             -11.5247
       166        2.0000           -0.4179925             -11.3742
       167        2.0000           -0.4179878             -11.3740
       168        2.0000           -0.4178578             -11.3705
       169        2.0000           -0.4178502             -11.3703
       170        2.0000           -0.3973704             -10.8130
       171        2.0000           -0.3973608             -10.8127
       172        2.0000           -0.3953256             -10.7574
       173        2.0000           -0.3805086             -10.3542 (HOMO)
       174                         -0.3402598              -9.2589 (LUMO)
       175                         -0.3312124              -9.0127
       176                         -0.3312071              -9.0126
       177                         -0.3231564              -8.7935
       178                         -0.3003868              -8.1739
       179                         -0.2926922              -7.9646
       180                         -0.2789309              -7.5901
       181                         -0.2789149              -7.5897
       182                         -0.2768925              -7.5346
       183                         -0.2749767              -7.4825
       184                         -0.2685075              -7.3065
       ...                                ...                  ...
       372                          1.3288792              36.1606
      -------------------------------------------------------------
                  HL-Gap            0.0402488 Eh            1.0952 eV

Wiberg/Mayer (AO) data.
largest (>0.10) Wiberg bond orders for each atom

     #   Z sym  total        # sym  WBO       # sym  WBO       # sym  WBO
 ---------------------------------------------------------------------------
     1  30 Zn   1.996 --    37 N    0.459     7 N    0.459    18 N    0.457
                            25 N    0.456
     2   6 C    3.928 --    36 C    1.358     3 C    1.357    38 H    0.971
     3   6 C    3.921 --     2 C    1.357     7 N    1.233     4 C    1.170
     4   6 C    3.960 --     5 C    1.660     3 C    1.170    39 H    0.976
     5   6 C    3.963 --     4 C    1.660     6 C    1.171    40 H    0.973
     6   6 C    3.919 --     8 C    1.314     7 N    1.244     5 C    1.171
     7   7 N    3.293 --     6 C    1.244     3 C    1.233     1 Zn   0.459
     8   6 C    3.933 --    15 C    1.319     6 C    1.314     9 C    1.031
     9   6 C    3.985 --    14 C    1.391    10 C    1.391     8 C    1.031
                            12 N    0.106
    10   6 C    3.986 --    11 C    1.443     9 C    1.391    41 H    0.973
                            13 C    0.108
    11   6 C    3.972 --    10 C    1.443    12 N    1.415    42 H    0.972
                            14 C    0.108
    12   7 N    3.028 --    13 C    1.415    11 C    1.415     9 C    0.106
    13   6 C    3.972 --    14 C    1.443    12 N    1.415    43 H    0.972
                            10 C    0.108
    14   6 C    3.986 --    13 C    1.443     9 C    1.391    44 H    0.973
                            11 C    0.108
    15   6 C    3.914 --     8 C    1.319    18 N    1.228    16 C    1.180
    16   6 C    3.959 --    17 C    1.644    15 C    1.180    45 H    0.973
    17   6 C    3.962 --    16 C    1.644    19 C    1.188    46 H    0.966
    18   7 N    3.296 --    19 C    1.259    15 C    1.228     1 Zn   0.457
    19   6 C    3.906 --    18 N    1.259    20 C    1.258    17 C    1.188
    20   6 C    3.940 --    21 C    1.258    19 C    1.258   109 C    1.180
    21   6 C    3.906 --    25 N    1.260    20 C    1.258    22 C    1.187
    22   6 C    3.962 --    23 C    1.645    21 C    1.187    47 H    0.966
    23   6 C    3.959 --    22 C    1.645    24 C    1.179    48 H    0.973
    24   6 C    3.914 --    26 C    1.321    25 N    1.227    23 C    1.179
    25   7 N    3.296 --    21 C    1.260    24 C    1.227     1 Zn   0.456
    26   6 C    3.933 --    24 C    1.321    33 C    1.315    27 C    1.027
    27   6 C    3.985 --    32 C    1.393    28 C    1.392    26 C    1.027
                            30 N    0.107
    28   6 C    3.987 --    29 C    1.443    27 C    1.392    49 H    0.973
                            31 C    0.108
    29   6 C    3.972 --    28 C    1.443    30 N    1.415    50 H    0.972
                            32 C    0.108
    30   7 N    3.029 --    31 C    1.415    29 C    1.415    27 C    0.107
    31   6 C    3.972 --    32 C    1.442    30 N    1.415    51 H    0.972
                            28 C    0.108
    32   6 C    3.987 --    31 C    1.442    27 C    1.393    52 H    0.973
                            29 C    0.108
    33   6 C    3.919 --    26 C    1.315    37 N    1.244    34 C    1.171
    34   6 C    3.963 --    35 C    1.660    33 C    1.171    53 H    0.973
    35   6 C    3.960 --    34 C    1.660    36 C    1.170    54 H    0.976
    36   6 C    3.921 --     2 C    1.358    37 N    1.233    35 C    1.170
    37   7 N    3.293 --    33 C    1.244    36 C    1.233     1 Zn   0.459
    38   1 H    1.001 --     2 C    0.971
    39   1 H    0.998 --     4 C    0.976
    40   1 H    1.005 --     5 C    0.973
    41   1 H    1.004 --    10 C    0.973
    42   1 H    1.013 --    11 C    0.972
    43   1 H    1.013 --    13 C    0.972
    44   1 H    1.004 --    14 C    0.973
    45   1 H    1.004 --    16 C    0.973
    46   1 H    1.007 --    17 C    0.966
    47   1 H    1.007 --    22 C    0.966
    48   1 H    1.005 --    23 C    0.973
    49   1 H    1.004 --    28 C    0.973
    50   1 H    1.013 --    29 C    0.972
    51   1 H    1.013 --    31 C    0.972
    52   1 H    1.004 --    32 C    0.973
    53   1 H    1.005 --    34 C    0.973
    54   1 H    0.998 --    35 C    0.976
    55  30 Zn   1.996 --    91 N    0.459    61 N    0.459    72 N    0.457
                            79 N    0.456
    56   6 C    3.928 --    90 C    1.358    57 C    1.357    92 H    0.971
    57   6 C    3.921 --    56 C    1.357    61 N    1.233    58 C    1.170
    58   6 C    3.960 --    59 C    1.660    57 C    1.170    93 H    0.976
    59   6 C    3.963 --    58 C    1.660    60 C    1.171    94 H    0.973
    60   6 C    3.919 --    62 C    1.314    61 N    1.244    59 C    1.171
    61   7 N    3.293 --    60 C    1.244    57 C    1.233    55 Zn   0.459
    62   6 C    3.933 --    69 C    1.319    60 C    1.314    63 C    1.031
    63   6 C    3.985 --    68 C    1.391    64 C    1.391    62 C    1.031
                            66 N    0.106
    64   6 C    3.986 --    65 C    1.443    63 C    1.391    95 H    0.973
                            67 C    0.108
    65   6 C    3.972 --    64 C    1.443    66 N    1.415    96 H    0.972
                            68 C    0.108
    66   7 N    3.028 --    67 C    1.415    65 C    1.415    63 C    0.106
    67   6 C    3.972 --    68 C    1.443    66 N    1.415    97 H    0.972
                            64 C    0.108
    68   6 C    3.986 --    67 C    1.443    63 C    1.391    98 H    0.973
                            65 C    0.108
    69   6 C    3.914 --    62 C    1.319    72 N    1.228    70 C    1.180
    70   6 C    3.959 --    71 C    1.644    69 C    1.180    99 H    0.973
    71   6 C    3.962 --    70 C    1.644    73 C    1.188   100 H    0.966
    72   7 N    3.296 --    73 C    1.259    69 C    1.228    55 Zn   0.457
    73   6 C    3.906 --    72 N    1.259    74 C    1.258    71 C    1.188
    74   6 C    3.940 --    75 C    1.258    73 C    1.258   110 C    1.180
    75   6 C    3.906 --    79 N    1.260    74 C    1.258    76 C    1.187
    76   6 C    3.962 --    77 C    1.645    75 C    1.187   101 H    0.966
    77   6 C    3.959 --    76 C    1.645    78 C    1.179   102 H    0.973
    78   6 C    3.914 --    80 C    1.321    79 N    1.227    77 C    1.179
    79   7 N    3.296 --    75 C    1.260    78 C    1.227    55 Zn   0.456
    80   6 C    3.933 --    78 C    1.321    87 C    1.315    81 C    1.027
    81   6 C    3.985 --    86 C    1.393    82 C    1.392    80 C    1.027
                            84 N    0.107
    82   6 C    3.987 --    83 C    1.443    81 C    1.392   103 H    0.973
                            85 C    0.108
    83   6 C    3.972 --    82 C    1.443    84 N    1.415   104 H    0.972
                            86 C    0.108
    84   7 N    3.029 --    85 C    1.415    83 C    1.415    81 C    0.107
    85   6 C    3.972 --    86 C    1.442    84 N    1.415   105 H    0.972
                            82 C    0.108
    86   6 C    3.987 --    85 C    1.442    81 C    1.393   106 H    0.973
                            83 C    0.108
    87   6 C    3.919 --    80 C    1.315    91 N    1.244    88 C    1.171
    88   6 C    3.963 --    89 C    1.660    87 C    1.171   107 H    0.973
    89   6 C    3.960 --    88 C    1.660    90 C    1.170   108 H    0.976
    90   6 C    3.921 --    56 C    1.358    91 N    1.233    89 C    1.170
    91   7 N    3.293 --    87 C    1.244    90 C    1.233    55 Zn   0.459
    92   1 H    1.001 --    56 C    0.971
    93   1 H    0.998 --    58 C    0.976
    94   1 H    1.005 --    59 C    0.973
    95   1 H    1.004 --    64 C    0.973
    96   1 H    1.013 --    65 C    0.972
    97   1 H    1.013 --    67 C    0.972
    98   1 H    1.004 --    68 C    0.973
    99   1 H    1.004 --    70 C    0.973
   100   1 H    1.007 --    71 C    0.966
   101   1 H    1.007 --    76 C    0.966
   102   1 H    1.005 --    77 C    0.973
   103   1 H    1.004 --    82 C    0.973
   104   1 H    1.013 --    83 C    0.972
   105   1 H    1.013 --    85 C    0.972
   106   1 H    1.004 --    86 C    0.973
   107   1 H    1.005 --    88 C    0.973
   108   1 H    0.998 --    89 C    0.976
   109   6 C    3.934 --   110 C    2.577    20 C    1.180
   110   6 C    3.934 --   109 C    2.577    74 C    1.180
 ---------------------------------------------------------------------------

           -------------------------------------------------
          | TOTAL ENERGY             -189.170972677485 Eh   |
          | GRADIENT NORM               0.000434986659 Eh/α |
          | HOMO-LUMO GAP               1.095224778409 eV   |
           -------------------------------------------------

 * finished run on 2022/07/30 at 07:08:14.211
