   * xtb version 6.5.1 (b24c23e) compiled by 'conda@728c89f4b128' on 2022-07-12
          program call               : xtb Ph_C8_2.xyz --gfn 1 --opt -T 48

   ID    Z sym.   atoms
    1    6 C      1-5, 7-10, 12-28, 31-36, 58-62, 64-67, 69-85, 88-93, 115-122
    2    7 N      6, 11, 29, 30, 63, 68, 86, 87
    3    1 H      37-57, 94-114
########################################################################
[WARNING] Please study the warnings concerning your input carefully
-1- prog_main_parseArguments: Unknown option '-T' provided
########################################################################

          :  Hamiltonian                  GFN1-xTB          :
 * total energy  :  -199.7439904 Eh     change        0.1395506E-10 Eh
 * total energy  :  -199.9456713 Eh     change       -0.2016809E+00 Eh
 * total energy  :  -200.0195903 Eh     change       -0.7391901E-01 Eh
 * total energy  :  -200.0446517 Eh     change       -0.2506143E-01 Eh
 * total energy  :  -200.0560531 Eh     change       -0.1140135E-01 Eh
 * total energy  :  -200.0630673 Eh     change       -0.7014259E-02 Eh
 * total energy  :  -200.0654128 Eh     change       -0.2345420E-02 Eh
 * total energy  :  -200.0685367 Eh     change       -0.3123900E-02 Eh
 * total energy  :  -200.0702942 Eh     change       -0.1757555E-02 Eh
 * total energy  :  -200.0717777 Eh     change       -0.1483437E-02 Eh
 * total energy  :  -200.0790227 Eh     change       -0.2283514E-04 Eh
 * total energy  :  -200.0790641 Eh     change       -0.4139456E-04 Eh
 * total energy  :  -200.0790859 Eh     change       -0.2185604E-04 Eh
 * total energy  :  -200.0791076 Eh     change       -0.2166964E-04 Eh
 * total energy  :  -200.0791297 Eh     change       -0.2209918E-04 Eh
 * total energy  :  -200.0791387 Eh     change       -0.9019397E-05 Eh
 * total energy  :  -200.0791458 Eh     change       -0.7087982E-05 Eh
 * total energy  :  -200.0791513 Eh     change       -0.5445825E-05 Eh
 * total energy  :  -200.0791534 Eh     change       -0.2171738E-05 Eh
   *** GEOMETRY OPTIMIZATION CONVERGED AFTER 44 ITERATIONS ***

 final structure:
================
122
 xtb: 6.5.1 (b24c23e)
C            8.07637366355834       -0.07869240139849        0.04885007891587
C            8.68680252438516       -1.16014223204097        0.67111614723701
C            8.03661992350677       -2.26728184338864        1.28496853269018
C            9.00000339184209       -3.09434785323999        1.79043740329274
C           10.26986717622042       -2.51443098722192        1.50931948685784
N           10.03016926122550       -1.35706247489172        0.82424689142514
C           11.53343084461502       -3.01633045207476        1.84154013582677
C           12.74808848554201       -2.42141947418152        1.49330061234986
C           14.04573854884067       -2.93210333454791        1.89730792015386
C           14.96626524544987       -2.10343902285081        1.36247798980156
N           12.90241308253926       -1.29118949090780        0.74899939930969
C           14.22971864557500       -1.08144501961331        0.64443291829691
C           14.86690321763218       -0.03535210650405       -0.05497486354692
C           14.22958986503523        1.02565563653963       -0.72626062216411
C           14.87113104013788        2.07114880094952       -1.44165805952241
C           13.90327277635392        2.90882795552366       -1.92286709779460
C           12.63974188177715        2.40272084687149       -1.50967698925651
C           11.37822475787651        2.93947483728758       -1.78685414999650
C           11.34650308485467        4.21267765063820       -2.54759148526172
C           10.72225920092121        4.27708069406242       -3.79419455831399
C           10.69571045657448        5.46782733712848       -4.50436676590520
C           11.28646949988025        6.60854640279451       -3.97785791209832
C           11.90741730421573        6.55329114213756       -2.73747245693517
C           11.94094141689147        5.36297767773110       -2.02666011090357
C           10.16229625039938        2.36443030343107       -1.40272344749828
C            8.85896395726162        2.95661001861478       -1.66117797127999
C            7.94494852670238        2.10615570304511       -1.15210774626199
C            8.68891479634948        1.00240915049414       -0.57123304234247
N           10.02091230553878        1.19621545775218       -0.73274926276008
N           12.88890382754312        1.25881774604524       -0.79771465970307
C           11.56578637049940       -4.27704828776817        2.62332717304324
C           10.97943930575421       -4.34111200368294        3.88814497253597
C           11.01490727861340       -5.51934641530187        4.61881425289245
C           11.63032719168321       -6.64785966276731        4.09456911504033
C           12.21262499520371       -6.59329504953273        2.83546723875683
C           12.18315843185775       -5.41580804636711        2.10373629196653
H            6.99101311854294       -0.08569994446922        0.05666352570411
H            6.96764100628366       -2.40406305615460        1.32322305599550
H            8.85042609772323       -4.02949947230975        2.30535575643874
H           10.75455822117239       -0.73619731507474        0.47926688736671
H           14.20874566659696       -3.79842825401230        2.51765086031576
H           16.04060205296123       -2.15172944989085        1.44035741203321
H           15.93791011862467        2.15966856320746       -1.56989438619501
H           14.04755944419590        3.79422647442976       -2.52028605179573
H           10.27187802341658        3.38402856034703       -4.21291703945290
H           10.21241141986429        5.50486865326751       -5.47439259103818
H           11.26292112253304        7.53920842071926       -4.53337862170393
H           12.36724422266153        7.44219006171036       -2.31990546128210
H           12.41448761245981        5.32562345828849       -1.05179952923729
H            8.69158906537315        3.90029543309849       -2.15499883236121
H            6.86974304101082        2.19428561552394       -1.14626993504591
H           12.16843153664439        0.67141451140779       -0.39092532880455
H           10.51113855545291       -3.45681460678421        4.30621785192608
H           10.56090619468549       -5.55581195522665        5.60297372911865
H           11.65633990936664       -7.56841573688006        4.66656169318590
H           12.69253885085416       -7.47265295653913        2.42036588946110
H           12.62761455991222       -5.37842840211973        1.11541300210134
C           33.40094895672473        0.07599094940510       -0.05094500895123
C           32.79021400752224        1.10170712684534       -0.76104519285671
C           33.44006660313985        2.13148044362770       -1.49766304166157
C           32.47637784119399        2.94180290534185       -2.02896177489709
C           31.20662705552625        2.43788785004574       -1.62680971244897
N           31.44673140853100        1.32335572274772       -0.87420315906089
C           29.94298630223341        2.95102128691034       -1.94089861143789
C           28.72820547991610        2.38068491200095       -1.55427505470761
C           27.43047088762136        2.96167475215220       -1.84795724468964
C           26.50984332576986        2.12447174640147       -1.32677434948572
N           28.57376939343047        1.22636239596224       -0.84794363237544
C           27.24638800080499        1.04135837939401       -0.70473809754654
C           26.60927975954267       -0.03576688449427       -0.05410254933865
C           27.24681355098082       -1.09355819014221        0.62205001898643
C           26.60539769030167       -2.18432591821121        1.26647237816637
C           27.57353684169087       -2.97663923587163        1.81868470658832
C           28.83711734968295       -2.38916386209883        1.53301647523022
C           30.09882677510164       -2.87046070757405        1.89723397411227
C           30.13078213095821       -4.10211651920527        2.72369763626342
C           30.74827844911799       -5.25890779171971        2.24589227977816
C           30.77487034373577       -6.40985136770398        3.01890715075927
C           30.19108411932145       -6.41896710878155        4.27848928545407
C           29.57704763935994       -5.27161229387255        4.76192173198308
C           29.54328867064868       -4.12029779968504        3.98951559555202
C           31.31483683646415       -2.27964109838231        1.53833111619762
C           32.61825136117723       -2.76863574520778        1.96036495102355
C           33.53240963141164       -1.94572198202081        1.40812416338370
C           32.78845315781304       -0.94725157625868        0.66062613925974
N           31.45635373070379       -1.17456241673546        0.76867552562791
N           28.58765730750849       -1.25836414434197        0.80050060952085
C           29.91086372020616        4.19675744517116       -2.74652659182437
C           30.49119149513675        5.36911776827061       -2.26032364182761
C           30.45596092619631        6.53351584301146       -3.01285485802163
C           29.84695401893165        6.54052720210027       -4.26032458043811
C           29.27083285979603        5.37732367536923       -4.75267677273175
C           29.29992770236951        4.21228903297621       -4.00122825852690
H           34.48630197701390        0.08586854992565       -0.05448756346048
H           34.50905290146415        2.22565146980643       -1.60390228509903
H           32.62554868318564        3.80817753530056       -2.65279321880416
H           30.72264692942153        0.74495137963000       -0.46144975713932
H           27.26745010355799        3.89079907117321       -2.36956188511785
H           25.43541462724529        2.21410464288590       -1.33984626584511
H           25.53850540543297       -2.33677175149801        1.29443698244061
H           27.42951309359431       -3.89311329088690        2.36730422389637
H           31.19335995570502       -5.25741655145625        1.25715026442306
H           31.25272670467867       -7.30448873090474        2.63527422769705
H           30.21469368758362       -7.31893534375533        4.88246984060748
H           29.12276489457495       -5.27215045622403        5.74658657538776
H           29.07497136501047       -3.22124098050189        4.37469589720656
H           32.78549900509032       -3.61928262027880        2.60134275500816
H           34.60771478828787       -1.97965896088440        1.48833181478165
H           29.30802717094947       -0.64137609609856        0.43995500368445
H           30.95459326007732        5.36997401505889       -1.27985376752665
H           30.90504064663375        7.44009213729863       -2.62240393700688
H           29.82112874513223        7.45128634337635       -4.84779961542233
H           28.79610132894593        5.37680206731886       -5.72762219766078
H           28.86022987814646        3.30162958856861       -4.39247175926664
C           16.27159194442944       -0.03827621185600       -0.08469212950716
C           17.49632428201461       -0.04797077149493       -0.10550123315624
C           18.83844632532796       -0.05824488537162       -0.11787221815635
C           20.06936408538440       -0.07233684084792       -0.12208263255618
C           21.40682869303419       -0.08235292878626       -0.11608522219810
C           22.63775684802053       -0.08485428446310       -0.10153668288946
C           23.97988199094037       -0.07766996271522       -0.08696457745555
C           25.20459597529020       -0.06175473303418       -0.06926548742764

          :  Hamiltonian                  GFN1-xTB          :
         :: total energy            -200.079153428379 Eh    ::
         :: gradient norm              0.000467540956 Eh/a0 ::
         :: HOMO-LUMO gap              1.014953724730 eV    ::
         :: SCC energy              -203.607765578958 Eh    ::
         :: repulsion energy           3.629560514674 Eh    ::

    * Orbital Energies and Occupations

         #    Occupation            Energy/Eh            Energy/eV
      -------------------------------------------------------------
         1        2.0000           -0.8036831             -21.8693
       ...           ...                  ...                  ...
       173        2.0000           -0.4211527             -11.4601
       174        2.0000           -0.4198301             -11.4242
       175        2.0000           -0.4191681             -11.4061
       176        2.0000           -0.4164410             -11.3319
       177        2.0000           -0.4163790             -11.3302
       178        2.0000           -0.4148029             -11.2874
       179        2.0000           -0.4147658             -11.2864
       180        2.0000           -0.4118531             -11.2071
       181        2.0000           -0.4059482             -11.0464
       182        2.0000           -0.3985059             -10.8439
       183        2.0000           -0.3981941             -10.8354
       184        2.0000           -0.3859475             -10.5022
       185        2.0000           -0.3779698             -10.2851 (HOMO)
       186                         -0.3406709              -9.2701 (LUMO)
       187                         -0.3316158              -9.0237
       188                         -0.3305152              -8.9938
       189                         -0.3300252              -8.9804
       190                         -0.3029082              -8.2426
       191                         -0.2988462              -8.1320
       192                         -0.2947061              -8.0194
       193                         -0.2752343              -7.4895
       194                         -0.2650741              -7.2130
       195                         -0.2650720              -7.2130
       196                         -0.2650301              -7.2118
       ...                                ...                  ...
       404                          1.6067456              43.7218
      -------------------------------------------------------------
                  HL-Gap            0.0372989 Eh            1.0150 eV

Wiberg/Mayer (AO) data.
largest (>0.10) Wiberg bond orders for each atom

     #   Z sym  total        # sym  WBO       # sym  WBO       # sym  WBO
 ---------------------------------------------------------------------------
     1   6 C    3.924 --    28 C    1.366     2 C    1.346    37 H    0.971
     2   6 C    3.903 --     1 C    1.346     3 C    1.230     6 N    1.170
     3   6 C    3.953 --     4 C    1.594     2 C    1.230    38 H    0.977
     4   6 C    3.959 --     3 C    1.594     5 C    1.235    39 H    0.974
     5   6 C    3.896 --     7 C    1.302     4 C    1.235     6 N    1.177
     6   7 N    3.470 --     5 C    1.177     2 C    1.170    40 H    0.873
     7   6 C    3.940 --     8 C    1.337     5 C    1.302    31 C    1.029
     8   6 C    3.915 --     7 C    1.337    11 N    1.284     9 C    1.125
     9   6 C    3.966 --    10 C    1.710     8 C    1.125    41 H    0.973
    10   6 C    3.964 --     9 C    1.710    12 C    1.128    42 H    0.974
    11   7 N    3.022 --    12 C    1.346     8 C    1.284
    12   6 C    3.908 --    11 N    1.346    13 C    1.251    10 C    1.128
    13   6 C    3.937 --    12 C    1.251    14 C    1.251   115 C    1.194
    14   6 C    3.885 --    13 C    1.251    15 C    1.249    30 N    1.190
    15   6 C    3.959 --    16 C    1.583    14 C    1.249    43 H    0.975
    16   6 C    3.955 --    15 C    1.583    17 C    1.241    44 H    0.974
    17   6 C    3.899 --    18 C    1.310    16 C    1.241    30 N    1.164
    18   6 C    3.925 --    25 C    1.321    17 C    1.310    19 C    1.029
    19   6 C    3.988 --    24 C    1.395    20 C    1.394    18 C    1.029
                            22 C    0.108
    20   6 C    3.987 --    21 C    1.448    19 C    1.394    45 H    0.973
                            23 C    0.109
    21   6 C    3.995 --    20 C    1.448    22 C    1.437    46 H    0.973
                            24 C    0.109
    22   6 C    3.989 --    23 C    1.438    21 C    1.437    47 H    0.974
                            19 C    0.108
    23   6 C    3.995 --    24 C    1.447    22 C    1.438    48 H    0.973
                            20 C    0.109
    24   6 C    3.987 --    23 C    1.447    19 C    1.395    49 H    0.973
                            21 C    0.109
    25   6 C    3.929 --    18 C    1.321    29 N    1.317    26 C    1.118
    26   6 C    3.967 --    27 C    1.722    25 C    1.118    50 H    0.974
    27   6 C    3.966 --    26 C    1.722    28 C    1.117    51 H    0.976
    28   6 C    3.930 --     1 C    1.366    29 N    1.300    27 C    1.117
    29   7 N    3.012 --    25 C    1.317    28 C    1.300
    30   7 N    3.474 --    14 C    1.190    17 C    1.164    52 H    0.873
    31   6 C    3.989 --    32 C    1.395    36 C    1.394     7 C    1.029
                            34 C    0.108
    32   6 C    3.987 --    33 C    1.447    31 C    1.395    53 H    0.973
                            35 C    0.109
    33   6 C    3.995 --    32 C    1.447    34 C    1.438    54 H    0.973
                            36 C    0.109
    34   6 C    3.989 --    33 C    1.438    35 C    1.437    55 H    0.974
                            31 C    0.108
    35   6 C    3.995 --    36 C    1.448    34 C    1.437    56 H    0.973
                            32 C    0.109
    36   6 C    3.988 --    35 C    1.448    31 C    1.394    57 H    0.973
                            33 C    0.109
    37   1 H    1.002 --     1 C    0.971
    38   1 H    0.998 --     3 C    0.977
    39   1 H    1.005 --     4 C    0.974
    40   1 H    0.986 --     6 N    0.873
    41   1 H    1.005 --     9 C    0.973
    42   1 H    1.003 --    10 C    0.974
    43   1 H    1.002 --    15 C    0.975
    44   1 H    1.005 --    16 C    0.974
    45   1 H    1.005 --    20 C    0.973
    46   1 H    1.003 --    21 C    0.973
    47   1 H    1.003 --    22 C    0.974
    48   1 H    1.003 --    23 C    0.973
    49   1 H    1.005 --    24 C    0.973
    50   1 H    1.005 --    26 C    0.974
    51   1 H    0.998 --    27 C    0.976
    52   1 H    0.987 --    30 N    0.873
    53   1 H    1.005 --    32 C    0.973
    54   1 H    1.003 --    33 C    0.973
    55   1 H    1.003 --    34 C    0.974
    56   1 H    1.003 --    35 C    0.973
    57   1 H    1.005 --    36 C    0.973
    58   6 C    3.924 --    85 C    1.366    59 C    1.346    94 H    0.971
    59   6 C    3.903 --    58 C    1.346    60 C    1.230    63 N    1.170
    60   6 C    3.953 --    61 C    1.594    59 C    1.230    95 H    0.977
    61   6 C    3.959 --    60 C    1.594    62 C    1.235    96 H    0.974
    62   6 C    3.896 --    64 C    1.302    61 C    1.235    63 N    1.177
    63   7 N    3.470 --    62 C    1.177    59 C    1.170    97 H    0.873
    64   6 C    3.940 --    65 C    1.337    62 C    1.302    88 C    1.028
    65   6 C    3.915 --    64 C    1.337    68 N    1.284    66 C    1.125
    66   6 C    3.966 --    67 C    1.710    65 C    1.125    98 H    0.973
    67   6 C    3.964 --    66 C    1.710    69 C    1.128    99 H    0.974
    68   7 N    3.022 --    69 C    1.346    65 C    1.284
    69   6 C    3.908 --    68 N    1.346    70 C    1.251    67 C    1.128
    70   6 C    3.937 --    69 C    1.251    71 C    1.251   122 C    1.194
    71   6 C    3.885 --    70 C    1.251    72 C    1.249    87 N    1.190
    72   6 C    3.959 --    73 C    1.583    71 C    1.249   100 H    0.975
    73   6 C    3.955 --    72 C    1.583    74 C    1.241   101 H    0.974
    74   6 C    3.898 --    75 C    1.310    73 C    1.241    87 N    1.164
    75   6 C    3.925 --    82 C    1.321    74 C    1.310    76 C    1.029
    76   6 C    3.988 --    81 C    1.395    77 C    1.394    75 C    1.029
                            79 C    0.108
    77   6 C    3.987 --    78 C    1.448    76 C    1.394   102 H    0.973
                            80 C    0.110
    78   6 C    3.995 --    77 C    1.448    79 C    1.437   103 H    0.973
                            81 C    0.109
    79   6 C    3.989 --    80 C    1.438    78 C    1.437   104 H    0.974
                            76 C    0.108
    80   6 C    3.995 --    81 C    1.447    79 C    1.438   105 H    0.973
                            77 C    0.110
    81   6 C    3.987 --    80 C    1.447    76 C    1.395   106 H    0.973
                            78 C    0.109
    82   6 C    3.929 --    75 C    1.321    86 N    1.317    83 C    1.118
    83   6 C    3.967 --    84 C    1.722    82 C    1.118   107 H    0.974
    84   6 C    3.966 --    83 C    1.722    85 C    1.117   108 H    0.976
    85   6 C    3.930 --    58 C    1.366    86 N    1.300    84 C    1.117
    86   7 N    3.012 --    82 C    1.317    85 C    1.300
    87   7 N    3.474 --    71 C    1.190    74 C    1.164   109 H    0.873
    88   6 C    3.989 --    89 C    1.395    93 C    1.394    64 C    1.028
                            91 C    0.108
    89   6 C    3.987 --    90 C    1.447    88 C    1.395   110 H    0.973
                            92 C    0.109
    90   6 C    3.995 --    89 C    1.447    91 C    1.438   111 H    0.973
                            93 C    0.110
    91   6 C    3.989 --    90 C    1.438    92 C    1.437   112 H    0.974
                            88 C    0.108
    92   6 C    3.995 --    93 C    1.448    91 C    1.437   113 H    0.973
                            89 C    0.109
    93   6 C    3.988 --    92 C    1.448    88 C    1.394   114 H    0.973
                            90 C    0.110
    94   1 H    1.002 --    58 C    0.971
    95   1 H    0.998 --    60 C    0.977
    96   1 H    1.005 --    61 C    0.974
    97   1 H    0.986 --    63 N    0.873
    98   1 H    1.005 --    66 C    0.973
    99   1 H    1.003 --    67 C    0.974
   100   1 H    1.002 --    72 C    0.975
   101   1 H    1.005 --    73 C    0.974
   102   1 H    1.005 --    77 C    0.973
   103   1 H    1.003 --    78 C    0.973
   104   1 H    1.003 --    79 C    0.974
   105   1 H    1.003 --    80 C    0.973
   106   1 H    1.005 --    81 C    0.973
   107   1 H    1.005 --    83 C    0.974
   108   1 H    0.998 --    84 C    0.976
   109   1 H    0.987 --    87 N    0.873
   110   1 H    1.005 --    89 C    0.973
   111   1 H    1.003 --    90 C    0.973
   112   1 H    1.003 --    91 C    0.974
   113   1 H    1.003 --    92 C    0.973
   114   1 H    1.005 --    93 C    0.973
   115   6 C    3.877 --   116 C    2.435    13 C    1.194   118 C    0.186
   116   6 C    3.932 --   115 C    2.435   117 C    1.347
   117   6 C    3.892 --   118 C    2.333   116 C    1.347   120 C    0.182
   118   6 C    3.924 --   117 C    2.333   119 C    1.371   115 C    0.186
   119   6 C    3.924 --   120 C    2.333   118 C    1.371   122 C    0.186
   120   6 C    3.892 --   119 C    2.333   121 C    1.347   117 C    0.182
   121   6 C    3.932 --   122 C    2.435   120 C    1.347
   122   6 C    3.877 --   121 C    2.435    70 C    1.194   119 C    0.186
 ---------------------------------------------------------------------------

           -------------------------------------------------
          | TOTAL ENERGY             -200.079153428379 Eh   |
          | GRADIENT NORM               0.000467540956 Eh/α |
          | HOMO-LUMO GAP               1.014953724730 eV   |
           -------------------------------------------------

 * finished run on 2022/07/29 at 22:54:32.807
