   * xtb version 6.5.1 (b24c23e) compiled by 'conda@728c89f4b128' on 2022-07-12
          program call               : xtb Zn_C2Py_C2_2.xyz --gfn 1 --opt -T 48

   ID    Z sym.   atoms
    1   30 Zn     1, 59
    2    6 C      2-6, 8-13, 15-19, 21-26, 28-33, 35-40, 60-64, 66-71, 73-77,
                  79-84, 86-91, 93-98, 117, 118
    3    7 N      7, 14, 20, 27, 34, 41, 65, 72, 78, 85, 92, 99
    4    1 H      42-58, 100-116
########################################################################
[WARNING] Please study the warnings concerning your input carefully
-1- prog_main_parseArguments: Unknown option '-T' provided
########################################################################

          :  Hamiltonian                  GFN1-xTB          :
 * total energy  :  -205.6687850 Eh     change       -0.1143121E-09 Eh
 * total energy  :  -205.7856870 Eh     change       -0.1169020E+00 Eh
 * total energy  :  -205.8397776 Eh     change       -0.5409055E-01 Eh
 * total energy  :  -205.8500809 Eh     change       -0.1030332E-01 Eh
 * total energy  :  -205.8545022 Eh     change       -0.4421329E-02 Eh
 * total energy  :  -205.8571618 Eh     change       -0.2659590E-02 Eh
 * total energy  :  -205.8587808 Eh     change       -0.1619034E-02 Eh
 * total energy  :  -205.8598182 Eh     change       -0.1037402E-02 Eh
 * total energy  :  -205.8605266 Eh     change       -0.7084001E-03 Eh
 * total energy  :  -205.8610780 Eh     change       -0.5513597E-03 Eh
 * total energy  :  -205.8639380 Eh     change       -0.1573726E-04 Eh
 * total energy  :  -205.8639564 Eh     change       -0.1838759E-04 Eh
 * total energy  :  -205.8639752 Eh     change       -0.1886872E-04 Eh
 * total energy  :  -205.8639945 Eh     change       -0.1926793E-04 Eh
 * total energy  :  -205.8640094 Eh     change       -0.1492403E-04 Eh
 * total energy  :  -205.8640176 Eh     change       -0.8182195E-05 Eh
 * total energy  :  -205.8640162 Eh     change        0.1440738E-05 Eh
 * total energy  :  -205.8640216 Eh     change       -0.5411669E-05 Eh
 * total energy  :  -205.8640240 Eh     change       -0.2424026E-05 Eh
   *** GEOMETRY OPTIMIZATION CONVERGED AFTER 40 ITERATIONS ***

 final structure:
================
118
 xtb: 6.5.1 (b24c23e)
Zn          17.42770616161469        0.08402403856697        0.03330271297905
C           14.00691933379030        0.12130063234542        0.06998564860822
C           14.64506321069626        0.99999637798482        0.93679586686917
C           13.98452002019424        1.90661827414432        1.83369524293032
C           14.95478567683619        2.58380211756973        2.49895017448342
C           16.21565487770962        2.09672748329866        2.01361150905242
N           15.99878242182423        1.14092848419493        1.07222289704260
C           17.47751196486725        2.54281232040406        2.44876374027166
C           17.49680694510596        3.54704477703409        3.44195123136286
C           17.50657640377359        4.41002013586966        4.29535009895794
C           17.52106870530906        5.41392893060331        5.29012318469451
C           18.72368908294812        5.96402892377210        5.75004029034714
C           18.68309845157463        6.94364695263715        6.72591979503148
N           17.54955629883796        7.39536103269350        7.25728230474995
C           16.40214008599741        6.87734138753873        6.82578579304675
C           16.33333273781092        5.89520782368553        5.85399556656508
C           18.71976671595570        2.07366860186884        1.98413481988847
C           19.99504444536144        2.53308631253298        2.45067820044276
C           20.94115757590716        1.83626140956662        1.76883812695140
N           18.90602545555701        1.11429198964872        1.03270850653025
C           20.25059116873773        0.94934906602944        0.87944532383756
C           20.87318551303094        0.04248607474196        0.00022769486003
C           20.21157574232852       -0.84753860760077       -0.86761326337250
C           20.86351437959148       -1.75070984294229       -1.76972151216055
C           19.88810552680074       -2.42492840640418       -2.43257553888415
C           18.63344127470410       -1.93527509599025       -1.94153516662183
N           18.86083401558545       -0.97980987083945       -0.99521555040586
C           17.37165740826860       -2.37784593883314       -2.37890997402903
C           17.35104198153891       -3.38833805453094       -3.36560591845387
C           17.33792525610201       -4.25989329606755       -4.21012883969664
C           17.32677362693605       -5.27535626459001       -5.19303201588090
C           18.51800124217780       -5.83326414224432       -5.67271535318435
C           18.45414647646293       -6.82697884296748       -6.63290898286228
N           17.30829230606003       -7.28546274588010       -7.13080371279454
C           16.17151782341618       -6.75987810604156       -6.68056584378479
C           16.12589384716364       -5.76336598930227       -5.72215768237052
C           16.12955023782716       -1.90311818869457       -1.91852626889012
C           14.84828798659302       -2.36392490959148       -2.37507916717039
C           13.90756456845184       -1.66460513891287       -1.69053785210806
C           14.60689867068987       -0.77109156022349       -0.80999289666187
N           15.95397754638052       -0.94109004828278       -0.97482544672487
H           12.92133820874526        0.13287426623326        0.08197827165995
H           12.91476253418198        2.00352033843178        1.93331870005291
H           14.83825991726898        3.34673768024328        3.25245916180247
H           19.66976852868543        5.62527776939167        5.34497770784139
H           19.60101190304907        7.38793917958810        7.10031767640922
H           15.49613159042239        7.26819506851267        7.28036485477482
H           15.37668714534079        5.50144090890967        5.53216492050903
H           20.14018316011169        3.28961592232629        3.20546775433810
H           22.01302426076476        1.90822410691265        1.86073828696809
H           21.93134659513520       -1.84810292512302       -1.88242518449537
H           20.00076783126119       -3.18483546158850       -3.18948744747926
H           19.47338670155881       -5.48967258528786       -5.29460237251088
H           19.36292569549734       -7.27742370793111       -7.02203256002473
H           15.25500512143851       -7.15657906604561       -7.10808062273440
H           15.17726041049154       -5.36408832268356       -5.38379443028717
H           14.69925739222477       -3.12563536787588       -3.12409209403052
H           12.83402883229871       -1.73863650893753       -1.76635268943415
Zn          28.35643729435293       -0.07140846395233       -0.05604536079100
C           31.77726028663719       -0.12175600284259       -0.06886975416830
C           31.13925767089607       -1.31656557587507       -0.37880425655768
C           31.79991111158138       -2.55145911073486       -0.69703297179439
C           30.82972994555236       -3.46992836474095       -0.93725735877940
C           29.56879834389163       -2.80350987169023       -0.76832079381703
N           29.78555331445956       -1.50514939388820       -0.43061194411789
C           28.30701079947930       -3.40594948208302       -0.92836265976447
C           28.28805244277912       -4.77390066728441       -1.27998022740598
C           28.27847614537833       -5.94958069246182       -1.58129082775798
C           28.26524087208217       -7.31920054442294       -1.92998571573374
C           27.06391931643690       -7.99548221844369       -2.17437325250059
C           27.10585807016506       -9.33650403487677       -2.51136786284415
N           28.23960676691416      -10.02571468879308       -2.61619711290893
C           29.38589352352174       -9.39018478508096       -2.38544344024064
C           29.45330051848633       -8.05146416894738       -2.04337352063544
C           27.06468537424104       -2.76648825893493       -0.76448721426757
C           25.78946718047384       -3.40264550574239       -0.91996438958894
C           24.84326451320300       -2.46003485050820       -0.67135881580169
N           26.87830617976773       -1.45778411960502       -0.42848128123423
C           25.53372413334834       -1.24175836982563       -0.36541472298137
C           24.91099100822239       -0.02214486074002       -0.03706450778533
C           25.57244626069847        1.17927321250034        0.28247977283209
C           24.92037021372143        2.41663250146326        0.59599653649706
C           25.89567885899546        3.33155737650819        0.83487174036928
C           27.15041539052529        2.65920198589496        0.66566633239070
N           26.92316581369563        1.35686807943272        0.33033717254381
C           28.41213225571325        3.26188342952929        0.82077534899141
C           28.43300020620261        4.62730857754056        1.18171012001437
C           28.44751369146803        5.79952842986518        1.49584669040763
C           28.46091029270894        7.16445202015996        1.86218706959254
C           27.27142756154424        7.86224765256694        2.10413621815597
C           27.33782828585795        9.19659132144996        2.46282628913908
N           28.48454408140573        9.85969394908253        2.59084590313796
C           29.61967370791841        9.20375238059326        2.36190829781749
C           29.66272376468331        7.86951828598411        1.99913044047380
C           29.65430578836763        2.62335791780705        0.64905604398291
C           30.93550611306335        3.25176069202981        0.81049895567980
C           31.87633176905923        2.30550726408528        0.56139258016253
C           31.17712277200065        1.09128670649402        0.24586254912088
N           29.83001909858802        1.31983733070096        0.30723555963440
H           32.86284255617522       -0.13789471936487       -0.07242813086630
H           32.86967654049502       -2.68663282018565       -0.72896814019373
H           30.94634883139190       -4.50806225531013       -1.20577298246991
H           26.11783481537917       -7.47284066976976       -2.10025989884418
H           26.18898884908211       -9.88521507906084       -2.70695047724309
H           30.29205721298526       -9.98207669659422       -2.47916054276232
H           30.40905373073181       -7.57372012208203       -1.86411500930310
H           25.64442486507460       -4.43851921237620       -1.18272753340572
H           23.77140171914264       -2.57587632320562       -0.68621611508507
H           23.85251742311934        2.56311269398620        0.62224617142077
H           25.78292334232348        4.37093673697687        1.09953714340640
H           26.31540835882437        7.36103693158710        2.01152417460544
H           26.43045020569734        9.76156660949795        2.65686424823062
H           30.53693887873268        9.77467415128533        2.47485262037275
H           30.61006494081415        7.37439197730643        1.82254814971576
H           31.08444683271216        4.28543939819468        1.08023141981664
H           32.94985718230199        2.40864282733996        0.58616913997604
C           22.28402309001615        0.02194740636677       -0.01260055349158
C           23.50015188800482       -0.00086130872950       -0.02572799013977

          :  Hamiltonian                  GFN1-xTB          :
         :: total energy            -205.864024019638 Eh    ::
         :: gradient norm              0.000446092649 Eh/a0 ::
         :: HOMO-LUMO gap              1.102533650711 eV    ::
         :: SCC energy              -209.335918712477 Eh    ::
         :: repulsion energy           3.571898234455 Eh    ::

    * Orbital Energies and Occupations

         #    Occupation            Energy/Eh            Energy/eV
      -------------------------------------------------------------
         1        2.0000           -0.7671285             -20.8746
       ...           ...                  ...                  ...
       177        2.0000           -0.4281514             -11.6506
       178        2.0000           -0.4279159             -11.6442
       179        2.0000           -0.4261349             -11.5957
       180        2.0000           -0.4233781             -11.5207
       181        2.0000           -0.4233767             -11.5207
       182        2.0000           -0.4183610             -11.3842
       183        2.0000           -0.4183602             -11.3842
       184        2.0000           -0.4183572             -11.3841
       185        2.0000           -0.4183559             -11.3840
       186        2.0000           -0.4002970             -10.8926
       187        2.0000           -0.4002948             -10.8926
       188        2.0000           -0.3936874             -10.7128
       189        2.0000           -0.3829998             -10.4220 (HOMO)
       190                         -0.3424825              -9.3194 (LUMO)
       191                         -0.3416625              -9.2971
       192                         -0.3416589              -9.2970
       193                         -0.3271164              -8.9013
       194                         -0.3131618              -8.5216
       195                         -0.3074763              -8.3669
       196                         -0.2866160              -7.7992
       197                         -0.2866102              -7.7991
       198                         -0.2812811              -7.6540
       199                         -0.2784136              -7.5760
       200                         -0.2671426              -7.2693
       ...                                ...                  ...
       404                          1.3494239              36.7197
      -------------------------------------------------------------
                  HL-Gap            0.0405174 Eh            1.1025 eV

Wiberg/Mayer (AO) data.
largest (>0.10) Wiberg bond orders for each atom

     #   Z sym  total        # sym  WBO       # sym  WBO       # sym  WBO
 ---------------------------------------------------------------------------
     1  30 Zn   1.991 --     7 N    0.457    41 N    0.457    27 N    0.454
                            20 N    0.454
     2   6 C    3.928 --     3 C    1.360    40 C    1.360    42 H    0.971
     3   6 C    3.912 --     2 C    1.360     7 N    1.223     4 C    1.173
     4   6 C    3.960 --     5 C    1.654     3 C    1.173    43 H    0.976
     5   6 C    3.962 --     4 C    1.654     6 C    1.179    44 H    0.974
     6   6 C    3.910 --     8 C    1.264     7 N    1.264     5 C    1.179
     7   7 N    3.292 --     6 C    1.264     3 C    1.223     1 Zn   0.457
     8   6 C    3.930 --    17 C    1.270     6 C    1.264     9 C    1.162
     9   6 C    3.957 --    10 C    2.622     8 C    1.162
    10   6 C    3.931 --     9 C    2.622    11 C    1.143
    11   6 C    3.987 --    16 C    1.349    12 C    1.349    10 C    1.143
    12   6 C    3.973 --    13 C    1.458    11 C    1.349    45 H    0.974
                            15 C    0.103
    13   6 C    3.973 --    12 C    1.458    14 N    1.406    46 H    0.972
                            16 C    0.103
    14   7 N    2.993 --    15 C    1.406    13 C    1.406
    15   6 C    3.973 --    16 C    1.458    14 N    1.406    47 H    0.972
                            12 C    0.103
    16   6 C    3.973 --    15 C    1.458    11 C    1.349    48 H    0.974
                            13 C    0.103
    17   6 C    3.903 --     8 C    1.270    20 N    1.246    18 C    1.187
    18   6 C    3.960 --    19 C    1.640    17 C    1.187    49 H    0.974
    19   6 C    3.962 --    18 C    1.640    21 C    1.189    50 H    0.971
    20   7 N    3.294 --    21 C    1.249    17 C    1.246     1 Zn   0.454
    21   6 C    3.899 --    22 C    1.264    20 N    1.249    19 C    1.189
    22   6 C    3.936 --    21 C    1.264    23 C    1.264   117 C    1.172
    23   6 C    3.899 --    22 C    1.264    27 N    1.249    24 C    1.189
    24   6 C    3.962 --    25 C    1.640    23 C    1.189    51 H    0.971
    25   6 C    3.960 --    24 C    1.640    26 C    1.187    52 H    0.974
    26   6 C    3.903 --    28 C    1.270    27 N    1.246    25 C    1.187
    27   7 N    3.295 --    23 C    1.249    26 C    1.246     1 Zn   0.454
    28   6 C    3.930 --    26 C    1.270    37 C    1.265    29 C    1.163
    29   6 C    3.957 --    30 C    2.622    28 C    1.163
    30   6 C    3.931 --    29 C    2.622    31 C    1.143
    31   6 C    3.987 --    36 C    1.349    32 C    1.349    30 C    1.143
    32   6 C    3.973 --    33 C    1.458    31 C    1.349    53 H    0.974
                            35 C    0.103
    33   6 C    3.973 --    32 C    1.458    34 N    1.406    54 H    0.972
                            36 C    0.103
    34   7 N    2.993 --    35 C    1.406    33 C    1.406
    35   6 C    3.973 --    36 C    1.458    34 N    1.406    55 H    0.972
                            32 C    0.103
    36   6 C    3.973 --    35 C    1.458    31 C    1.349    56 H    0.974
                            33 C    0.103
    37   6 C    3.910 --    28 C    1.265    41 N    1.264    38 C    1.179
    38   6 C    3.962 --    39 C    1.654    37 C    1.179    57 H    0.974
    39   6 C    3.960 --    38 C    1.654    40 C    1.173    58 H    0.976
    40   6 C    3.912 --     2 C    1.360    41 N    1.223    39 C    1.173
    41   7 N    3.292 --    37 C    1.264    40 C    1.223     1 Zn   0.457
    42   1 H    1.001 --     2 C    0.971
    43   1 H    0.998 --     4 C    0.976
    44   1 H    1.003 --     5 C    0.974
    45   1 H    1.002 --    12 C    0.974
    46   1 H    1.013 --    13 C    0.972
    47   1 H    1.013 --    15 C    0.972
    48   1 H    1.002 --    16 C    0.974
    49   1 H    1.003 --    18 C    0.974
    50   1 H    1.005 --    19 C    0.971
    51   1 H    1.005 --    24 C    0.971
    52   1 H    1.003 --    25 C    0.974
    53   1 H    1.002 --    32 C    0.974
    54   1 H    1.013 --    33 C    0.972
    55   1 H    1.013 --    35 C    0.972
    56   1 H    1.002 --    36 C    0.974
    57   1 H    1.003 --    38 C    0.974
    58   1 H    0.998 --    39 C    0.976
    59  30 Zn   1.991 --    65 N    0.457    99 N    0.457    85 N    0.454
                            78 N    0.454
    60   6 C    3.928 --    61 C    1.360    98 C    1.360   100 H    0.971
    61   6 C    3.912 --    60 C    1.360    65 N    1.223    62 C    1.173
    62   6 C    3.960 --    63 C    1.654    61 C    1.173   101 H    0.976
    63   6 C    3.962 --    62 C    1.654    64 C    1.179   102 H    0.974
    64   6 C    3.910 --    66 C    1.264    65 N    1.264    63 C    1.179
    65   7 N    3.292 --    64 C    1.264    61 C    1.223    59 Zn   0.457
    66   6 C    3.930 --    75 C    1.270    64 C    1.264    67 C    1.162
    67   6 C    3.957 --    68 C    2.622    66 C    1.162
    68   6 C    3.931 --    67 C    2.622    69 C    1.143
    69   6 C    3.987 --    70 C    1.349    74 C    1.349    68 C    1.143
    70   6 C    3.973 --    71 C    1.458    69 C    1.349   103 H    0.974
                            73 C    0.103
    71   6 C    3.973 --    70 C    1.458    72 N    1.406   104 H    0.972
                            74 C    0.103
    72   7 N    2.993 --    73 C    1.406    71 C    1.406
    73   6 C    3.973 --    74 C    1.458    72 N    1.406   105 H    0.972
                            70 C    0.103
    74   6 C    3.973 --    73 C    1.458    69 C    1.349   106 H    0.974
                            71 C    0.103
    75   6 C    3.903 --    66 C    1.270    78 N    1.246    76 C    1.187
    76   6 C    3.960 --    77 C    1.640    75 C    1.187   107 H    0.974
    77   6 C    3.962 --    76 C    1.640    79 C    1.189   108 H    0.971
    78   7 N    3.294 --    79 C    1.249    75 C    1.246    59 Zn   0.454
    79   6 C    3.899 --    80 C    1.264    78 N    1.249    77 C    1.189
    80   6 C    3.936 --    79 C    1.264    81 C    1.264   118 C    1.172
    81   6 C    3.899 --    80 C    1.264    85 N    1.249    82 C    1.188
    82   6 C    3.962 --    83 C    1.640    81 C    1.188   109 H    0.971
    83   6 C    3.960 --    82 C    1.640    84 C    1.187   110 H    0.974
    84   6 C    3.903 --    86 C    1.270    85 N    1.246    83 C    1.187
    85   7 N    3.295 --    81 C    1.249    84 C    1.246    59 Zn   0.454
    86   6 C    3.930 --    84 C    1.270    95 C    1.265    87 C    1.162
    87   6 C    3.957 --    88 C    2.622    86 C    1.162
    88   6 C    3.931 --    87 C    2.622    89 C    1.143
    89   6 C    3.987 --    94 C    1.349    90 C    1.349    88 C    1.143
    90   6 C    3.973 --    91 C    1.458    89 C    1.349   111 H    0.974
                            93 C    0.103
    91   6 C    3.973 --    90 C    1.458    92 N    1.406   112 H    0.972
                            94 C    0.103
    92   7 N    2.993 --    91 C    1.406    93 C    1.406
    93   6 C    3.973 --    94 C    1.458    92 N    1.406   113 H    0.972
                            90 C    0.103
    94   6 C    3.973 --    93 C    1.458    89 C    1.349   114 H    0.974
                            91 C    0.103
    95   6 C    3.910 --    86 C    1.265    99 N    1.264    96 C    1.179
    96   6 C    3.962 --    97 C    1.654    95 C    1.179   115 H    0.974
    97   6 C    3.960 --    96 C    1.654    98 C    1.173   116 H    0.976
    98   6 C    3.912 --    60 C    1.360    99 N    1.223    97 C    1.173
    99   7 N    3.292 --    95 C    1.264    98 C    1.223    59 Zn   0.457
   100   1 H    1.001 --    60 C    0.971
   101   1 H    0.998 --    62 C    0.976
   102   1 H    1.003 --    63 C    0.974
   103   1 H    1.002 --    70 C    0.974
   104   1 H    1.013 --    71 C    0.972
   105   1 H    1.013 --    73 C    0.972
   106   1 H    1.002 --    74 C    0.974
   107   1 H    1.003 --    76 C    0.974
   108   1 H    1.005 --    77 C    0.971
   109   1 H    1.005 --    82 C    0.971
   110   1 H    1.003 --    83 C    0.974
   111   1 H    1.002 --    90 C    0.974
   112   1 H    1.013 --    91 C    0.972
   113   1 H    1.013 --    93 C    0.972
   114   1 H    1.002 --    94 C    0.974
   115   1 H    1.003 --    96 C    0.974
   116   1 H    0.998 --    97 C    0.976
   117   6 C    3.933 --   118 C    2.583    22 C    1.172
   118   6 C    3.933 --   117 C    2.583    80 C    1.172
 ---------------------------------------------------------------------------

           -------------------------------------------------
          | TOTAL ENERGY             -205.864024019638 Eh   |
          | GRADIENT NORM               0.000446092649 Eh/α |
          | HOMO-LUMO GAP               1.102533650711 eV   |
           -------------------------------------------------

 * finished run on 2022/07/30 at 10:24:12.542
