   * xtb version 6.5.1 (b24c23e) compiled by 'conda@728c89f4b128' on 2022-07-12
          program call               : xtb Co_Ph_C4_3.xyz --gfn 1 --opt -T 48

   ID    Z sym.   atoms
    1   27 Co     1, 57, 121
    2    6 C      2-6, 8-11, 13-29, 32-37, 58-62, 64-67, 69-85, 88-93,
                  113-120, 122-126, 128-131, 133-149, 152-157
    3    7 N      7, 12, 30, 31, 63, 68, 86, 87, 127, 132, 150, 151
    4    1 H      38-56, 94-112, 158-175

          :  Hamiltonian                  GFN1-xTB          :
 * total energy  :  -297.8462883 Eh     change       -0.2283457E-08 Eh
 * total energy  :  -298.1887913 Eh     change       -0.3425030E+00 Eh
 * total energy  :  -298.3163157 Eh     change       -0.1275244E+00 Eh
 * total energy  :  -298.3935954 Eh     change       -0.7727971E-01 Eh
 * total energy  :  -298.4603947 Eh     change       -0.6679927E-01 Eh
 * total energy  :  -298.5039603 Eh     change       -0.4356557E-01 Eh
 * total energy  :  -298.5285765 Eh     change       -0.2461625E-01 Eh
 * total energy  :  -298.5471852 Eh     change       -0.1860867E-01 Eh
 * total energy  :  -298.5578511 Eh     change       -0.1066589E-01 Eh
 * total energy  :  -298.5703675 Eh     change       -0.1251649E-01 Eh
 * total energy  :  -298.6570680 Eh     change       -0.1426155E-04 Eh
 * total energy  :  -298.6570873 Eh     change       -0.1931839E-04 Eh
 * total energy  :  -298.6571155 Eh     change       -0.2826480E-04 Eh
 * total energy  :  -298.6571365 Eh     change       -0.2092165E-04 Eh
 * total energy  :  -298.6571532 Eh     change       -0.1673919E-04 Eh
 * total energy  :  -298.6571668 Eh     change       -0.1362124E-04 Eh
 * total energy  :  -298.6571774 Eh     change       -0.1061920E-04 Eh
 * total energy  :  -298.6571846 Eh     change       -0.7116744E-05 Eh
 * total energy  :  -298.6571895 Eh     change       -0.4916763E-05 Eh
   *** GEOMETRY OPTIMIZATION CONVERGED AFTER 85 ITERATIONS ***

 final structure:
================
175
 xtb: 6.5.1 (b24c23e)
Co          28.92431351294572       -0.01591921930488        0.01213035682335
C           25.55063069668778       -0.03882762990523        0.02173212606932
C           26.21192331895921       -1.20083202054673       -0.31383815460879
C           25.55050160106190       -2.42214044404643       -0.65982270606644
C           26.50832359846540       -3.37616663128003       -0.72765219734112
C           27.75495630756719       -2.73529042255692       -0.42549437856697
N           27.56757576692663       -1.39221716392966       -0.22103654453771
C           28.94171294264303       -3.41746590242007       -0.19180288385409
C           30.11802318808887       -2.75827537457680        0.12767493514344
C           31.36574992307279       -3.41839072779831        0.37019720548555
C           32.31349064773191       -2.45282166938684        0.43451875219060
N           30.29824623070944       -1.39355708815111        0.08607930753193
C           31.64430124796172       -1.20794991796848        0.22415192416460
C           32.31678109408450        0.00211030751353        0.02972385085012
C           31.63193123131265        1.20382176002847       -0.17324862350088
C           32.28374939698320        2.45029100017748       -0.42310554894587
C           31.32314885611884        3.40507592265523       -0.38372960633100
C           30.08907847244756        2.73758380290813       -0.09690169217328
C           28.90004799144714        3.38938439710424        0.19172699982225
C           28.88731452212024        4.86871227015644        0.26474796484113
C           28.06759284172981        5.61192302938604       -0.58587474774805
C           28.05809842886807        6.99681381427614       -0.51641253048646
C           28.86015500363888        7.65527167574405        0.40583648588012
C           29.67608912696532        6.92277355666789        1.25737040222577
C           29.69350277361967        5.53802617688203        1.18661451974761
C           27.71903727354381        2.69283001981877        0.41565834411431
C           26.47430585150921        3.30984234935472        0.76959023054318
C           25.52907023140050        2.34174891718035        0.71802520175246
C           26.19943987080796        1.13389701376486        0.34375197912189
N           27.54971510139759        1.34640062557757        0.22085948189845
N           30.28433038586430        1.37606814001105       -0.03395176215433
C           28.94615840224317       -4.89859391017120       -0.28035520229824
C           28.75056349414329       -5.53091073631243       -1.50811183096513
C           28.75440670139255       -6.91541038774519       -1.59020197188099
C           28.94787027521986       -7.68182336233543       -0.44898278311184
C           29.14081515046187       -7.05847663430158        0.77628162759767
C           29.14280914450907       -5.67411110685061        0.86205657740947
H           24.46705217452240       -0.04795244878779        0.03336134139085
H           24.48681147784045       -2.51958779212153       -0.80855510782811
H           26.39276241233855       -4.42684856340622       -0.93898086410915
H           31.49132724441593       -4.48538805439316        0.45619877340831
H           33.37530573747532       -2.55841642167671        0.58873003506512
H           33.34162791372197        2.56382841762615       -0.59737549067852
H           31.42918764741850        4.46742195130704       -0.53173960199017
H           27.44949799298175        5.09972277602317       -1.31482310436177
H           27.42172341193582        7.56466078249500       -1.18608683834275
H           28.84927119759039        8.73793224113724        0.46088956345160
H           30.30193992356449        7.43222534483676        1.98166621757254
H           30.32195690090979        4.96676282019591        1.86076872714478
H           26.35347723639631        4.35122365573273        1.02051592947998
H           24.46988185190194        2.41977023480991        0.90531740847073
H           28.60936762931347       -4.93265025460626       -2.40133159326759
H           28.60608356654870       -7.39774581787424       -2.55000510386014
H           28.94799431203451       -8.76396291981054       -0.51444237188881
H           29.28941173326946       -7.65303148028572        1.67087979887930
H           29.28248818017133       -5.18811333410981        1.82120440014621
Co          55.68810333548842        0.05283274698088        0.02469462347239
C           59.06160406892985        0.07275437490956        0.06315418787385
C           58.40395991378702        1.24827424367793       -0.22984283436814
C           59.06899217688824        2.48222910411452       -0.51947559818523
C           58.11193649568578        3.43859966715671       -0.55907169886933
C           56.86227552923043        2.78674991646146       -0.29515340587415
N           57.04747427864560        1.43641029175208       -0.14310890620161
C           55.67394788483056        3.45980459375254       -0.04400724490818
C           54.49566673839556        2.78929864324389        0.24338758909148
C           53.24797445665390        3.44031448599663        0.50960682380555
C           52.30004604381970        2.47325372922620        0.53843284998100
N           54.31490492281642        1.42743886865688        0.14919051182345
C           52.96867287183093        1.23703156535930        0.28068537442515
C           52.29552404746730        0.03626879557389        0.03741614329229
C           52.97983666288241       -1.15522953872207       -0.22070349318031
C           52.32765182620380       -2.38789491473210       -0.53076758871281
C           53.28818848012774       -3.34356984846846       -0.53928606419426
C           54.52226646868451       -2.69140818939241       -0.21913789717879
C           55.70959753512016       -3.35693993282002        0.04385763691391
C           55.72236108199601       -4.83804881523977        0.04781253035054
C           56.55005047273326       -5.54085430163984       -0.82903447910195
C           56.56118345711716       -6.92746751942362       -0.82247191922444
C           55.75280000606888       -7.62814809888944        0.06236437501608
C           54.92875389488686       -6.93610205121249        0.93952922018414
C           54.90979749599439       -5.54961445875614        0.93167722138618
C           56.88895713034457       -2.67241326044996        0.31014704195767
C           58.12995373572582       -3.30587132336007        0.64766661773304
C           59.07561782269164       -2.33680693864378        0.65162178674003
C           58.40928430392951       -1.11260118468096        0.32652116397555
N           57.06033125790275       -1.31854978590434        0.17992193000314
N           54.32735138585272       -1.33428089177175       -0.09055430466994
C           55.67078336906192        4.94328526930856       -0.07222832714113
C           55.87606072117006        5.62569923048023       -1.27121696058572
C           55.87275372788594        7.01243798980543       -1.29598997196416
C           55.67020548088348        7.73113164705902       -0.12565691295370
C           55.46796587725141        7.05777048623636        1.07132661625295
C           55.46552860344684        5.67107741735403        1.09975517206184
H           60.14501354120076        0.08065153953055        0.08614681785550
H           60.13417413638363        2.58501878334864       -0.65324774769138
H           58.22965214542661        4.49687867775885       -0.72678986829545
H           53.12251113522175        4.50338394138271        0.63516655141297
H           51.23832109754709        2.57348544918220        0.69678111846181
H           51.26969586906216       -2.49244544346640       -0.71015312678892
H           53.18197681204835       -4.39725824053309       -0.73980209547762
H           57.17345613483720       -4.99538143885461       -1.52873988734786
H           57.20401776405371       -7.46352492247536       -1.51189311629740
H           55.76520638357869       -8.71216932481404        0.06851464215947
H           54.29802072907414       -7.47867657640736        1.63496550547400
H           54.27537435296367       -5.01035694446853        1.62628832369238
H           58.24811483226042       -4.35784895410972        0.85120612624892
H           60.13273683331327       -2.42390644549546        0.84641274569530
H           56.02432856503280        5.06489734986379       -2.18731015167657
H           56.02859261172432        7.53403132680924       -2.23382888357460
H           55.67028206967191        8.81504962200912       -0.14638231778103
H           55.31232657666256        7.61482119829321        1.98858635339944
H           55.31869310117056        5.14585891014169        2.03691650818113
C           34.94174097790557        0.01947343772815        0.02927009443438
C           33.71856094709318        0.01015924071308        0.02994127108390
C           36.28909444215824        0.02636374419154        0.02858963037808
C           37.51250759505145        0.03180420155128        0.02765611041689
C           48.32305120479899        0.02640964461053        0.05018061512735
C           47.09961567647586        0.02702224844624        0.05284370873249
C           49.67047879126316        0.02746994622593        0.04665741751790
C           50.89369514451047        0.02899628716153        0.04141238919793
Co          42.30573790443776        0.02816886608456        0.07545019687549
C           38.91293744685714        0.03132529837418        0.02729796107335
C           39.59393195000514       -1.15815218544472        0.30971634448624
C           38.94476020013384       -2.38528674239545        0.64370670315964
C           39.90044181931118       -3.34735494383274        0.62412887471611
C           41.12720406546070       -2.70195151707019        0.26860393086340
N           40.93578457646162       -1.34626809186985        0.14104387117874
C           42.30413428996055       -3.36900260582340       -0.04446633618696
C           43.48169288390250       -2.68873778281128       -0.32341807377927
C           44.71034777736097       -3.31985747253749       -0.69863540356447
C           45.66745295146736       -2.36002705346725       -0.66658812050051
N           43.67214028982020       -1.33812771877917       -0.14417312016947
C           45.01716901123662       -1.14727955099257       -0.28454064260791
C           45.69912342322553        0.02775690993686        0.04991913217776
C           45.01602107758487        1.20386610333139        0.37943748130319
C           45.66198344890775        2.41523482415102        0.77163885169120
C           44.70581091870100        3.37702701605520        0.78739801180219
C           43.48220315657648        2.74780385334493        0.39401796174112
C           42.30780739175397        3.42780924232370        0.09891814676650
C           42.30963358038640        4.90783477380788        0.12642170555238
C           41.44775725682819        5.60120233504071        0.97775480617864
C           41.45525248061230        6.98750225217962        1.00455178917710
C           42.31596835171978        7.69732439036516        0.17805792506422
C           43.17377727993823        7.01473139486815       -0.67399743450429
C           43.17501051177789        5.62840049660749       -0.69837720406852
C           41.13286005398367        2.76003389587538       -0.21881678019437
C           39.90730446527622        3.40606482553517       -0.57857091880093
C           38.94982068122214        2.44610910409286       -0.59274731868171
C           39.59704267274225        1.21874187231016       -0.25499740097611
N           40.94092012066705        1.40315823674650       -0.09684559758446
N           43.67527928903053        1.39896490278046        0.20952390219643
C           42.30280134792908       -4.84900417818194       -0.07873253095003
C           41.45188292495807       -5.53462079333968       -0.94703427284762
C           41.45446699292041       -6.92075827376155       -0.98063920540153
C           42.29833402622789       -7.63795957823607       -0.14334490670372
C           43.14417170676057       -6.96301101085748        0.72643261154844
C           43.15108128102520       -5.57676913419319        0.75720517908757
H           37.89186240527855       -2.48403832935658        0.85350070086617
H           39.79420793752624       -4.40034369798108        0.82827773317655
H           44.81710309232538       -4.36327525900575       -0.94678294899807
H           46.72216293659807       -2.45148072084106       -0.87044905537453
H           46.71311123603923        2.50508419169708        0.99394069318938
H           44.81024747903908        4.41985307298543        1.03907850154828
H           40.78468831388022        5.04800010957568        1.63338862197425
H           40.78718480485865        7.51597972304683        1.67531832945732
H           42.31842595525919        8.78121892423229        0.19812539773515
H           43.84455304693372        7.56459020445470       -1.32454501781064
H           43.83604114271802        5.09668464734558       -1.37348665449191
H           39.80235704856803        4.45857777252055       -0.78570610185215
H           37.89687324247542        2.54589411350668       -0.80173332325826
H           40.80095359857525       -4.97527528756017       -1.60969557882041
H           40.79488744457088       -7.44337937968850       -1.66453782150305
H           42.29666289260634       -8.72174468155058       -0.16861677648098
H           43.80186861823091       -7.51876469252728        1.38549629876123
H           43.80328101571443       -5.05097250926799        1.44556011198710

          :  Hamiltonian                  GFN1-xTB          :
         :: total energy            -298.657189482822 Eh    ::
         :: gradient norm              0.000612547234 Eh/a0 ::
         :: HOMO-LUMO gap              0.010471900391 eV    ::
         :: SCC energy              -303.624390115046 Eh    ::
         :: repulsion energy           5.126150964712 Eh    ::

    * Orbital Energies and Occupations

         #    Occupation            Energy/Eh            Energy/eV
      -------------------------------------------------------------
         1        2.0000           -0.7733600             -21.0442
       ...           ...                  ...                  ...
       268        2.0000           -0.3937164             -10.7136
       269        2.0000           -0.3935050             -10.7078
       270        2.0000           -0.3934899             -10.7074
       271        1.9999           -0.3909422             -10.6381
       272        1.9999           -0.3907737             -10.6335
       273        1.9998           -0.3903502             -10.6220
       274        1.9998           -0.3903140             -10.6210
       275        1.9998           -0.3903059             -10.6208
       276        1.9998           -0.3902653             -10.6197
       277        1.9998           -0.3902638             -10.6196
       278        1.7485           -0.3833101             -10.4304
       279        1.1455           -0.3816428             -10.3850
       280        1.1455           -0.3816426             -10.3850 (HOMO)
       281        0.9617           -0.3812578             -10.3746 (LUMO)
       282                         -0.3438752              -9.3573
       283                         -0.3325286              -9.0486
       284                         -0.3297689              -8.9735
       285                         -0.3269556              -8.8969
       286                         -0.3269448              -8.8966
       287                         -0.3238704              -8.8130
       288                         -0.3042044              -8.2778
       289                         -0.2939959              -8.0000
       290                         -0.2925532              -7.9608
       291                         -0.2920518              -7.9471
       ...                                ...                  ...
       603                          1.5122918              41.1516
      -------------------------------------------------------------
                  HL-Gap            0.0003848 Eh            0.0105 eV

Wiberg/Mayer (AO) data.
largest (>0.10) Wiberg bond orders for each atom

     #   Z sym  total        # sym  WBO       # sym  WBO       # sym  WBO
 ---------------------------------------------------------------------------
     1  27 Co   3.023 --     7 N    0.635    30 N    0.635    12 N    0.631
                            31 N    0.630
     2   6 C    3.925 --    29 C    1.365     3 C    1.365    38 H    0.970
     3   6 C    3.925 --     2 C    1.365     7 N    1.202     4 C    1.174
     4   6 C    3.960 --     5 C    1.650     3 C    1.174    39 H    0.975
     5   6 C    3.963 --     4 C    1.650     6 C    1.176    40 H    0.973
     6   6 C    3.919 --     8 C    1.319     7 N    1.214     5 C    1.176
     7   7 N    3.344 --     6 C    1.214     3 C    1.202     1 Co   0.635
     8   6 C    3.929 --     9 C    1.337     6 C    1.319    32 C    1.020
     9   6 C    3.917 --     8 C    1.337    12 N    1.191    10 C    1.180
    10   6 C    3.958 --    11 C    1.639     9 C    1.180    41 H    0.973
    11   6 C    3.962 --    10 C    1.639    13 C    1.189    42 H    0.974
    12   7 N    3.345 --    13 C    1.235     9 C    1.191     1 Co   0.631
    13   6 C    3.904 --    14 C    1.256    12 N    1.235    11 C    1.189
    14   6 C    3.929 --    13 C    1.256    15 C    1.255   114 C    1.196
    15   6 C    3.904 --    14 C    1.255    31 N    1.235    16 C    1.190
    16   6 C    3.961 --    17 C    1.637    15 C    1.190    43 H    0.974
    17   6 C    3.958 --    16 C    1.637    18 C    1.181    44 H    0.973
    18   6 C    3.918 --    19 C    1.334    31 N    1.192    17 C    1.181
    19   6 C    3.930 --    18 C    1.334    26 C    1.315    20 C    1.029
    20   6 C    3.988 --    25 C    1.394    21 C    1.394    19 C    1.029
                            23 C    0.107
    21   6 C    3.987 --    22 C    1.448    20 C    1.394    45 H    0.973
                            24 C    0.109
    22   6 C    3.995 --    21 C    1.448    23 C    1.437    46 H    0.973
                            25 C    0.109
    23   6 C    3.990 --    24 C    1.437    22 C    1.437    47 H    0.974
                            20 C    0.107
    24   6 C    3.995 --    25 C    1.448    23 C    1.437    48 H    0.973
                            21 C    0.109
    25   6 C    3.988 --    24 C    1.448    20 C    1.394    49 H    0.973
                            22 C    0.109
    26   6 C    3.920 --    19 C    1.315    30 N    1.215    27 C    1.177
    27   6 C    3.963 --    28 C    1.647    26 C    1.177    50 H    0.973
    28   6 C    3.959 --    27 C    1.647    29 C    1.175    51 H    0.975
    29   6 C    3.925 --     2 C    1.365    30 N    1.201    28 C    1.175
    30   7 N    3.344 --    26 C    1.215    29 C    1.201     1 Co   0.635
    31   7 N    3.344 --    15 C    1.235    18 C    1.192     1 Co   0.630
    32   6 C    3.988 --    37 C    1.398    33 C    1.398     8 C    1.020
                            35 C    0.109
    33   6 C    3.988 --    34 C    1.446    32 C    1.398    52 H    0.973
                            36 C    0.110
    34   6 C    3.995 --    33 C    1.446    35 C    1.438    53 H    0.973
                            37 C    0.110
    35   6 C    3.991 --    36 C    1.439    34 C    1.438    54 H    0.974
                            32 C    0.109
    36   6 C    3.995 --    37 C    1.446    35 C    1.439    55 H    0.973
                            33 C    0.110
    37   6 C    3.989 --    36 C    1.446    32 C    1.398    56 H    0.973
                            34 C    0.110
    38   1 H    1.000 --     2 C    0.970
    39   1 H    0.998 --     4 C    0.975
    40   1 H    1.005 --     5 C    0.973
    41   1 H    1.004 --    10 C    0.973
    42   1 H    1.002 --    11 C    0.974
    43   1 H    1.002 --    16 C    0.974
    44   1 H    1.004 --    17 C    0.973
    45   1 H    1.005 --    21 C    0.973
    46   1 H    1.003 --    22 C    0.973
    47   1 H    1.003 --    23 C    0.974
    48   1 H    1.003 --    24 C    0.973
    49   1 H    1.005 --    25 C    0.973
    50   1 H    1.004 --    27 C    0.973
    51   1 H    0.998 --    28 C    0.975
    52   1 H    1.004 --    33 C    0.973
    53   1 H    1.003 --    34 C    0.973
    54   1 H    1.003 --    35 C    0.974
    55   1 H    1.003 --    36 C    0.973
    56   1 H    1.004 --    37 C    0.973
    57  27 Co   3.023 --    63 N    0.635    86 N    0.635    68 N    0.630
                            87 N    0.630
    58   6 C    3.925 --    85 C    1.365    59 C    1.365    94 H    0.970
    59   6 C    3.925 --    58 C    1.365    63 N    1.202    60 C    1.174
    60   6 C    3.960 --    61 C    1.650    59 C    1.174    95 H    0.975
    61   6 C    3.963 --    60 C    1.650    62 C    1.176    96 H    0.973
    62   6 C    3.920 --    64 C    1.319    63 N    1.213    61 C    1.176
    63   7 N    3.344 --    62 C    1.213    59 C    1.202    57 Co   0.635
    64   6 C    3.929 --    65 C    1.337    62 C    1.319    88 C    1.020
    65   6 C    3.917 --    64 C    1.337    68 N    1.191    66 C    1.180
    66   6 C    3.958 --    67 C    1.639    65 C    1.180    97 H    0.973
    67   6 C    3.962 --    66 C    1.639    69 C    1.189    98 H    0.974
    68   7 N    3.345 --    69 C    1.235    65 C    1.191    57 Co   0.630
    69   6 C    3.904 --    70 C    1.256    68 N    1.235    67 C    1.189
    70   6 C    3.929 --    69 C    1.256    71 C    1.255   120 C    1.196
    71   6 C    3.904 --    70 C    1.255    87 N    1.235    72 C    1.190
    72   6 C    3.962 --    73 C    1.636    71 C    1.190    99 H    0.974
    73   6 C    3.958 --    72 C    1.636    74 C    1.181   100 H    0.973
    74   6 C    3.918 --    75 C    1.334    87 N    1.191    73 C    1.181
    75   6 C    3.930 --    74 C    1.334    82 C    1.314    76 C    1.030
    76   6 C    3.988 --    81 C    1.394    77 C    1.394    75 C    1.030
                            79 C    0.107
    77   6 C    3.987 --    78 C    1.448    76 C    1.394   101 H    0.973
                            80 C    0.109
    78   6 C    3.995 --    77 C    1.448    79 C    1.437   102 H    0.973
                            81 C    0.109
    79   6 C    3.989 --    80 C    1.437    78 C    1.437   103 H    0.974
                            76 C    0.107
    80   6 C    3.995 --    81 C    1.448    79 C    1.437   104 H    0.973
                            77 C    0.109
    81   6 C    3.988 --    80 C    1.448    76 C    1.394   105 H    0.973
                            78 C    0.109
    82   6 C    3.920 --    75 C    1.314    86 N    1.215    83 C    1.177
    83   6 C    3.963 --    84 C    1.647    82 C    1.177   106 H    0.973
    84   6 C    3.959 --    83 C    1.647    85 C    1.175   107 H    0.975
    85   6 C    3.925 --    58 C    1.365    86 N    1.201    84 C    1.175
    86   7 N    3.344 --    82 C    1.215    85 C    1.201    57 Co   0.635
    87   7 N    3.344 --    71 C    1.235    74 C    1.191    57 Co   0.630
    88   6 C    3.988 --    93 C    1.398    89 C    1.398    64 C    1.020
                            91 C    0.109
    89   6 C    3.988 --    90 C    1.446    88 C    1.398   108 H    0.973
                            92 C    0.110
    90   6 C    3.995 --    89 C    1.446    91 C    1.438   109 H    0.973
                            93 C    0.110
    91   6 C    3.991 --    92 C    1.438    90 C    1.438   110 H    0.974
                            88 C    0.109
    92   6 C    3.995 --    93 C    1.446    91 C    1.438   111 H    0.973
                            89 C    0.110
    93   6 C    3.989 --    92 C    1.446    88 C    1.398   112 H    0.973
                            90 C    0.110
    94   1 H    1.000 --    58 C    0.970
    95   1 H    0.998 --    60 C    0.975
    96   1 H    1.004 --    61 C    0.973
    97   1 H    1.004 --    66 C    0.973
    98   1 H    1.002 --    67 C    0.974
    99   1 H    1.002 --    72 C    0.974
   100   1 H    1.004 --    73 C    0.973
   101   1 H    1.005 --    77 C    0.973
   102   1 H    1.003 --    78 C    0.973
   103   1 H    1.003 --    79 C    0.974
   104   1 H    1.003 --    80 C    0.973
   105   1 H    1.005 --    81 C    0.973
   106   1 H    1.004 --    83 C    0.973
   107   1 H    0.998 --    84 C    0.975
   108   1 H    1.004 --    89 C    0.973
   109   1 H    1.003 --    90 C    0.973
   110   1 H    1.003 --    91 C    0.974
   111   1 H    1.003 --    92 C    0.973
   112   1 H    1.004 --    93 C    0.973
   113   6 C    3.929 --   114 C    2.459   115 C    1.321
   114   6 C    3.915 --   113 C    2.459    14 C    1.196   116 C    0.197
   115   6 C    3.923 --   116 C    2.455   113 C    1.321
   116   6 C    3.921 --   115 C    2.455   122 C    1.202   114 C    0.197
   117   6 C    3.923 --   118 C    2.456   119 C    1.321
   118   6 C    3.921 --   117 C    2.456   134 C    1.202   120 C    0.197
   119   6 C    3.929 --   120 C    2.459   117 C    1.321
   120   6 C    3.915 --   119 C    2.459    70 C    1.196   118 C    0.197
   121  27 Co   3.047 --   132 N    0.629   150 N    0.629   127 N    0.625
                           151 N    0.624
   122   6 C    3.917 --   149 C    1.252   123 C    1.250   116 C    1.202
   123   6 C    3.906 --   122 C    1.250   127 N    1.235   124 C    1.194
   124   6 C    3.960 --   125 C    1.630   123 C    1.194   158 H    0.974
   125   6 C    3.960 --   124 C    1.630   126 C    1.186   159 H    0.973
   126   6 C    3.915 --   128 C    1.321   127 N    1.197   125 C    1.186
   127   7 N    3.337 --   123 C    1.235   126 C    1.197   121 Co   0.625
   128   6 C    3.925 --   129 C    1.324   126 C    1.321   152 C    1.031
   129   6 C    3.915 --   128 C    1.324   132 N    1.196   130 C    1.185
   130   6 C    3.960 --   131 C    1.632   129 C    1.185   160 H    0.973
   131   6 C    3.960 --   130 C    1.632   133 C    1.193   161 H    0.974
   132   7 N    3.337 --   133 C    1.235   129 C    1.196   121 Co   0.629
   133   6 C    3.906 --   134 C    1.252   132 N    1.235   131 C    1.193
   134   6 C    3.917 --   133 C    1.252   135 C    1.250   118 C    1.202
   135   6 C    3.906 --   134 C    1.250   151 N    1.235   136 C    1.195
   136   6 C    3.960 --   137 C    1.630   135 C    1.195   162 H    0.974
   137   6 C    3.960 --   136 C    1.630   138 C    1.186   163 H    0.973
   138   6 C    3.915 --   139 C    1.320   151 N    1.197   137 C    1.186
   139   6 C    3.925 --   146 C    1.324   138 C    1.320   140 C    1.032
   140   6 C    3.988 --   141 C    1.393   145 C    1.393   139 C    1.032
                           143 C    0.107
   141   6 C    3.987 --   142 C    1.448   140 C    1.393   164 H    0.973
                           144 C    0.109
   142   6 C    3.995 --   141 C    1.448   143 C    1.437   165 H    0.973
                           145 C    0.109
   143   6 C    3.989 --   142 C    1.437   144 C    1.437   166 H    0.974
                           140 C    0.107
   144   6 C    3.995 --   145 C    1.448   143 C    1.437   167 H    0.973
                           141 C    0.109
   145   6 C    3.987 --   144 C    1.448   140 C    1.393   168 H    0.973
                           142 C    0.109
   146   6 C    3.915 --   139 C    1.324   150 N    1.196   147 C    1.185
   147   6 C    3.960 --   148 C    1.632   146 C    1.185   169 H    0.973
   148   6 C    3.960 --   147 C    1.632   149 C    1.193   170 H    0.974
   149   6 C    3.906 --   122 C    1.252   150 N    1.236   148 C    1.193
   150   7 N    3.336 --   149 C    1.236   146 C    1.196   121 Co   0.629
   151   7 N    3.337 --   135 C    1.235   138 C    1.197   121 Co   0.624
   152   6 C    3.988 --   157 C    1.393   153 C    1.393   128 C    1.031
                           155 C    0.107
   153   6 C    3.987 --   154 C    1.448   152 C    1.393   171 H    0.973
                           156 C    0.109
   154   6 C    3.995 --   153 C    1.448   155 C    1.437   172 H    0.973
                           157 C    0.109
   155   6 C    3.989 --   156 C    1.437   154 C    1.437   173 H    0.974
                           152 C    0.107
   156   6 C    3.995 --   157 C    1.448   155 C    1.437   174 H    0.973
                           153 C    0.109
   157   6 C    3.987 --   156 C    1.448   152 C    1.393   175 H    0.973
                           154 C    0.109
   158   1 H    1.001 --   124 C    0.974
   159   1 H    1.004 --   125 C    0.973
   160   1 H    1.004 --   130 C    0.973
   161   1 H    1.001 --   131 C    0.974
   162   1 H    1.001 --   136 C    0.974
   163   1 H    1.004 --   137 C    0.973
   164   1 H    1.005 --   141 C    0.973
   165   1 H    1.002 --   142 C    0.973
   166   1 H    1.003 --   143 C    0.974
   167   1 H    1.002 --   144 C    0.973
   168   1 H    1.005 --   145 C    0.973
   169   1 H    1.004 --   147 C    0.973
   170   1 H    1.001 --   148 C    0.974
   171   1 H    1.005 --   153 C    0.973
   172   1 H    1.002 --   154 C    0.973
   173   1 H    1.003 --   155 C    0.974
   174   1 H    1.002 --   156 C    0.973
   175   1 H    1.005 --   157 C    0.973
 ---------------------------------------------------------------------------

           -------------------------------------------------
          | TOTAL ENERGY             -298.657189482822 Eh   |
          | GRADIENT NORM               0.000612547234 Eh/α |
          | HOMO-LUMO GAP               0.010471900391 eV   |
           -------------------------------------------------

 * finished run on 2022/07/30 at 01:33:07.725
