   * xtb version 6.5.1 (b24c23e) compiled by 'conda@728c89f4b128' on 2022-07-12
          program call               : xtb Zn_C2Py_C6_2.xyz --gfn 1 --opt -T 48

   ID    Z sym.   atoms
    1   30 Zn     1, 59
    2    6 C      2-6, 8-13, 15-19, 21-26, 28-33, 35-40, 60-64, 66-71, 73-77,
                  79-84, 86-91, 93-98, 117-122
    3    7 N      7, 14, 20, 27, 34, 41, 65, 72, 78, 85, 92, 99
    4    1 H      42-58, 100-116
########################################################################
[WARNING] Please study the warnings concerning your input carefully
-1- prog_main_parseArguments: Unknown option '-T' provided
########################################################################

          :  Hamiltonian                  GFN1-xTB          :
 * total energy  :  -214.0403379 Eh     change       -0.1636238E-09 Eh
 * total energy  :  -214.1299561 Eh     change       -0.8961819E-01 Eh
 * total energy  :  -214.1761859 Eh     change       -0.4622983E-01 Eh
 * total energy  :  -214.1873171 Eh     change       -0.1113117E-01 Eh
 * total energy  :  -214.1939807 Eh     change       -0.6663637E-02 Eh
 * total energy  :  -214.1972961 Eh     change       -0.3315319E-02 Eh
 * total energy  :  -214.2008942 Eh     change       -0.3598165E-02 Eh
 * total energy  :  -214.2029566 Eh     change       -0.2062416E-02 Eh
 * total energy  :  -214.2044170 Eh     change       -0.1460331E-02 Eh
 * total energy  :  -214.2052975 Eh     change       -0.8805414E-03 Eh
 * total energy  :  -214.2084723 Eh     change       -0.1864426E-04 Eh
 * total energy  :  -214.2084885 Eh     change       -0.1620266E-04 Eh
 * total energy  :  -214.2085052 Eh     change       -0.1671573E-04 Eh
 * total energy  :  -214.2085157 Eh     change       -0.1047606E-04 Eh
 * total energy  :  -214.2085229 Eh     change       -0.7172274E-05 Eh
 * total energy  :  -214.2085316 Eh     change       -0.8714640E-05 Eh
 * total energy  :  -214.2085405 Eh     change       -0.8858775E-05 Eh
 * total energy  :  -214.2085470 Eh     change       -0.6579967E-05 Eh
 * total energy  :  -214.2085498 Eh     change       -0.2776167E-05 Eh
   *** GEOMETRY OPTIMIZATION CONVERGED AFTER 44 ITERATIONS ***

 final structure:
================
122
 xtb: 6.5.1 (b24c23e)
Zn          14.86183524779324        0.06127525463372        0.02550271958075
C           11.44143492193514        0.08784224641220        0.05060201757302
C           12.07341103538721        0.96839795800323        0.92011516415785
C           11.40643917831426        1.87340276383674        1.81392016956673
C           12.37197316633873        2.55237038543882        2.48431706579310
C           13.63617430480316        2.06793167084367        2.00531879072328
N           13.42608366370154        1.11225503032154        1.06233600263944
C           14.89507899337150        2.51787974978844        2.44571634765968
C           14.90980215132314        3.52474731000132        3.43632912011798
C           14.92452017269342        4.39097211712565        4.28629624074400
C           14.94293026150899        5.40268038318205        5.27307893187356
C           16.14873954476086        5.93690231109956        5.74291741538312
C           16.11252467439224        6.92809610669160        6.70724124029200
N           14.98034147470733        7.40566780368175        7.21817009171981
C           13.82985509758621        6.90232302587180        6.77767372673924
C           13.75660880304724        5.91016183851141        5.81648884977674
C           16.13990230067846        2.05383888836056        1.98378683592391
C           17.41312605280020        2.52514882169638        2.44448742954763
C           18.36292586017173        1.83510696908964        1.76083093487307
N           16.33079971513838        1.09207392815390        1.03516058377138
C           17.67528456936084        0.93822745968621        0.87922157052352
C           18.30449255199619        0.03871423211482       -0.00452661231033
C           17.64900228856076       -0.85282960615226       -0.87699751267266
C           18.30942062989259       -1.75834903582663       -1.77042905938478
C           17.33890632577793       -2.43808920790592       -2.43516164391641
C           16.08012049969907       -1.95086211101013       -1.95177530718272
N           16.30003459780101       -0.99033796421221       -1.00825413669572
C           14.82140369774643       -2.40015903598277       -2.39008123527899
C           14.80435370853417       -3.41247432854434       -3.37511184219808
C           14.78921300537636       -4.28508050507913       -4.21850772893853
C           14.77079862427357       -5.30767511120514       -5.19401935922143
C           15.95717748249572       -5.87085172970816       -5.67918966310459
C           15.88400811831135       -6.87282182543538       -6.63020493649411
N           14.73359477334395       -7.33434986931482       -7.11447163472457
C           13.60137007464651       -6.80294319654374       -6.65983629768235
C           13.56508606939548       -5.79798390565020       -5.70991990315531
C           13.57632897114052       -1.93038138463718       -1.93129075735882
C           12.29780561286208       -2.39625110700768       -2.39035740752711
C           11.35291065301283       -1.69992968084344       -1.70848337259520
C           12.04691381393299       -0.80335067542516       -0.82686560928288
N           13.39499492776432       -0.96906430553583       -0.98808362988579
H           10.35578359024281        0.09646525366891        0.05834169567410
H           10.33596207784994        1.96819936792164        1.90759473200713
H           12.25048096139816        3.31500695845309        3.23735394030463
H           17.09396971657644        5.57761122742744        5.35417190909533
H           17.03315247763188        7.36074893735625        7.08836508154268
H           12.92504565011191        7.31380051697434        7.21591746767800
H           12.79760777528997        5.52910790488023        5.48670684801436
H           17.55401695565430        3.28660661720879        3.19509535457624
H           19.43496752993975        1.91958432698383        1.84124769364440
H           19.37871880970884       -1.85545913606778       -1.87103251120788
H           17.45681213932279       -3.20167573009269       -3.18758556580449
H           16.91618662365906       -5.52547559731845       -5.31220650009141
H           16.78886579651247       -7.32822018149153       -7.02244310095572
H           12.68082698535306       -7.20184839613614       -7.07641765151033
H           12.61988267977681       -5.39405965842225       -5.36771387650585
H           12.15326900425485       -3.15894583505283       -3.13925234372329
H           10.27982912062631       -1.77774373788094       -1.78677483352512
Zn          30.92365896958903       -0.05362296630154       -0.04001691061158
C           34.34405611402683       -0.08898237546725       -0.04836702375360
C           33.71229804517226       -1.28749570707761       -0.35701241862346
C           34.37941442693823       -2.51928178594995       -0.67396418288741
C           33.41397710947498       -3.44322669309912       -0.91260618421465
C           32.14970496122764       -2.78346239185308       -0.74329391994020
N           32.35966636999663       -1.48339920100281       -0.40798678833564
C           30.89078091310323       -3.39213713344806       -0.90391501168216
C           30.87606906033674       -4.75912133861916       -1.25954528429772
C           30.85997852539364       -5.93273275142782       -1.56833216946086
C           30.84153834715092       -7.29896319915093       -1.92989814278352
C           29.63610059964600       -7.97550097487579       -2.15201832979834
C           29.67275947360795       -9.31202260214638       -2.50713190153018
N           30.80500961906444       -9.99654140855745       -2.64997993974432
C           31.95514808775948       -9.36088484866556       -2.43990623208311
C           32.02793870055782       -8.02667026943018       -2.08190315390799
C           29.64596839577992       -2.75705246402045       -0.74412123113724
C           28.37281669706019       -3.39408458839628       -0.91373257153482
C           27.42289303766208       -2.45308140744400       -0.67324941999017
N           29.45489747645972       -1.44910895737897       -0.40636860829403
C           28.11033877366664       -1.23611902209920       -0.35567127471448
C           27.48103601405211       -0.01603842097640       -0.03726527421800
C           28.13641115809882        1.19027491002534        0.28061922419197
C           27.47581573350675        2.42151640641211        0.60006819339073
C           28.44621327113741        3.34112620868568        0.84181938555105
C           29.70507934377494        2.67651238397130        0.67104894939144
N           29.48530856149502        1.37377584377263        0.33081668475124
C           30.96379867237890        3.28347184157371        0.83072510861559
C           30.98103218728323        4.64854968802781        1.19351890454548
C           30.99687449444429        5.82000430753083        1.51038144285846
C           31.01578597341175        7.18185921369615        1.88807458326711
C           29.82972537600394        7.88644632422576        2.12652506454513
C           29.90325204083010        9.21669708697770        2.49899214160466
N           31.05372390904179        9.86981747514611        2.64331323371050
C           32.18564024836214        9.20775657034991        2.41648395546383
C           32.22155821299167        7.87695294102841        2.04058934771401
C           32.20884392396074        2.64859244665009        0.66276827554940
C           33.48731942740354        3.28201776403913        0.82598422864979
C           34.43227833908305        2.33913931398963        0.57968619867760
C           33.73836629413524        1.12183244038412        0.26443980160596
N           32.39025915790053        1.34529638582789        0.32337051736527
H           35.42970978943887       -0.09989973792455       -0.05141377335181
H           35.44991013942877       -2.64833598528882       -0.70676662510902
H           33.53563027351111       -4.48107916879502       -1.18002280838740
H           28.69082247240813       -7.45670813468433       -2.04736155081381
H           28.75245410657594       -9.86053109918927       -2.68647645339171
H           32.86002814667603       -9.94895910825251       -2.56404337617082
H           32.98663748911327       -7.54866788402222       -1.92049745286134
H           28.23210720109856       -4.42914210843759       -1.18192981375968
H           26.35087521138082       -2.56534173889969       -0.70564187179775
H           26.40649469524883        2.55733466667703        0.63248364292466
H           28.32816631462866        4.37869294957424        1.11131422863595
H           28.87068440155613        7.39369960186696        2.02117633233875
H           28.99864542346154        9.78635404450592        2.69182799803189
H           33.10623826871784        9.77049654014023        2.54252466736110
H           33.16653373829712        7.37666459028690        1.86622006290259
H           33.63176255578318        4.31661910907253        1.09462671790619
H           35.50534909673189        2.44636282165393        0.60621795366047
C           23.50682257905052        0.01353979260817       -0.02942232604372
C           22.27867957916284        0.01814325294441       -0.02695553072908
C           20.93397954814050        0.02331452350110       -0.02105444539311
C           19.71030936959247        0.03043055862820       -0.01556000339856
C           24.85151570083180        0.00512343948901       -0.03441142501056
C           26.07521734667175       -0.00213747582809       -0.03516135269720

          :  Hamiltonian                  GFN1-xTB          :
         :: total energy            -214.208549815296 Eh    ::
         :: gradient norm              0.000589146443 Eh/a0 ::
         :: HOMO-LUMO gap              1.112318241599 eV    ::
         :: SCC energy              -217.947451490833 Eh    ::
         :: repulsion energy           3.839174020384 Eh    ::

    * Orbital Energies and Occupations

         #    Occupation            Energy/Eh            Energy/eV
      -------------------------------------------------------------
         1        2.0000           -0.7675297             -20.8855
       ...           ...                  ...                  ...
       185        2.0000           -0.4280293             -11.6473
       186        2.0000           -0.4236278             -11.5275
       187        2.0000           -0.4236268             -11.5275
       188        2.0000           -0.4196102             -11.4182
       189        2.0000           -0.4184191             -11.3858
       190        2.0000           -0.4184033             -11.3853
       191        2.0000           -0.4184031             -11.3853
       192        2.0000           -0.4183993             -11.3852
       193        2.0000           -0.4174942             -11.3606
       194        2.0000           -0.4005545             -10.8996
       195        2.0000           -0.4005544             -10.8996
       196        2.0000           -0.3910038             -10.6398
       197        2.0000           -0.3836692             -10.4402 (HOMO)
       198                         -0.3427923              -9.3279 (LUMO)
       199                         -0.3418471              -9.3021
       200                         -0.3418461              -9.3021
       201                         -0.3322819              -9.0419
       202                         -0.3142973              -8.5525
       203                         -0.3110170              -8.4632
       204                         -0.2875135              -7.8236
       205                         -0.2866807              -7.8010
       206                         -0.2866788              -7.8009
       207                         -0.2844939              -7.7415
       208                         -0.2788994              -7.5892
       ...                                ...                  ...
       420                          1.5758968              42.8823
      -------------------------------------------------------------
                  HL-Gap            0.0408769 Eh            1.1123 eV

Wiberg/Mayer (AO) data.
largest (>0.10) Wiberg bond orders for each atom

     #   Z sym  total        # sym  WBO       # sym  WBO       # sym  WBO
 ---------------------------------------------------------------------------
     1  30 Zn   1.991 --    41 N    0.457     7 N    0.457    20 N    0.454
                            27 N    0.454
     2   6 C    3.928 --    40 C    1.360     3 C    1.360    42 H    0.971
     3   6 C    3.912 --     2 C    1.360     7 N    1.223     4 C    1.173
     4   6 C    3.960 --     5 C    1.654     3 C    1.173    43 H    0.976
     5   6 C    3.962 --     4 C    1.654     6 C    1.179    44 H    0.974
     6   6 C    3.909 --     7 N    1.264     8 C    1.263     5 C    1.179
     7   7 N    3.292 --     6 C    1.264     3 C    1.223     1 Zn   0.457
     8   6 C    3.931 --    17 C    1.272     6 C    1.263     9 C    1.162
     9   6 C    3.957 --    10 C    2.622     8 C    1.162
    10   6 C    3.931 --     9 C    2.622    11 C    1.143
    11   6 C    3.987 --    12 C    1.349    16 C    1.349    10 C    1.143
    12   6 C    3.973 --    13 C    1.458    11 C    1.349    45 H    0.974
                            15 C    0.103
    13   6 C    3.973 --    12 C    1.458    14 N    1.406    46 H    0.972
                            16 C    0.103
    14   7 N    2.993 --    13 C    1.406    15 C    1.406
    15   6 C    3.973 --    16 C    1.458    14 N    1.406    47 H    0.972
                            12 C    0.103
    16   6 C    3.973 --    15 C    1.458    11 C    1.349    48 H    0.974
                            13 C    0.103
    17   6 C    3.902 --     8 C    1.272    20 N    1.244    18 C    1.187
    18   6 C    3.959 --    19 C    1.640    17 C    1.187    49 H    0.974
    19   6 C    3.961 --    18 C    1.640    21 C    1.189    50 H    0.974
    20   7 N    3.295 --    21 C    1.252    17 C    1.244     1 Zn   0.454
    21   6 C    3.892 --    22 C    1.256    20 N    1.252    19 C    1.189
    22   6 C    3.936 --    23 C    1.257    21 C    1.256   120 C    1.189
    23   6 C    3.892 --    22 C    1.257    27 N    1.252    24 C    1.189
    24   6 C    3.961 --    25 C    1.640    23 C    1.189    51 H    0.974
    25   6 C    3.959 --    24 C    1.640    26 C    1.187    52 H    0.974
    26   6 C    3.902 --    28 C    1.272    27 N    1.244    25 C    1.187
    27   7 N    3.295 --    23 C    1.252    26 C    1.244     1 Zn   0.454
    28   6 C    3.931 --    26 C    1.272    37 C    1.263    29 C    1.162
    29   6 C    3.957 --    30 C    2.622    28 C    1.162
    30   6 C    3.931 --    29 C    2.622    31 C    1.143
    31   6 C    3.987 --    32 C    1.349    36 C    1.349    30 C    1.143
    32   6 C    3.973 --    33 C    1.458    31 C    1.349    53 H    0.974
                            35 C    0.103
    33   6 C    3.973 --    32 C    1.458    34 N    1.406    54 H    0.972
                            36 C    0.103
    34   7 N    2.993 --    33 C    1.406    35 C    1.406
    35   6 C    3.973 --    36 C    1.458    34 N    1.406    55 H    0.972
                            32 C    0.103
    36   6 C    3.973 --    35 C    1.458    31 C    1.349    56 H    0.974
                            33 C    0.103
    37   6 C    3.909 --    41 N    1.264    28 C    1.263    38 C    1.179
    38   6 C    3.962 --    39 C    1.654    37 C    1.179    57 H    0.974
    39   6 C    3.960 --    38 C    1.654    40 C    1.173    58 H    0.976
    40   6 C    3.912 --     2 C    1.360    41 N    1.223    39 C    1.173
    41   7 N    3.292 --    37 C    1.264    40 C    1.223     1 Zn   0.457
    42   1 H    1.001 --     2 C    0.971
    43   1 H    0.998 --     4 C    0.976
    44   1 H    1.003 --     5 C    0.974
    45   1 H    1.002 --    12 C    0.974
    46   1 H    1.013 --    13 C    0.972
    47   1 H    1.013 --    15 C    0.972
    48   1 H    1.002 --    16 C    0.974
    49   1 H    1.003 --    18 C    0.974
    50   1 H    1.002 --    19 C    0.974
    51   1 H    1.002 --    24 C    0.974
    52   1 H    1.003 --    25 C    0.974
    53   1 H    1.002 --    32 C    0.974
    54   1 H    1.013 --    33 C    0.972
    55   1 H    1.013 --    35 C    0.972
    56   1 H    1.002 --    36 C    0.974
    57   1 H    1.003 --    38 C    0.974
    58   1 H    0.998 --    39 C    0.976
    59  30 Zn   1.991 --    99 N    0.457    65 N    0.456    78 N    0.455
                            85 N    0.454
    60   6 C    3.928 --    98 C    1.360    61 C    1.360   100 H    0.971
    61   6 C    3.912 --    60 C    1.360    65 N    1.223    62 C    1.173
    62   6 C    3.960 --    63 C    1.654    61 C    1.173   101 H    0.976
    63   6 C    3.962 --    62 C    1.654    64 C    1.179   102 H    0.974
    64   6 C    3.909 --    65 N    1.264    66 C    1.263    63 C    1.179
    65   7 N    3.292 --    64 C    1.264    61 C    1.223    59 Zn   0.456
    66   6 C    3.931 --    75 C    1.272    64 C    1.263    67 C    1.162
    67   6 C    3.957 --    68 C    2.622    66 C    1.162
    68   6 C    3.931 --    67 C    2.622    69 C    1.143
    69   6 C    3.987 --    70 C    1.349    74 C    1.349    68 C    1.143
    70   6 C    3.973 --    71 C    1.458    69 C    1.349   103 H    0.974
                            73 C    0.103
    71   6 C    3.973 --    70 C    1.458    72 N    1.406   104 H    0.972
                            74 C    0.103
    72   7 N    2.993 --    71 C    1.406    73 C    1.406
    73   6 C    3.973 --    74 C    1.458    72 N    1.406   105 H    0.972
                            70 C    0.103
    74   6 C    3.973 --    73 C    1.458    69 C    1.349   106 H    0.974
                            71 C    0.103
    75   6 C    3.902 --    66 C    1.272    78 N    1.244    76 C    1.187
    76   6 C    3.959 --    77 C    1.640    75 C    1.187   107 H    0.974
    77   6 C    3.961 --    76 C    1.640    79 C    1.189   108 H    0.974
    78   7 N    3.295 --    79 C    1.252    75 C    1.244    59 Zn   0.455
    79   6 C    3.892 --    80 C    1.256    78 N    1.252    77 C    1.189
    80   6 C    3.936 --    81 C    1.257    79 C    1.256   122 C    1.189
    81   6 C    3.892 --    80 C    1.257    85 N    1.252    82 C    1.189
    82   6 C    3.961 --    83 C    1.640    81 C    1.189   109 H    0.974
    83   6 C    3.959 --    82 C    1.640    84 C    1.187   110 H    0.974
    84   6 C    3.902 --    86 C    1.272    85 N    1.244    83 C    1.187
    85   7 N    3.294 --    81 C    1.252    84 C    1.244    59 Zn   0.454
    86   6 C    3.931 --    84 C    1.272    95 C    1.263    87 C    1.162
    87   6 C    3.957 --    88 C    2.622    86 C    1.162
    88   6 C    3.931 --    87 C    2.622    89 C    1.143
    89   6 C    3.987 --    90 C    1.349    94 C    1.349    88 C    1.143
    90   6 C    3.973 --    91 C    1.458    89 C    1.349   111 H    0.974
                            93 C    0.103
    91   6 C    3.973 --    90 C    1.458    92 N    1.406   112 H    0.972
                            94 C    0.103
    92   7 N    2.993 --    91 C    1.406    93 C    1.406
    93   6 C    3.973 --    94 C    1.458    92 N    1.406   113 H    0.972
                            90 C    0.103
    94   6 C    3.973 --    93 C    1.458    89 C    1.349   114 H    0.974
                            91 C    0.103
    95   6 C    3.909 --    99 N    1.264    86 C    1.263    96 C    1.179
    96   6 C    3.962 --    97 C    1.654    95 C    1.179   115 H    0.974
    97   6 C    3.960 --    96 C    1.654    98 C    1.173   116 H    0.976
    98   6 C    3.912 --    60 C    1.360    99 N    1.223    97 C    1.173
    99   7 N    3.292 --    95 C    1.264    98 C    1.223    59 Zn   0.457
   100   1 H    1.001 --    60 C    0.971
   101   1 H    0.998 --    62 C    0.976
   102   1 H    1.003 --    63 C    0.974
   103   1 H    1.002 --    70 C    0.974
   104   1 H    1.013 --    71 C    0.972
   105   1 H    1.013 --    73 C    0.972
   106   1 H    1.002 --    74 C    0.974
   107   1 H    1.003 --    76 C    0.974
   108   1 H    1.002 --    77 C    0.974
   109   1 H    1.002 --    82 C    0.974
   110   1 H    1.003 --    83 C    0.974
   111   1 H    1.002 --    90 C    0.974
   112   1 H    1.013 --    91 C    0.972
   113   1 H    1.013 --    93 C    0.972
   114   1 H    1.002 --    94 C    0.974
   115   1 H    1.003 --    96 C    0.974
   116   1 H    0.998 --    97 C    0.976
   117   6 C    3.925 --   118 C    2.371   121 C    1.333   120 C    0.190
   118   6 C    3.925 --   117 C    2.371   119 C    1.333   122 C    0.190
   119   6 C    3.934 --   120 C    2.452   118 C    1.333
   120   6 C    3.890 --   119 C    2.452    22 C    1.189   117 C    0.190
   121   6 C    3.934 --   122 C    2.452   117 C    1.333
   122   6 C    3.890 --   121 C    2.452    80 C    1.189   118 C    0.190
 ---------------------------------------------------------------------------

           -------------------------------------------------
          | TOTAL ENERGY             -214.208549815296 Eh   |
          | GRADIENT NORM               0.000589146443 Eh/α |
          | HOMO-LUMO GAP               1.112318241599 eV   |
           -------------------------------------------------

 * finished run on 2022/07/30 at 10:55:47.725
