   * xtb version 6.5.1 (b24c23e) compiled by 'conda@728c89f4b128' on 2022-07-12
          program call               : xtb PhCN_C6_2.xyz --gfn 1 --opt -T 48

   ID    Z sym.   atoms
    1    6 C      1-5, 7-12, 14-18, 20-25, 27-32, 34-39, 60-64, 66-71, 73-77,
                  79-84, 86-91, 93-98, 119-124
    2    7 N      6, 13, 19, 26, 33, 40, 65, 72, 78, 85, 92, 99
    3    1 H      41-59, 100-118
########################################################################
[WARNING] Please study the warnings concerning your input carefully
-1- prog_main_parseArguments: Unknown option '-T' provided
########################################################################

          :  Hamiltonian                  GFN1-xTB          :
 * total energy  :  -214.6143570 Eh     change       -0.2413003E-09 Eh
 * total energy  :  -214.7367795 Eh     change       -0.1224225E+00 Eh
 * total energy  :  -214.7960192 Eh     change       -0.5923963E-01 Eh
 * total energy  :  -214.8104921 Eh     change       -0.1447297E-01 Eh
 * total energy  :  -214.8191938 Eh     change       -0.8701671E-02 Eh
 * total energy  :  -214.8237813 Eh     change       -0.4587485E-02 Eh
 * total energy  :  -214.8257076 Eh     change       -0.1926298E-02 Eh
 * total energy  :  -214.8280055 Eh     change       -0.2297938E-02 Eh
 * total energy  :  -214.8288223 Eh     change       -0.8168293E-03 Eh
 * total energy  :  -214.8299944 Eh     change       -0.1172005E-02 Eh
 * total energy  :  -214.8367842 Eh     change       -0.6889316E-05 Eh
 * total energy  :  -214.8367815 Eh     change        0.2677383E-05 Eh
 * total energy  :  -214.8367929 Eh     change       -0.1138489E-04 Eh
 * total energy  :  -214.8367881 Eh     change        0.4766802E-05 Eh
 * total energy  :  -214.8368027 Eh     change       -0.1460456E-04 Eh
 * total energy  :  -214.8368071 Eh     change       -0.4401449E-05 Eh
 * total energy  :  -214.8368130 Eh     change       -0.5862342E-05 Eh
 * total energy  :  -214.8368212 Eh     change       -0.8230473E-05 Eh
 * total energy  :  -214.8368255 Eh     change       -0.4234432E-05 Eh
   *** GEOMETRY OPTIMIZATION CONVERGED AFTER 52 ITERATIONS ***

 final structure:
================
124
 xtb: 6.5.1 (b24c23e)
C           10.98917742627316        0.11160267836842        0.06427952624082
C           11.59723701618686        1.35925209630654        0.01335876527717
C           10.94451675179750        2.62394190010023       -0.00186789090159
C           11.90507675348805        3.59282573756187       -0.07584449516392
C           13.17576208752749        2.95036049771479       -0.11680213097942
N           12.93955890912163        1.60696098232580       -0.04958421860338
C           14.43799851227021        3.55103429604695       -0.18720163333025
C           14.46669679729675        5.02960502375051       -0.28793824665991
C           15.09935205718442        5.79532247956703        0.69422980186728
C           15.12803502664005        7.17523988072740        0.60263924945290
C           14.52484797404183        7.81851240726835       -0.48220524140617
C           14.55542204447698        9.23819948335101       -0.58223154390822
N           14.58095466999892       10.38568166801226       -0.66407861271805
C           13.89120386367024        7.05706840683581       -1.46855531104449
C           13.86181500577126        5.67771935044786       -1.36753427524148
C           15.65524700425107        2.86499650988179       -0.17172715192385
C           16.95070895210256        3.50749553437316       -0.30256476005306
C           17.87281314867943        2.52511995892106       -0.23532583073447
N           15.81151262862578        1.51786225374857       -0.05284557477056
C           17.13921535229620        1.28434368736589       -0.07732358500795
C           17.77850738931932        0.03259727626873        0.03379884273245
C           17.14413520731553       -1.22065606279747        0.12905586343706
C           17.79009715356623       -2.47976277276379        0.24763954516590
C           16.82472621714553       -3.44739265027980        0.28436357457675
C           15.55824653910641       -2.80748714909233        0.18227039301174
N           15.80319561794762       -1.46240870788930        0.10106935513386
C           14.29662996789332       -3.41282176728303        0.19173214965991
C           14.26907191888777       -4.89340555394735        0.24396172942169
C           13.64932456407615       -5.55660525151740        1.30586700551603
C           13.62366916835492       -6.93879782220321        1.35499709929315
C           14.21638252203519       -7.68815136611439        0.33417711210726
C           14.18969586933715       -9.11070838785887        0.37909869953834
N           14.16614201562061      -10.26057779975629        0.41654180275784
C           14.83622088319168       -7.02960451758615       -0.73197866798807
C           14.86302008526988       -5.64723188204862       -0.77155898547612
C           13.07816616270662       -2.72624406355893        0.15222691802967
C           11.77416612989582       -3.37075471248708        0.11803299191442
C           10.85960843911480       -2.38082671147398        0.08997822557033
C           11.60344931048615       -1.13339080288948        0.09137591148351
N           12.93623298533613       -1.38018200186659        0.12086988259589
H            9.90398686702133        0.12044625547706        0.07722960259623
H            9.87595665461416        2.76116583892162        0.04363384368203
H           11.75307942764337        4.65989799723769       -0.09092512708668
H           13.66521504444685        0.89792450326565       -0.04474862210852
H           15.55731423079961        5.30088784645449        1.54338504405954
H           15.61674273042644        7.76241182050623        1.37111799197597
H           13.42606954449129        7.55186366210411       -2.31315837030099
H           13.38207089672283        5.09061041702613       -2.14250140850643
H           17.11139959006371        4.56425593665170       -0.44158981847177
H           18.94637615074722        2.60489173969923       -0.29493605998539
H           18.85789802550898       -2.61723106695628        0.30177681427216
H           16.97350481914749       -4.51014283844822        0.38447601949410
H           15.08024214002666       -0.75338289678359        0.03492963350720
H           13.20039344720702       -4.97970811114094        2.10644882157384
H           13.14591995393394       -7.44591636744877        2.18500719795579
H           15.29326209988953       -7.60673768110369       -1.52731294579010
H           15.33215119473182       -5.14090520226504       -1.60775491364512
H           11.60625684647025       -4.43557302171753        0.10446290838599
H            9.78393029175047       -2.45568206482074        0.05962954293172
C           33.74252238365757       -0.08882734837280        0.09522290032851
C           33.13464315822535       -1.30103741921668        0.39522972427406
C           33.78745156450132       -2.51894400302452        0.73614677138739
C           32.82714903668294       -3.47071843765522        0.93326856774122
C           31.55656176013521       -2.86648269706266        0.71060433804000
N           31.79250298115022       -1.55755510293372        0.40069724940010
C           30.29449582604019       -3.46421780832588        0.80594516707313
C           30.26594751481136       -4.91253083297034        1.11980351444004
C           29.62686559314756       -5.37609768647589        2.27219930007762
C           29.59790461939178       -6.72716796758940        2.56733790369926
C           30.20754632597080       -7.64576883436836        1.70767514737510
C           30.17592694346563       -9.03739263791707        2.00573792910488
N           30.15035023034062      -10.16282699494277        2.24433314284908
C           30.84777671926900       -7.18752796590401        0.55249479640749
C           30.87715268216566       -5.83439414345429        0.26642395122515
C           29.07727371184440       -2.80168424278140        0.62679920403677
C           27.78205489792320       -3.45607397986679        0.67501356940909
C           26.85992758443564       -2.49367868640415        0.46678835650895
N           28.92090036811700       -1.47418871167110        0.36868416483986
C           27.59327597870021       -1.25706161284758        0.27827747353024
C           26.95379747189714       -0.02318568355543        0.04044250014837
C           27.58794520769987        1.20787904375392       -0.21328590569825
C           26.94181164219303        2.45108992943134       -0.44473492128227
C           27.90696237964757        3.39117212149426       -0.67787368468243
C           29.17344255006465        2.74757327644989       -0.60252041975830
N           28.92880255078660        1.43234307560678       -0.30911875490638
C           30.43491692258267        3.33137586802216       -0.76432079952313
C           30.46220158554112        4.76814494294295       -1.12524246118273
C           31.08741964950245        5.69948839158560       -0.29252239172740
C           31.11227810811182        7.04101704211740       -0.62887695266477
C           30.51318496400771        7.47830116064591       -1.81409107197196
C           30.53924115674909        8.85767513612715       -2.16474412094482
N           30.56126407565766        9.97278500035292       -2.44852825572933
C           29.88793492707688        6.55033886950630       -2.65226518781148
C           29.86211794250328        5.21120935867770       -2.30673963758566
C           31.65339495397069        2.66028729568571       -0.61407552684156
C           32.95729732467262        3.26898637615137       -0.82925851194437
C           33.87189223021586        2.31057163895592       -0.58002895888361
C           33.12816396466332        1.11364505060110       -0.22837593001701
N           31.79539383951325        1.35907789495814       -0.26808629142772
H           34.82770888367388       -0.09328105194924        0.11128393787043
H           34.85588138337059       -2.63701697775147        0.82130915523658
H           32.97924452426358       -4.49927086947510        1.21771694264444
H           31.06676796672692       -0.87605084040801        0.20529875535787
H           29.16397571831945       -4.66579361328545        2.94780635252663
H           29.10391607128476       -7.07834609464391        3.46557391487067
H           31.31795666485175       -7.89690457224561       -0.11852040531225
H           31.36178990492403       -5.48518872085817       -0.63839261187451
H           27.62146638663573       -4.51030047905905        0.83218543380314
H           25.78651759188237       -2.58740293624336        0.42893339081304
H           25.87404751191173        2.59842234012188       -0.42849155887866
H           27.75798775155203        4.44048153035178       -0.87368280339284
H           29.65189211528700        0.73249035439804       -0.17846896793235
H           31.54103146833930        5.36717785181554        0.63438724037189
H           31.59449247490329        7.75805290145928        0.02512235137294
H           29.42607266397540        6.88456142834681       -3.57393670903637
H           29.38885552494317        4.49311484589450       -2.96704725198821
H           33.12515549629823        4.28722217272219       -1.14108555078114
H           34.94752031758317        2.37362539099372       -0.63154160237983
C           22.98037691124321        0.00507577821645        0.05347215163218
C           21.75193999492209        0.00730625820250        0.05374073257922
C           20.40789421878240        0.01090932946195        0.04916832294112
C           19.18384220813688        0.02040576588533        0.04220992199921
C           24.32439669643558        0.00051247942734        0.04962861035915
C           25.54843613876423       -0.00918683932218        0.04525291651582

          :  Hamiltonian                  GFN1-xTB          :
         :: total energy            -214.836825477562 Eh    ::
         :: gradient norm              0.000917472394 Eh/a0 ::
         :: HOMO-LUMO gap              1.024504094403 eV    ::
         :: SCC energy              -218.628854577187 Eh    ::
         :: repulsion energy           3.897693170768 Eh    ::

    * Orbital Energies and Occupations

         #    Occupation            Energy/Eh            Energy/eV
      -------------------------------------------------------------
         1        2.0000           -0.8154064             -22.1883
       ...           ...                  ...                  ...
       185        2.0000           -0.4329827             -11.7821
       186        2.0000           -0.4317371             -11.7482
       187        2.0000           -0.4309856             -11.7277
       188        2.0000           -0.4282561             -11.6534
       189        2.0000           -0.4280865             -11.6488
       190        2.0000           -0.4268510             -11.6152
       191        2.0000           -0.4264172             -11.6034
       192        2.0000           -0.4258892             -11.5890
       193        2.0000           -0.4234412             -11.5224
       194        2.0000           -0.4102384             -11.1632
       195        2.0000           -0.4099431             -11.1551
       196        2.0000           -0.3991885             -10.8625
       197        2.0000           -0.3898613             -10.6087 (HOMO)
       198                         -0.3522115              -9.5842 (LUMO)
       199                         -0.3441991              -9.3661
       200                         -0.3437111              -9.3529
       201                         -0.3406153              -9.2686
       202                         -0.3160692              -8.6007
       203                         -0.3121639              -8.4944
       204                         -0.3038774              -8.2689
       205                         -0.3038069              -8.2670
       206                         -0.3008075              -8.1854
       207                         -0.2972813              -8.0894
       208                         -0.2942209              -8.0062
       ...                                ...                  ...
       420                          1.5696275              42.7117
      -------------------------------------------------------------
                  HL-Gap            0.0376498 Eh            1.0245 eV

Wiberg/Mayer (AO) data.
largest (>0.10) Wiberg bond orders for each atom

     #   Z sym  total        # sym  WBO       # sym  WBO       # sym  WBO
 ---------------------------------------------------------------------------
     1   6 C    3.926 --    39 C    1.367     2 C    1.347    41 H    0.971
     2   6 C    3.901 --     1 C    1.347     3 C    1.229     6 N    1.169
     3   6 C    3.953 --     4 C    1.596     2 C    1.229    42 H    0.976
     4   6 C    3.959 --     3 C    1.596     5 C    1.233    43 H    0.974
     5   6 C    3.896 --     7 C    1.302     4 C    1.233     6 N    1.179
     6   7 N    3.470 --     5 C    1.179     2 C    1.169    44 H    0.873
     7   6 C    3.938 --    16 C    1.333     5 C    1.302     8 C    1.032
     8   6 C    3.963 --    15 C    1.385     9 C    1.384     7 C    1.032
     9   6 C    3.988 --    10 C    1.464     8 C    1.384    45 H    0.971
                            14 C    0.102
    10   6 C    3.993 --     9 C    1.464    11 C    1.364    46 H    0.972
                            15 C    0.102
    11   6 C    3.984 --    14 C    1.364    10 C    1.364    12 C    1.098
    12   6 C    3.958 --    13 N    2.820    11 C    1.098
    13   7 N    2.973 --    12 C    2.820
    14   6 C    3.993 --    15 C    1.464    11 C    1.364    47 H    0.972
                             9 C    0.102
    15   6 C    3.987 --    14 C    1.464     8 C    1.385    48 H    0.971
                            10 C    0.102
    16   6 C    3.914 --     7 C    1.333    19 N    1.287    17 C    1.125
    17   6 C    3.965 --    18 C    1.710    16 C    1.125    49 H    0.973
    18   6 C    3.963 --    17 C    1.710    20 C    1.128    50 H    0.974
    19   7 N    3.022 --    20 C    1.344    16 C    1.287
    20   6 C    3.907 --    19 N    1.344    21 C    1.254    18 C    1.128
    21   6 C    3.937 --    20 C    1.254    22 C    1.251   122 C    1.192
    22   6 C    3.884 --    21 C    1.251    23 C    1.249    26 N    1.189
    23   6 C    3.959 --    24 C    1.583    22 C    1.249    51 H    0.975
    24   6 C    3.954 --    23 C    1.583    25 C    1.240    52 H    0.974
    25   6 C    3.898 --    27 C    1.307    24 C    1.240    26 N    1.167
    26   7 N    3.475 --    22 C    1.189    25 C    1.167    53 H    0.873
    27   6 C    3.924 --    36 C    1.320    25 C    1.307    28 C    1.034
    28   6 C    3.963 --    29 C    1.384    35 C    1.384    27 C    1.034
    29   6 C    3.987 --    30 C    1.464    28 C    1.384    54 H    0.971
                            34 C    0.102
    30   6 C    3.993 --    29 C    1.464    31 C    1.364    55 H    0.972
                            35 C    0.102
    31   6 C    3.983 --    30 C    1.364    34 C    1.364    32 C    1.098
    32   6 C    3.958 --    33 N    2.819    31 C    1.098
    33   7 N    2.973 --    32 C    2.819
    34   6 C    3.993 --    35 C    1.464    31 C    1.364    56 H    0.972
                            29 C    0.102
    35   6 C    3.986 --    34 C    1.464    28 C    1.384    57 H    0.971
                            30 C    0.102
    36   6 C    3.928 --    27 C    1.320    40 N    1.318    37 C    1.117
    37   6 C    3.967 --    38 C    1.724    36 C    1.117    58 H    0.973
    38   6 C    3.966 --    37 C    1.724    39 C    1.116    59 H    0.976
    39   6 C    3.928 --     1 C    1.367    40 N    1.299    38 C    1.116
    40   7 N    3.012 --    36 C    1.318    39 C    1.299
    41   1 H    1.002 --     1 C    0.971
    42   1 H    0.997 --     3 C    0.976
    43   1 H    1.004 --     4 C    0.974
    44   1 H    0.986 --     6 N    0.873
    45   1 H    1.004 --     9 C    0.971
    46   1 H    1.000 --    10 C    0.972
    47   1 H    1.000 --    14 C    0.972
    48   1 H    1.003 --    15 C    0.971
    49   1 H    1.004 --    17 C    0.973
    50   1 H    1.003 --    18 C    0.974
    51   1 H    1.002 --    23 C    0.975
    52   1 H    1.004 --    24 C    0.974
    53   1 H    0.987 --    26 N    0.873
    54   1 H    1.004 --    29 C    0.971
    55   1 H    1.000 --    30 C    0.972
    56   1 H    1.000 --    34 C    0.972
    57   1 H    1.003 --    35 C    0.971
    58   1 H    1.004 --    37 C    0.973
    59   1 H    0.998 --    38 C    0.976
    60   6 C    3.926 --    98 C    1.367    61 C    1.347   100 H    0.971
    61   6 C    3.901 --    60 C    1.347    62 C    1.229    65 N    1.169
    62   6 C    3.953 --    63 C    1.596    61 C    1.229   101 H    0.976
    63   6 C    3.959 --    62 C    1.596    64 C    1.233   102 H    0.974
    64   6 C    3.896 --    66 C    1.301    63 C    1.233    65 N    1.179
    65   7 N    3.470 --    64 C    1.179    61 C    1.169   103 H    0.873
    66   6 C    3.938 --    75 C    1.333    64 C    1.301    67 C    1.033
    67   6 C    3.963 --    74 C    1.385    68 C    1.384    66 C    1.033
    68   6 C    3.988 --    69 C    1.464    67 C    1.384   104 H    0.971
                            73 C    0.102
    69   6 C    3.993 --    68 C    1.464    70 C    1.364   105 H    0.972
                            74 C    0.102
    70   6 C    3.984 --    73 C    1.364    69 C    1.364    71 C    1.098
    71   6 C    3.958 --    72 N    2.820    70 C    1.098
    72   7 N    2.973 --    71 C    2.820
    73   6 C    3.993 --    74 C    1.464    70 C    1.364   106 H    0.972
                            68 C    0.102
    74   6 C    3.987 --    73 C    1.464    67 C    1.385   107 H    0.971
                            69 C    0.102
    75   6 C    3.914 --    66 C    1.333    78 N    1.287    76 C    1.125
    76   6 C    3.965 --    77 C    1.710    75 C    1.125   108 H    0.973
    77   6 C    3.963 --    76 C    1.710    79 C    1.128   109 H    0.974
    78   7 N    3.022 --    79 C    1.344    75 C    1.287
    79   6 C    3.907 --    78 N    1.344    80 C    1.254    77 C    1.128
    80   6 C    3.937 --    79 C    1.254    81 C    1.251   124 C    1.192
    81   6 C    3.884 --    80 C    1.251    82 C    1.249    85 N    1.189
    82   6 C    3.959 --    83 C    1.583    81 C    1.249   110 H    0.975
    83   6 C    3.954 --    82 C    1.583    84 C    1.240   111 H    0.974
    84   6 C    3.898 --    86 C    1.307    83 C    1.240    85 N    1.167
    85   7 N    3.475 --    81 C    1.189    84 C    1.167   112 H    0.873
    86   6 C    3.924 --    95 C    1.320    84 C    1.307    87 C    1.034
    87   6 C    3.963 --    94 C    1.384    88 C    1.384    86 C    1.034
    88   6 C    3.987 --    89 C    1.464    87 C    1.384   113 H    0.971
                            93 C    0.102
    89   6 C    3.993 --    88 C    1.464    90 C    1.364   114 H    0.972
                            94 C    0.102
    90   6 C    3.983 --    89 C    1.364    93 C    1.364    91 C    1.098
    91   6 C    3.958 --    92 N    2.819    90 C    1.098
    92   7 N    2.972 --    91 C    2.819
    93   6 C    3.993 --    94 C    1.464    90 C    1.364   115 H    0.972
                            88 C    0.102
    94   6 C    3.986 --    93 C    1.464    87 C    1.384   116 H    0.971
                            89 C    0.102
    95   6 C    3.928 --    86 C    1.320    99 N    1.318    96 C    1.117
    96   6 C    3.967 --    97 C    1.724    95 C    1.117   117 H    0.973
    97   6 C    3.966 --    96 C    1.724    98 C    1.116   118 H    0.976
    98   6 C    3.928 --    60 C    1.367    99 N    1.299    97 C    1.116
    99   7 N    3.012 --    95 C    1.318    98 C    1.299
   100   1 H    1.002 --    60 C    0.971
   101   1 H    0.997 --    62 C    0.976
   102   1 H    1.004 --    63 C    0.974
   103   1 H    0.986 --    65 N    0.873
   104   1 H    1.004 --    68 C    0.971
   105   1 H    1.000 --    69 C    0.972
   106   1 H    1.000 --    73 C    0.972
   107   1 H    1.003 --    74 C    0.971
   108   1 H    1.004 --    76 C    0.973
   109   1 H    1.003 --    77 C    0.974
   110   1 H    1.002 --    82 C    0.975
   111   1 H    1.004 --    83 C    0.974
   112   1 H    0.987 --    85 N    0.873
   113   1 H    1.004 --    88 C    0.971
   114   1 H    1.000 --    89 C    0.972
   115   1 H    1.000 --    93 C    0.972
   116   1 H    1.004 --    94 C    0.971
   117   1 H    1.004 --    96 C    0.973
   118   1 H    0.998 --    97 C    0.976
   119   6 C    3.925 --   120 C    2.367   123 C    1.336   122 C    0.190
   120   6 C    3.925 --   119 C    2.367   121 C    1.336   124 C    0.190
   121   6 C    3.932 --   122 C    2.447   120 C    1.336
   122   6 C    3.891 --   121 C    2.447    21 C    1.192   119 C    0.190
   123   6 C    3.932 --   124 C    2.447   119 C    1.336
   124   6 C    3.891 --   123 C    2.447    80 C    1.192   120 C    0.190
 ---------------------------------------------------------------------------

           -------------------------------------------------
          | TOTAL ENERGY             -214.836825477562 Eh   |
          | GRADIENT NORM               0.000917472394 Eh/α |
          | HOMO-LUMO GAP               1.024504094403 eV   |
           -------------------------------------------------

 * finished run on 2022/07/27 at 19:33:09.298
