   * xtb version 6.5.1 (b24c23e) compiled by 'conda@728c89f4b128' on 2022-07-12
          program call               : xtb PhOH_C6_2.xyz --gfn 1 --opt -T 48

   ID    Z sym.   atoms
    1    6 C      1-5, 7-11, 13-17, 19-24, 26-30, 32-37, 60-64, 66-70, 72-76,
                  78-83, 85-89, 91-96, 119-124
    2    7 N      6, 18, 25, 38, 65, 77, 84, 97
    3    8 O      12, 31, 71, 90
    4    1 H      39-59, 98-118
########################################################################
[WARNING] Please study the warnings concerning your input carefully
-1- prog_main_parseArguments: Unknown option '-T' provided
########################################################################

          :  Hamiltonian                  GFN1-xTB          :
 * total energy  :  -214.2507954 Eh     change       -0.1517776E-08 Eh
 * total energy  :  -214.5889382 Eh     change       -0.3381428E+00 Eh
 * total energy  :  -214.6733014 Eh     change       -0.8436324E-01 Eh
 * total energy  :  -214.7059583 Eh     change       -0.3265691E-01 Eh
 * total energy  :  -214.7059583 Eh     change       -0.7185008E-10 Eh
 * total energy  :  -214.7171297 Eh     change       -0.1117134E-01 Eh
 * total energy  :  -214.7235648 Eh     change       -0.6435123E-02 Eh
 * total energy  :  -214.7259833 Eh     change       -0.2418545E-02 Eh
 * total energy  :  -214.7275755 Eh     change       -0.1592214E-02 Eh
 * total energy  :  -214.7289817 Eh     change       -0.1406173E-02 Eh
 * total energy  :  -214.7376395 Eh     change       -0.2493137E-04 Eh
 * total energy  :  -214.7376601 Eh     change       -0.2062105E-04 Eh
 * total energy  :  -214.7376774 Eh     change       -0.1722285E-04 Eh
 * total energy  :  -214.7376924 Eh     change       -0.1502151E-04 Eh
 * total energy  :  -214.7377027 Eh     change       -0.1029473E-04 Eh
 * total energy  :  -214.7377107 Eh     change       -0.8053440E-05 Eh
 * total energy  :  -214.7377185 Eh     change       -0.7713350E-05 Eh
 * total energy  :  -214.7377237 Eh     change       -0.5221196E-05 Eh
 * total energy  :  -214.7377279 Eh     change       -0.4190400E-05 Eh
   *** GEOMETRY OPTIMIZATION CONVERGED AFTER 49 ITERATIONS ***

 final structure:
================
124
 xtb: 6.5.1 (b24c23e)
C           10.36746458668620        0.13073029432301        0.03727842600689
C           10.97437640699175        1.26232290581860       -0.49225295572517
C           10.31944092224937        2.40743574379135       -1.02629935434368
C           11.27968328374873        3.29314960351767       -1.42760925273130
C           12.55265063265631        2.72216698984034       -1.14190570635000
N           12.31730362909890        1.49491815879400       -0.58953965192898
C           13.81473170644677        3.27807447633453       -1.38176192503300
C           13.84483053132331        4.64227639221793       -1.96312425244436
C           14.45739093922733        4.87371923176629       -3.19535138479502
C           14.48551663965583        6.14588721833542       -3.74516221885213
C           13.90207988740610        7.20849370576350       -3.05898896439158
O           13.90872272340370        8.47092622890789       -3.55928626503691
C           13.28997280428257        6.99202347466291       -1.82574188956603
C           13.26099382825674        5.71739942499941       -1.28825853165396
C           15.03059721436797        2.64520982360594       -1.11143025294488
C           16.32827648073565        3.26730964187419       -1.30260788360759
C           17.24923181233068        2.35115270242727       -0.93790665152737
N           15.18534433585221        1.38453000548709       -0.62023988281720
C           16.51297772849838        1.17592325419532       -0.51501716236065
C           17.15079043326137        0.00046148695983       -0.06808040638492
C           16.51625073412341       -1.16365776195326        0.40593521658519
C           17.16088932050881       -2.35816863138062        0.82236184775188
C           16.19596662934467       -3.24086616074459        1.22237903057648
C           14.93151999742257       -2.60734384623759        1.07137462161320
N           15.17682359955090       -1.35816448848156        0.56458773400096
C           13.67182765102936       -3.14406403831173        1.35968595602571
C           13.64345121308373       -4.50665890783303        1.94300702127739
C           14.28407783415395       -4.77526344346595        3.15555498824213
C           14.25955640979581       -6.04477067205521        3.70485943359277
C           13.59455304005847       -7.07314999367753        3.03949619811593
O           13.59423736785465       -8.30807462869478        3.60425661890451
C           12.95403437266043       -6.82169223679117        1.82838579152772
C           12.97809727234043       -5.54476951019735        1.28947639534434
C           12.45585527866255       -2.48827031724398        1.13773482728055
C           11.15508094310412       -3.03148674568666        1.49623958869376
C           10.24059078897666       -2.11511954280291        1.11898818781517
C           10.98203367664310       -1.00738830012499        0.54314019607245
N           12.31290749589459       -1.26277472281418        0.57947172507366
H            9.28235620540071        0.14822476562409        0.05713951740911
H            9.24945235627704        2.52353409287895       -1.09424245481100
H           11.12535632056631        4.25480973620967       -1.88961683573843
H           13.04442244260843        0.85001648005341       -0.29843337936751
H           14.90028673437208        4.04521462694385       -3.73667030427110
H           14.95752360989536        6.31809300923308       -4.70646367567812
H           14.36171334979616        8.50955885274380       -4.41245389507105
H           12.84536363648248        7.82844000147574       -1.30073721770104
H           12.79856480530094        5.55313986372570       -0.32134716280643
H           16.49125489396188        4.27403851667763       -1.65182902068398
H           18.32375061870674        2.44096192766247       -0.93620947107042
H           18.22737251385270       -2.51528686195795        0.80773911626295
H           16.34397833582098       -4.24683884552894        1.57970979242083
H           14.45462795127589       -0.68268081875264        0.33714079728628
H           14.78883909237418       -3.97262641080802        3.68169205828141
H           14.74903100020084       -6.25338340262603        4.64815122108780
H           13.10031140889694       -8.94155728569164        3.06671905071510
H           12.44142202706719       -7.62596890431909        1.31156631815259
H           12.49143194796994       -5.35428009829059        0.33942736622908
H           10.98933286358795       -3.97876267938657        1.98376662162538
H            9.16687731228634       -2.15201543780350        1.21745479139063
C           33.10729515394419       -0.04038282412904        0.12998489414529
C           32.50051422979441       -1.09816698298685        0.79498489161535
C           33.15556651294663       -2.16736587576802        1.46806570668713
C           32.19541655980306       -2.98432827067674        1.99565642510968
C           30.92245031313532       -2.43460887747393        1.67111700366535
N           31.15762793443259       -1.30572521519502        0.93837261297762
C           29.66032417113151       -2.93650537719415        2.00972142857132
C           29.63022717221541       -4.16320774471520        2.84286556239479
C           29.01628818072210       -5.32448283645000        2.37200530512115
C           28.98884332589777       -6.47503941530671        3.14464240741221
C           29.57428417239025       -6.47297215893620        4.40860413751480
O           29.56870610605081       -7.57672934124950        5.19962738469104
C           30.18740862414290       -5.31879763615492        4.89279699714082
C           30.21576292107236       -4.17732811702859        4.11139090036906
C           28.44464481289243       -2.36619120980205        1.62415462318610
C           27.14693797225884       -2.86226399544758        2.04513482668677
C           26.22615368282267       -2.06004234561708        1.47145130136167
N           28.29014138287502       -1.27183322916683        0.82846214855606
C           26.96261021707738       -1.06988188011529        0.71035021356888
C           26.32498361835250       -0.05815344420486       -0.03679688994586
C           26.95945959195289        0.97057217223036       -0.75905086162411
C           26.31450775122506        1.96820395656908       -1.53662119473328
C           27.27919239935097        2.78268849377644       -2.06220420934372
C           28.54388651145424        2.31218860015864       -1.61253871738511
N           28.29886966728070        1.20920121498096       -0.83733642185123
C           29.80362959056689        2.84483600139931       -1.90823912705993
C           29.83207231902071        4.07293402505928       -2.73810986744311
C           29.19079503363350        5.23768971077763       -2.30803772542032
C           29.21469324375382        6.38651703939454       -3.07849153282037
C           29.87990796965296        6.38381976282578       -4.30323381121463
O           29.87933587598940        7.52682234055833       -5.03637189423350
C           30.52145849278714        5.22972375660664       -4.74676534425516
C           30.49783153774291        4.08556280133053       -3.96454376638413
C           31.01953449054173        2.30259573478586       -1.47739849588324
C           32.32056551230195        2.89738272425352       -1.74051486507082
C           33.23474171144112        2.08404082587784       -1.17387249988071
C           32.49290835972630        1.00081656581515       -0.55358638139483
N           31.16207386489836        1.17006838965230       -0.74873996137808
H           34.19240598034983       -0.03312708192825        0.15547433603963
H           34.22555789592680       -2.28756224831157        1.52834190019517
H           32.34981439788302       -3.89370448633480        2.55353634613800
H           30.43028397484541       -0.71175413236193        0.55431294707179
H           28.57186767267352       -5.33143185725717        1.38306756405688
H           28.51596380632752       -7.37655023095445        2.77020894390893
H           29.11375666113587       -8.31469277053371        4.77194454327563
H           30.63329206417701       -5.32975271865690        5.87966952120571
H           30.67907135341918       -3.27537359888707        4.49556779125634
H           26.98389076230781       -3.69951075210097        2.70422786306151
H           25.15166819622610       -2.10637753383649        1.54868415343709
H           25.24794344682603        2.04140125126199       -1.67571529184603
H           27.13075935539088        3.62844961478306       -2.71353882710196
H           29.02138816888525        0.65182279268518       -0.39360455218556
H           28.68598591449496        5.24572570652018       -1.34838125469079
H           28.72449784451647        7.29232951045823       -2.74368486594219
H           30.37439378816633        7.41827898135248       -5.85934853526510
H           31.03443377795096        5.23062623697134       -5.70258626472527
H           30.98512003746755        3.18386814109015       -4.31837805925428
H           32.48680648208255        3.81968609099817       -2.27363628386248
H           34.30850989429414        2.18631358830648       -1.15177834346923
C           22.35206727524766       -0.06196628712837       -0.10019765802328
C           21.12359931811638       -0.05765051833231       -0.10471202620934
C           19.77970308474526       -0.04418469657959       -0.10035392331271
C           18.55583760699135       -0.02238475099890       -0.08690720609675
C           23.69601694816172       -0.06319515674168       -0.08948797136954
C           24.91992572564070       -0.06198037540654       -0.06588949536035

          :  Hamiltonian                  GFN1-xTB          :
         :: total energy            -214.737727864732 Eh    ::
         :: gradient norm              0.000601765572 Eh/a0 ::
         :: HOMO-LUMO gap              1.002922109725 eV    ::
         :: SCC energy              -218.175521835466 Eh    ::
         :: repulsion energy           3.540338050684 Eh    ::

    * Orbital Energies and Occupations

         #    Occupation            Energy/Eh            Energy/eV
      -------------------------------------------------------------
         1        2.0000           -0.8055498             -21.9201
       ...           ...                  ...                  ...
       181        2.0000           -0.4191770             -11.4064
       182        2.0000           -0.4176673             -11.3653
       183        2.0000           -0.4170477             -11.3484
       184        2.0000           -0.4151335             -11.2964
       185        2.0000           -0.4149445             -11.2912
       186        2.0000           -0.4139017             -11.2628
       187        2.0000           -0.4136351             -11.2556
       188        2.0000           -0.4130943             -11.2409
       189        2.0000           -0.4112353             -11.1903
       190        2.0000           -0.3972065             -10.8085
       191        2.0000           -0.3968320             -10.7983
       192        2.0000           -0.3847778             -10.4703
       193        2.0000           -0.3760514             -10.2329 (HOMO)
       194                         -0.3391947              -9.2300 (LUMO)
       195                         -0.3293589              -8.9623
       196                         -0.3289007              -8.9498
       197                         -0.3279157              -8.9230
       198                         -0.2992452              -8.1429
       199                         -0.2922027              -7.9512
       200                         -0.2822019              -7.6791
       201                         -0.2674699              -7.2782
       202                         -0.2674666              -7.2781
       203                         -0.2672314              -7.2717
       204                         -0.2672190              -7.2714
       ...                                ...                  ...
       412                          1.5815064              43.0350
      -------------------------------------------------------------
                  HL-Gap            0.0368567 Eh            1.0029 eV

Wiberg/Mayer (AO) data.
largest (>0.10) Wiberg bond orders for each atom

     #   Z sym  total        # sym  WBO       # sym  WBO       # sym  WBO
 ---------------------------------------------------------------------------
     1   6 C    3.924 --    37 C    1.365     2 C    1.346    39 H    0.971
     2   6 C    3.903 --     1 C    1.346     3 C    1.230     6 N    1.170
     3   6 C    3.953 --     4 C    1.594     2 C    1.230    40 H    0.977
     4   6 C    3.959 --     3 C    1.594     5 C    1.235    41 H    0.974
     5   6 C    3.895 --     7 C    1.302     4 C    1.235     6 N    1.177
     6   7 N    3.469 --     5 C    1.177     2 C    1.170    42 H    0.873
     7   6 C    3.939 --    15 C    1.335     5 C    1.302     8 C    1.031
     8   6 C    3.989 --     9 C    1.392    14 C    1.383     7 C    1.031
     9   6 C    3.988 --    10 C    1.453     8 C    1.392    43 H    0.972
                            13 C    0.105
    10   6 C    3.988 --     9 C    1.453    11 C    1.371    44 H    0.970
                            14 C    0.102
    11   6 C    3.900 --    10 C    1.371    13 C    1.364    12 O    1.040
    12   8 O    2.043 --    11 C    1.040    45 H    0.865
    13   6 C    3.990 --    14 C    1.466    11 C    1.364    46 H    0.971
                             9 C    0.105
    14   6 C    3.987 --    13 C    1.466     8 C    1.383    47 H    0.973
                            10 C    0.102
    15   6 C    3.914 --     7 C    1.335    18 N    1.285    16 C    1.126
    16   6 C    3.966 --    17 C    1.708    15 C    1.126    48 H    0.974
    17   6 C    3.964 --    16 C    1.708    19 C    1.129    49 H    0.974
    18   7 N    3.022 --    19 C    1.345    15 C    1.285
    19   6 C    3.909 --    18 N    1.345    20 C    1.253    17 C    1.129
    20   6 C    3.936 --    19 C    1.253    21 C    1.250   122 C    1.192
    21   6 C    3.885 --    20 C    1.250    22 C    1.250    25 N    1.190
    22   6 C    3.959 --    23 C    1.582    21 C    1.250    50 H    0.975
    23   6 C    3.955 --    22 C    1.582    24 C    1.242    51 H    0.974
    24   6 C    3.898 --    26 C    1.309    23 C    1.242    25 N    1.165
    25   7 N    3.474 --    21 C    1.190    24 C    1.165    52 H    0.873
    26   6 C    3.925 --    34 C    1.320    24 C    1.309    27 C    1.033
    27   6 C    3.989 --    33 C    1.392    28 C    1.382    26 C    1.033
    28   6 C    3.986 --    29 C    1.467    27 C    1.382    53 H    0.973
                            32 C    0.102
    29   6 C    3.990 --    28 C    1.467    30 C    1.364    54 H    0.971
                            33 C    0.105
    30   6 C    3.900 --    32 C    1.371    29 C    1.364    31 O    1.040
    31   8 O    2.043 --    30 C    1.040    55 H    0.865
    32   6 C    3.988 --    33 C    1.453    30 C    1.371    56 H    0.970
                            28 C    0.102
    33   6 C    3.987 --    32 C    1.453    27 C    1.392    57 H    0.972
                            29 C    0.105
    34   6 C    3.928 --    26 C    1.320    38 N    1.317    35 C    1.119
    35   6 C    3.967 --    36 C    1.721    34 C    1.119    58 H    0.974
    36   6 C    3.966 --    35 C    1.721    37 C    1.118    59 H    0.976
    37   6 C    3.930 --     1 C    1.365    38 N    1.300    36 C    1.118
    38   7 N    3.011 --    34 C    1.317    37 C    1.300
    39   1 H    1.002 --     1 C    0.971
    40   1 H    0.998 --     3 C    0.977
    41   1 H    1.005 --     4 C    0.974
    42   1 H    0.986 --     6 N    0.873
    43   1 H    1.005 --     9 C    0.972
    44   1 H    0.999 --    10 C    0.970
    45   1 H    0.887 --    12 O    0.865
    46   1 H    0.999 --    13 C    0.971
    47   1 H    1.005 --    14 C    0.973
    48   1 H    1.005 --    16 C    0.974
    49   1 H    1.003 --    17 C    0.974
    50   1 H    1.002 --    22 C    0.975
    51   1 H    1.005 --    23 C    0.974
    52   1 H    0.987 --    25 N    0.873
    53   1 H    1.005 --    28 C    0.973
    54   1 H    0.999 --    29 C    0.971
    55   1 H    0.887 --    31 O    0.865
    56   1 H    0.999 --    32 C    0.970
    57   1 H    1.005 --    33 C    0.972
    58   1 H    1.005 --    35 C    0.974
    59   1 H    0.998 --    36 C    0.976
    60   6 C    3.924 --    96 C    1.365    61 C    1.346    98 H    0.971
    61   6 C    3.903 --    60 C    1.346    62 C    1.230    65 N    1.170
    62   6 C    3.953 --    63 C    1.594    61 C    1.230    99 H    0.977
    63   6 C    3.959 --    62 C    1.594    64 C    1.236   100 H    0.974
    64   6 C    3.895 --    66 C    1.302    63 C    1.236    65 N    1.177
    65   7 N    3.469 --    64 C    1.177    61 C    1.170   101 H    0.873
    66   6 C    3.939 --    74 C    1.335    64 C    1.302    67 C    1.031
    67   6 C    3.989 --    68 C    1.392    73 C    1.383    66 C    1.031
    68   6 C    3.988 --    69 C    1.453    67 C    1.392   102 H    0.972
                            72 C    0.105
    69   6 C    3.988 --    68 C    1.453    70 C    1.371   103 H    0.970
                            73 C    0.102
    70   6 C    3.900 --    69 C    1.371    72 C    1.364    71 O    1.040
    71   8 O    2.043 --    70 C    1.040   104 H    0.865
    72   6 C    3.990 --    73 C    1.467    70 C    1.364   105 H    0.971
                            68 C    0.105
    73   6 C    3.987 --    72 C    1.467    67 C    1.383   106 H    0.973
                            69 C    0.102
    74   6 C    3.914 --    66 C    1.335    77 N    1.285    75 C    1.126
    75   6 C    3.966 --    76 C    1.708    74 C    1.126   107 H    0.974
    76   6 C    3.964 --    75 C    1.708    78 C    1.129   108 H    0.974
    77   7 N    3.022 --    78 C    1.345    74 C    1.285
    78   6 C    3.909 --    77 N    1.345    79 C    1.252    76 C    1.129
    79   6 C    3.936 --    78 C    1.252    80 C    1.250   124 C    1.192
    80   6 C    3.885 --    79 C    1.250    81 C    1.250    84 N    1.190
    81   6 C    3.959 --    82 C    1.582    80 C    1.250   109 H    0.975
    82   6 C    3.955 --    81 C    1.582    83 C    1.242   110 H    0.974
    83   6 C    3.898 --    85 C    1.309    82 C    1.242    84 N    1.165
    84   7 N    3.474 --    80 C    1.190    83 C    1.165   111 H    0.873
    85   6 C    3.925 --    93 C    1.320    83 C    1.309    86 C    1.033
    86   6 C    3.988 --    92 C    1.392    87 C    1.382    85 C    1.033
    87   6 C    3.986 --    88 C    1.467    86 C    1.382   112 H    0.973
                            91 C    0.102
    88   6 C    3.990 --    87 C    1.467    89 C    1.364   113 H    0.971
                            92 C    0.105
    89   6 C    3.900 --    91 C    1.371    88 C    1.364    90 O    1.040
    90   8 O    2.043 --    89 C    1.040   114 H    0.865
    91   6 C    3.988 --    92 C    1.453    89 C    1.371   115 H    0.970
                            87 C    0.102
    92   6 C    3.987 --    91 C    1.453    86 C    1.392   116 H    0.972
                            88 C    0.105
    93   6 C    3.928 --    85 C    1.320    97 N    1.318    94 C    1.119
    94   6 C    3.967 --    95 C    1.721    93 C    1.119   117 H    0.974
    95   6 C    3.966 --    94 C    1.721    96 C    1.118   118 H    0.976
    96   6 C    3.930 --    60 C    1.365    97 N    1.300    95 C    1.118
    97   7 N    3.011 --    93 C    1.318    96 C    1.300
    98   1 H    1.002 --    60 C    0.971
    99   1 H    0.998 --    62 C    0.977
   100   1 H    1.005 --    63 C    0.974
   101   1 H    0.986 --    65 N    0.873
   102   1 H    1.005 --    68 C    0.972
   103   1 H    0.999 --    69 C    0.970
   104   1 H    0.887 --    71 O    0.865
   105   1 H    0.999 --    72 C    0.971
   106   1 H    1.005 --    73 C    0.973
   107   1 H    1.005 --    75 C    0.974
   108   1 H    1.003 --    76 C    0.974
   109   1 H    1.002 --    81 C    0.975
   110   1 H    1.005 --    82 C    0.974
   111   1 H    0.987 --    84 N    0.873
   112   1 H    1.005 --    87 C    0.973
   113   1 H    0.999 --    88 C    0.971
   114   1 H    0.887 --    90 O    0.865
   115   1 H    0.999 --    91 C    0.970
   116   1 H    1.005 --    92 C    0.972
   117   1 H    1.005 --    94 C    0.974
   118   1 H    0.998 --    95 C    0.976
   119   6 C    3.925 --   120 C    2.366   123 C    1.336   122 C    0.190
   120   6 C    3.925 --   119 C    2.366   121 C    1.336   124 C    0.190
   121   6 C    3.931 --   122 C    2.446   120 C    1.336
   122   6 C    3.890 --   121 C    2.446    20 C    1.192   119 C    0.190
   123   6 C    3.931 --   124 C    2.446   119 C    1.336
   124   6 C    3.890 --   123 C    2.446    79 C    1.192   120 C    0.190
 ---------------------------------------------------------------------------

           -------------------------------------------------
          | TOTAL ENERGY             -214.737727864732 Eh   |
          | GRADIENT NORM               0.000601765572 Eh/α |
          | HOMO-LUMO GAP               1.002922109725 eV   |
           -------------------------------------------------

 * finished run on 2022/07/28 at 20:41:35.631
