   * xtb version 6.5.1 (b24c23e) compiled by 'conda@728c89f4b128' on 2022-07-12
          program call               : xtb Zn_PhOH_C4_3.xyz --gfn 1 --opt -T 48

   ID    Z sym.   atoms
    1   30 Zn     1, 59, 125
    2    6 C      2-6, 8-12, 14-18, 20-25, 27-31, 33-38, 60-64, 66-70, 72-76,
                  78-83, 85-89, 91-96, 117-124, 126-130, 132-136, 138-142,
                  144-149, 151-155, 157-162
    3    7 N      7, 19, 26, 39, 65, 77, 84, 97, 131, 143, 150, 163
    4    8 O      13, 32, 71, 90, 137, 156
    5    1 H      40-58, 98-116, 164-181

          :  Hamiltonian                  GFN1-xTB          :
 * total energy  :  -317.9414575 Eh     change        0.1643878E-07 Eh
 * total energy  :  -318.1628502 Eh     change       -0.2213927E+00 Eh
 * total energy  :  -318.2405300 Eh     change       -0.7767989E-01 Eh
 * total energy  :  -318.2844923 Eh     change       -0.4396230E-01 Eh
 * total energy  :  -318.3068128 Eh     change       -0.2232041E-01 Eh
 * total energy  :  -318.3298433 Eh     change       -0.2303052E-01 Eh
 * total energy  :  -318.3561064 Eh     change       -0.2626312E-01 Eh
 * total energy  :  -318.3857272 Eh     change       -0.2962079E-01 Eh
 * total energy  :  -318.4178584 Eh     change       -0.3213119E-01 Eh
 * total energy  :  -318.4529188 Eh     change       -0.3506038E-01 Eh
 * total energy  :  -318.7382821 Eh     change       -0.1315704E-04 Eh
 * total energy  :  -318.7382998 Eh     change       -0.1769923E-04 Eh
 * total energy  :  -318.7382947 Eh     change        0.5034306E-05 Eh
 * total energy  :  -318.7383126 Eh     change       -0.1784901E-04 Eh
 * total energy  :  -318.7383253 Eh     change       -0.1273091E-04 Eh
 * total energy  :  -318.7383368 Eh     change       -0.1145865E-04 Eh
 * total energy  :  -318.7383374 Eh     change       -0.6446764E-06 Eh
 * total energy  :  -318.7383571 Eh     change       -0.1967108E-04 Eh
 * total energy  :  -318.7383621 Eh     change       -0.4972790E-05 Eh
   *** GEOMETRY OPTIMIZATION CONVERGED AFTER 75 ITERATIONS ***

 final structure:
================
181
 xtb: 6.5.1 (b24c23e)
Zn          31.09962050249740       -0.02379629678969       -0.01050494238888
C           27.68933551695749       -0.05819536923757       -0.03713586418468
C           28.32015978204648       -1.29509866658755        0.02454089923349
C           27.64728033353445       -2.55998968570291        0.12122671726864
C           28.60712030617312       -3.51744966888345        0.17177357084720
C           29.87933426525494       -2.84926282776172        0.09603450453837
N           29.66960092150487       -1.50335195810011        0.01677030013514
C           31.13079341005096       -3.47731856112092        0.12294376472608
C           31.14502020073241       -4.96043297688682        0.18814096680363
C           30.57934094468872       -5.72214353325853       -0.83463865930156
C           30.59398971437538       -7.10746125907217       -0.77849933648184
C           31.17297891490809       -7.74852466889623        0.31389008254936
O           31.20651055478103       -9.10345178746225        0.41051487404032
C           31.73783981709823       -7.00005847856819        1.34468796655079
C           31.72454472550497       -5.61812998124788        1.27588940012259
C           32.36924579369299       -2.82622481988074        0.09557376038467
C           33.64905294378137       -3.47876067146688        0.06793261453065
C           34.59479081682044       -2.50519149465158        0.03902870048174
N           32.56215590603627       -1.47063351465427        0.06724664958118
C           33.90394240148157       -1.24934963613720        0.04024060201054
C           34.53405777341960        0.01096448210106        0.01611062369031
C           33.87979787521864        1.25854235138243       -0.01686440952582
C           34.54657639796105        2.52563827446413       -0.08268810557272
C           33.58218267319128        3.47959310688931       -0.13658085947574
C           32.31454860586430        2.80435643231096       -0.09380417570789
N           32.53372764190029        1.45410397687644       -0.02613903314662
C           31.06360528064080        3.42914888315027       -0.14917674226040
C           31.04735747736916        4.91238964397851       -0.21693296021454
C           31.57908825730330        5.67972203321209        0.82220663331274
C           31.56564356789811        7.06215564952010        0.76189970276648
C           31.02181424223586        7.69998875146945       -0.35132517643859
O           31.02916473523679        9.05845024399958       -0.38115396647990
C           30.48927549926616        6.94860066440428       -1.39610002302353
C           30.50106862305808        5.56408429585290       -1.32297291601844
C           29.82505680343892        2.77550897962082       -0.14883686410888
C           28.53965118132645        3.42244589033711       -0.15380694274977
C           27.59858941509361        2.44565665209019       -0.12548421544514
C           28.29613346073609        1.19083168687038       -0.09451453986630
N           29.64148115797243        1.42412183714603       -0.10782750837790
H           26.60370689268685       -0.06823300508832       -0.02768454768207
H           26.57641273563049       -2.68707935948826        0.15423506507773
H           28.47007263472423       -4.58289363640515        0.26606409044647
H           30.13939827921311       -5.22474102992884       -1.69197811660028
H           30.15892883533168       -7.69424445304601       -1.58051598035180
H           30.78996754424438       -9.52051941666184       -0.35536207519356
H           32.18091405650808       -7.51185276337334        2.19020034899012
H           32.15367268437974       -5.03585994905584        2.08372448315504
H           33.80297207302571       -4.54582362158277        0.05718208621588
H           35.66679140735649       -2.62003206831048        0.01252870281254
H           35.61655828382711        2.66008515823704       -0.09517631148786
H           33.71631172893719        4.54664134452927       -0.21284090980797
H           31.99168848847518        5.18398544252565        1.69385232472707
H           31.97172412152690        7.65921516776888        1.56910060854770
H           30.62964839376273        9.39389708368074       -1.19484022593073
H           30.07000547345884        7.44930048578877       -2.26233593897182
H           30.09756523479050        4.98014271307269       -2.14286364582774
H           28.38166303637364        4.48913385563174       -0.16254879500877
H           26.52517840376127        2.55397550399054       -0.11799549258006
Zn          58.06418923935119        0.00360046485510        0.00940185726947
C           61.47444611477001        0.04288581235634       -0.04076896783447
C           60.83985862883986        1.27563599969680       -0.13695481958870
C           61.50914677566268        2.54375010130584       -0.21456887665676
C           60.54642548836478        3.49761451877039       -0.27689409208451
C           59.27590521207637        2.82266646112562       -0.24679100155074
N           59.48962885746784        1.47824828123945       -0.15505312684482
C           58.02293802122472        3.44756214383257       -0.27582124112789
C           58.00544461213920        4.92638183137466       -0.40724487381770
C           58.54241456079347        5.54224950436922       -1.53808164563868
C           58.52241668008605        6.92218107844775       -1.67109985541725
C           57.96698976122087        7.70537981858969       -0.66220909395703
O           57.92830767981354        9.06074691844529       -0.75103622955545
C           57.43214965579148        7.10373185372950        0.47525691760979
C           57.45041639214981        5.72526113441530        0.59528845909393
C           56.78645412376108        2.79730866348138       -0.19595674394275
C           55.50407553329622        3.44082308351243       -0.27301650437343
C           54.56139379976786        2.46886471273963       -0.17572095346114
N           56.59770966624073        1.44705467685661       -0.06532282267578
C           55.25643736720594        1.22177883543559       -0.04789178715923
C           54.62998351091970       -0.03691623068152        0.04914563843957
C           55.28768651557697       -1.27981021306572        0.13789897145299
C           54.62498114086388       -2.54865128761331        0.21104971333142
C           55.59242977804497       -3.49856277879516        0.28033276146773
C           56.85770388863364       -2.81795532266668        0.25718651977950
N           56.63433496894076       -1.47007861462483        0.16258344972025
C           58.11056808801290       -3.44017976881593        0.29420672776094
C           58.13072426590462       -4.91929988034603        0.42351696800217
C           57.59305337699920       -5.54142515972195        1.55284657763624
C           57.61296517241667       -6.91909094564751        1.68102228412134
C           58.16892197730265       -7.69912478605845        0.66892327797013
O           58.16860462648985       -9.04900333226571        0.82425028186224
C           58.70612020485534       -7.09364464553244       -0.46445815781762
C           58.68816134647818       -5.71204114461821       -0.58001036072223
C           59.34742991150622       -2.78759665543810        0.22002266194057
C           60.63477834232705       -3.42553731998622        0.30116027973465
C           61.57284372623814       -2.45049166262568        0.20192708135712
C           60.87145988874626       -1.20447798795297        0.06915055047820
N           59.52685121548440       -1.44159087828932        0.08673314752820
H           62.56007129068448        0.05682684357562       -0.03963264151423
H           62.57986427354667        2.67624875255741       -0.21243884848602
H           60.68036734140871        4.56657264044920       -0.32435925250644
H           58.96397054773159        4.93290976712825       -2.33009777735602
H           58.93455484205041        7.39461843285402       -2.55641406932238
H           58.32174130843111        9.36955443615098       -1.57803853846820
H           57.00739677763993        7.72559646890964        1.25396843980289
H           57.04432342146838        5.25812657644808        1.48559454080704
H           55.34604010694089        4.49968117577709       -0.40033542625998
H           53.48875706655841        2.57864110036381       -0.19652521621124
H           53.55549871611487       -2.68750923707398        0.20403899861844
H           55.46247228429432       -4.56775460260077        0.32913465051526
H           57.17083443016017       -4.93406237767507        2.34570782410741
H           57.20301646109191       -7.40321375911078        2.55881608427030
H           58.57563913469095       -9.48975866788951        0.06644731975655
H           59.13427092545908       -7.70509520404340       -1.25164616441013
H           59.09580102568824       -5.24268159028665       -1.46856318141940
H           60.79612801595865       -4.48377760806162        0.43134636189799
H           62.64657846684953       -2.55360088823375        0.22357521996755
C           37.16302744945806        0.02940739921924        0.01046895692892
C           35.94097664916571        0.02283597937978        0.01228190370432
C           38.51348071768975        0.03428926741488        0.00525090687634
C           39.73566905478079        0.03215260360481        0.00130052745089
C           50.65048692797721       -0.04383444539679        0.02192244012393
C           49.42844551038424       -0.03336199343479        0.00862323998085
C           52.00101128339738       -0.04991398197328        0.03033665193285
C           53.22302808503129       -0.05166081493475        0.04161777950537
Zn          44.58208833389956        0.01018562673937       -0.01309372566814
C           41.14209000576421        0.02756080648359       -0.00445131414636
C           41.79272629717983        1.10435669830269        0.63052367087079
C           41.12262772358099        2.17234587669219        1.31100680197334
C           42.08437611076542        3.00136480220606        1.79241746920965
C           43.35216544752264        2.45225192615933        1.40025150463984
N           43.13776383777081        1.29347499883881        0.70275301665984
C           44.60183846536292        3.00447284304982        1.70411328999159
C           44.61099808995922        4.28816113326325        2.44995714380282
C           45.20230712500096        4.37095356176789        3.71306341316022
C           45.20929683999788        5.56239606242515        4.41653797532815
C           44.62597031535945        6.69805013294754        3.85790075585177
O           44.65257944438014        7.85224236266337        4.57389621525406
C           44.03619393737307        6.63231665504206        2.59784443794253
C           44.02817113073942        5.43208493395738        1.90384724858049
C           45.84398429123090        2.45195158282906        1.37125672588935
C           47.11935355155555        3.05454066498389        1.64125931474452
C           48.07012495056858        2.20983092892497        1.16541497752748
N           46.04283445266115        1.26302002130958        0.72170118549442
C           47.38566993281311        1.08963039222985        0.59138638443358
C           48.02207019983366       -0.01859696742790       -0.00288389955782
C           47.37111250430249       -1.11130277970177       -0.60952291903401
C           48.04041928619070       -2.23494171942106       -1.19465679970928
C           47.07872519424920       -3.05635235461526       -1.68899171859938
C           45.81184932190240       -2.43777299580330       -1.41526344757341
N           46.02637508144095       -1.26075025791822       -0.74947560526338
C           44.56272913930192       -2.97008855924336       -1.75442033067682
C           44.55670742849804       -4.24152776784383       -2.52138162484765
C           43.97245565991996       -5.39167081391842       -1.99046479608816
C           43.96687646136337       -6.57902812020309       -2.70641366438407
C           44.54387102126536       -6.62493757265460       -3.97320971325298
O           44.55645574921509       -7.76606530871776       -4.71053575671053
C           45.12865803291559       -5.48273966035211       -4.51667392217659
C           45.13580234683313       -4.30453718003711       -3.79121595750270
C           43.32025496285939       -2.40906502959371       -1.43829648282506
C           42.04485907049944       -2.94453758604384       -1.82445192867316
C           41.09402968910217       -2.11135945601637       -1.32878045444509
C           41.77856612556872       -1.05327831378625       -0.64708245067951
N           43.12123890309361       -1.25358573458680       -0.73071308904307
H           40.05291805104724        2.26501352565649        1.41196100789066
H           41.94775056182793        3.89867517160100        2.37424867081640
H           45.64485480311287        3.48444006743968        4.15354214920210
H           45.66094131792781        5.62702096257373        5.39875586891986
H           44.21833072873635        8.57200035322008        4.09680252491037
H           43.58718653221987        7.51989769133578        2.16497335108693
H           43.57962631488114        5.38568808387264        0.91765397852804
H           47.26787410364407        4.00835432709097        2.12137489214087
H           49.14132628085474        2.33196869485508        1.19075984837125
H           49.10967165699206       -2.37373622816546       -1.21654654917350
H           47.21396284472598       -4.00462375197719       -2.18384360797387
H           43.53363239302567       -5.36073686113788       -0.99933071054841
H           43.51707160526080       -7.47192007386553       -2.28547085066617
H           44.12424559759571       -8.49217609448539       -4.24129437394706
H           45.57040166110981       -5.53187837762996       -5.50428724081522
H           45.58032273022607       -3.41278537362973       -4.21898970874276
H           41.89604426415392       -3.83693890642926       -2.41083566986855
H           40.02279811120526       -2.19474702769965       -1.42134897662088

          :  Hamiltonian                  GFN1-xTB          :
         :: total energy            -318.738362071274 Eh    ::
         :: gradient norm              0.000579908803 Eh/a0 ::
         :: HOMO-LUMO gap              0.954226853794 eV    ::
         :: SCC energy              -323.690930038459 Eh    ::
         :: repulsion energy           5.114852926010 Eh    ::

    * Orbital Energies and Occupations

         #    Occupation            Energy/Eh            Energy/eV
      -------------------------------------------------------------
         1        2.0000           -0.8032623             -21.8579
       ...           ...                  ...                  ...
       275        2.0000           -0.4171657             -11.3517
       276        2.0000           -0.4158149             -11.3149
       277        2.0000           -0.4156018             -11.3091
       278        2.0000           -0.4155266             -11.3071
       279        2.0000           -0.4150329             -11.2936
       280        2.0000           -0.4147378             -11.2856
       281        2.0000           -0.4112937             -11.1919
       282        2.0000           -0.3908263             -10.6349
       283        2.0000           -0.3908024             -10.6343
       284        2.0000           -0.3902894             -10.6203
       285        2.0000           -0.3844569             -10.4616
       286        2.0000           -0.3784771             -10.2989
       287        2.0000           -0.3708555             -10.0915 (HOMO)
       288                         -0.3357883              -9.1373 (LUMO)
       289                         -0.3268702              -8.8946
       290                         -0.3230454              -8.7905
       291                         -0.3228370              -8.7848
       292                         -0.3225094              -8.7759
       293                         -0.3199107              -8.7052
       294                         -0.2962222              -8.0606
       295                         -0.2890627              -7.8658
       296                         -0.2863884              -7.7930
       297                         -0.2649067              -7.2085
       298                         -0.2648950              -7.2082
       ...                                ...                  ...
       612                          1.5213558              41.3982
      -------------------------------------------------------------
                  HL-Gap            0.0350672 Eh            0.9542 eV

Wiberg/Mayer (AO) data.
largest (>0.10) Wiberg bond orders for each atom

     #   Z sym  total        # sym  WBO       # sym  WBO       # sym  WBO
 ---------------------------------------------------------------------------
     1  30 Zn   1.999 --    39 N    0.460     7 N    0.460    19 N    0.457
                            26 N    0.457
     2   6 C    3.927 --    38 C    1.357     3 C    1.357    40 H    0.971
     3   6 C    3.923 --     2 C    1.357     7 N    1.233     4 C    1.172
     4   6 C    3.960 --     5 C    1.657     3 C    1.172    41 H    0.976
     5   6 C    3.963 --     4 C    1.657     6 C    1.173    42 H    0.973
     6   6 C    3.918 --     8 C    1.314     7 N    1.244     5 C    1.173
     7   7 N    3.293 --     6 C    1.244     3 C    1.233     1 Zn   0.460
     8   6 C    3.934 --    16 C    1.323     6 C    1.314     9 C    1.028
     9   6 C    3.989 --    10 C    1.394    15 C    1.384     8 C    1.028
    10   6 C    3.987 --    11 C    1.451     9 C    1.394    43 H    0.973
                            14 C    0.105
    11   6 C    3.988 --    10 C    1.451    12 C    1.373    44 H    0.970
                            15 C    0.103
    12   6 C    3.901 --    11 C    1.373    14 C    1.365    13 O    1.038
    13   8 O    2.041 --    12 C    1.038    45 H    0.865
    14   6 C    3.990 --    15 C    1.466    12 C    1.365    46 H    0.971
                            10 C    0.105
    15   6 C    3.988 --    14 C    1.466     9 C    1.384    47 H    0.973
                            11 C    0.103
    16   6 C    3.913 --     8 C    1.323    19 N    1.226    17 C    1.180
    17   6 C    3.960 --    18 C    1.645    16 C    1.180    48 H    0.973
    18   6 C    3.962 --    17 C    1.645    20 C    1.187    49 H    0.974
    19   7 N    3.298 --    20 C    1.262    16 C    1.226     1 Zn   0.457
    20   6 C    3.904 --    19 N    1.262    21 C    1.256    18 C    1.187
    21   6 C    3.938 --    22 C    1.256    20 C    1.256   118 C    1.186
    22   6 C    3.904 --    26 N    1.262    21 C    1.256    23 C    1.186
    23   6 C    3.962 --    24 C    1.646    22 C    1.186    50 H    0.974
    24   6 C    3.960 --    23 C    1.646    25 C    1.179    51 H    0.973
    25   6 C    3.913 --    27 C    1.323    26 N    1.226    24 C    1.179
    26   7 N    3.297 --    22 C    1.262    25 C    1.226     1 Zn   0.457
    27   6 C    3.934 --    25 C    1.323    35 C    1.314    28 C    1.028
    28   6 C    3.989 --    34 C    1.394    29 C    1.384    27 C    1.028
    29   6 C    3.988 --    30 C    1.466    28 C    1.384    52 H    0.973
                            33 C    0.103
    30   6 C    3.990 --    29 C    1.466    31 C    1.365    53 H    0.971
                            34 C    0.105
    31   6 C    3.901 --    33 C    1.373    30 C    1.365    32 O    1.038
    32   8 O    2.041 --    31 C    1.038    54 H    0.865
    33   6 C    3.988 --    34 C    1.451    31 C    1.373    55 H    0.970
                            29 C    0.103
    34   6 C    3.987 --    33 C    1.451    28 C    1.394    56 H    0.973
                            30 C    0.105
    35   6 C    3.918 --    27 C    1.314    39 N    1.244    36 C    1.173
    36   6 C    3.963 --    37 C    1.657    35 C    1.173    57 H    0.973
    37   6 C    3.960 --    36 C    1.657    38 C    1.172    58 H    0.976
    38   6 C    3.923 --     2 C    1.357    39 N    1.233    37 C    1.172
    39   7 N    3.294 --    35 C    1.244    38 C    1.233     1 Zn   0.460
    40   1 H    1.002 --     2 C    0.971
    41   1 H    0.998 --     4 C    0.976
    42   1 H    1.005 --     5 C    0.973
    43   1 H    1.005 --    10 C    0.973
    44   1 H    0.999 --    11 C    0.970
    45   1 H    0.887 --    13 O    0.865
    46   1 H    0.999 --    14 C    0.971
    47   1 H    1.005 --    15 C    0.973
    48   1 H    1.005 --    17 C    0.973
    49   1 H    1.003 --    18 C    0.974
    50   1 H    1.003 --    23 C    0.974
    51   1 H    1.005 --    24 C    0.973
    52   1 H    1.005 --    29 C    0.973
    53   1 H    0.999 --    30 C    0.971
    54   1 H    0.887 --    32 O    0.865
    55   1 H    0.999 --    33 C    0.970
    56   1 H    1.005 --    34 C    0.973
    57   1 H    1.005 --    36 C    0.973
    58   1 H    0.998 --    37 C    0.976
    59  30 Zn   1.999 --    65 N    0.460    97 N    0.460    84 N    0.457
                            77 N    0.457
    60   6 C    3.927 --    96 C    1.357    61 C    1.357    98 H    0.971
    61   6 C    3.923 --    60 C    1.357    65 N    1.233    62 C    1.172
    62   6 C    3.960 --    63 C    1.657    61 C    1.172    99 H    0.976
    63   6 C    3.963 --    62 C    1.657    64 C    1.173   100 H    0.973
    64   6 C    3.918 --    66 C    1.314    65 N    1.244    63 C    1.173
    65   7 N    3.294 --    64 C    1.244    61 C    1.233    59 Zn   0.460
    66   6 C    3.934 --    74 C    1.324    64 C    1.314    67 C    1.028
    67   6 C    3.989 --    68 C    1.394    73 C    1.384    66 C    1.028
    68   6 C    3.987 --    69 C    1.451    67 C    1.394   101 H    0.973
                            72 C    0.105
    69   6 C    3.988 --    68 C    1.451    70 C    1.373   102 H    0.970
                            73 C    0.103
    70   6 C    3.901 --    69 C    1.373    72 C    1.365    71 O    1.038
    71   8 O    2.041 --    70 C    1.038   103 H    0.865
    72   6 C    3.990 --    73 C    1.466    70 C    1.365   104 H    0.971
                            68 C    0.105
    73   6 C    3.988 --    72 C    1.466    67 C    1.384   105 H    0.973
                            69 C    0.103
    74   6 C    3.913 --    66 C    1.324    77 N    1.225    75 C    1.179
    75   6 C    3.960 --    76 C    1.646    74 C    1.179   106 H    0.973
    76   6 C    3.962 --    75 C    1.646    78 C    1.186   107 H    0.974
    77   7 N    3.297 --    78 C    1.262    74 C    1.225    59 Zn   0.457
    78   6 C    3.904 --    77 N    1.262    79 C    1.256    76 C    1.186
    79   6 C    3.938 --    80 C    1.257    78 C    1.256   124 C    1.186
    80   6 C    3.904 --    84 N    1.261    79 C    1.257    81 C    1.186
    81   6 C    3.962 --    82 C    1.646    80 C    1.186   108 H    0.974
    82   6 C    3.960 --    81 C    1.646    83 C    1.179   109 H    0.973
    83   6 C    3.913 --    85 C    1.323    84 N    1.226    82 C    1.179
    84   7 N    3.298 --    80 C    1.261    83 C    1.226    59 Zn   0.457
    85   6 C    3.934 --    83 C    1.323    93 C    1.314    86 C    1.027
    86   6 C    3.989 --    92 C    1.394    87 C    1.384    85 C    1.027
    87   6 C    3.988 --    88 C    1.466    86 C    1.384   110 H    0.973
                            91 C    0.103
    88   6 C    3.990 --    87 C    1.466    89 C    1.365   111 H    0.971
                            92 C    0.105
    89   6 C    3.901 --    91 C    1.373    88 C    1.365    90 O    1.038
    90   8 O    2.042 --    89 C    1.038   112 H    0.865
    91   6 C    3.988 --    92 C    1.451    89 C    1.373   113 H    0.970
                            87 C    0.103
    92   6 C    3.988 --    91 C    1.451    86 C    1.394   114 H    0.973
                            88 C    0.105
    93   6 C    3.918 --    85 C    1.314    97 N    1.244    94 C    1.173
    94   6 C    3.963 --    95 C    1.657    93 C    1.173   115 H    0.973
    95   6 C    3.960 --    94 C    1.657    96 C    1.172   116 H    0.976
    96   6 C    3.923 --    60 C    1.357    97 N    1.233    95 C    1.172
    97   7 N    3.294 --    93 C    1.244    96 C    1.233    59 Zn   0.460
    98   1 H    1.002 --    60 C    0.971
    99   1 H    0.998 --    62 C    0.976
   100   1 H    1.005 --    63 C    0.973
   101   1 H    1.005 --    68 C    0.973
   102   1 H    0.999 --    69 C    0.970
   103   1 H    0.887 --    71 O    0.865
   104   1 H    0.999 --    72 C    0.971
   105   1 H    1.005 --    73 C    0.973
   106   1 H    1.005 --    75 C    0.973
   107   1 H    1.003 --    76 C    0.974
   108   1 H    1.002 --    81 C    0.974
   109   1 H    1.005 --    82 C    0.973
   110   1 H    1.005 --    87 C    0.973
   111   1 H    0.999 --    88 C    0.971
   112   1 H    0.887 --    90 O    0.865
   113   1 H    0.999 --    91 C    0.970
   114   1 H    1.005 --    92 C    0.973
   115   1 H    1.005 --    94 C    0.973
   116   1 H    0.998 --    95 C    0.976
   117   6 C    3.933 --   118 C    2.478   119 C    1.305
   118   6 C    3.922 --   117 C    2.478    21 C    1.186   120 C    0.198
   119   6 C    3.931 --   120 C    2.476   117 C    1.305
   120   6 C    3.923 --   119 C    2.476   126 C    1.188   118 C    0.198
   121   6 C    3.931 --   122 C    2.477   123 C    1.305
   122   6 C    3.923 --   121 C    2.477   145 C    1.188   124 C    0.198
   123   6 C    3.933 --   124 C    2.478   121 C    1.305
   124   6 C    3.922 --   123 C    2.478    79 C    1.186   122 C    0.198
   125  30 Zn   1.996 --   143 N    0.457   150 N    0.457   131 N    0.457
                           163 N    0.457
   126   6 C    3.926 --   127 C    1.254   162 C    1.253   120 C    1.188
   127   6 C    3.905 --   131 N    1.262   126 C    1.254   128 C    1.189
   128   6 C    3.960 --   129 C    1.642   127 C    1.189   164 H    0.974
   129   6 C    3.961 --   128 C    1.642   130 C    1.182   165 H    0.973
   130   6 C    3.911 --   132 C    1.319   131 N    1.225   129 C    1.182
   131   7 N    3.292 --   127 C    1.262   130 C    1.225   125 Zn   0.457
   132   6 C    3.929 --   130 C    1.319   140 C    1.319   133 C    1.029
   133   6 C    3.989 --   139 C    1.394   134 C    1.383   132 C    1.029
   134   6 C    3.988 --   135 C    1.466   133 C    1.383   166 H    0.973
                           138 C    0.102
   135   6 C    3.990 --   134 C    1.466   136 C    1.365   167 H    0.971
                           139 C    0.105
   136   6 C    3.901 --   138 C    1.372   135 C    1.365   137 O    1.039
   137   8 O    2.042 --   136 C    1.039   168 H    0.865
   138   6 C    3.988 --   139 C    1.452   136 C    1.372   169 H    0.970
                           134 C    0.102
   139   6 C    3.987 --   138 C    1.452   133 C    1.394   170 H    0.973
                           135 C    0.105
   140   6 C    3.911 --   132 C    1.319   143 N    1.225   141 C    1.182
   141   6 C    3.961 --   142 C    1.642   140 C    1.182   171 H    0.973
   142   6 C    3.960 --   141 C    1.642   144 C    1.189   172 H    0.974
   143   7 N    3.292 --   144 C    1.262   140 C    1.225   125 Zn   0.457
   144   6 C    3.904 --   143 N    1.262   145 C    1.254   142 C    1.189
   145   6 C    3.926 --   146 C    1.254   144 C    1.254   122 C    1.188
   146   6 C    3.905 --   150 N    1.261   145 C    1.254   147 C    1.189
   147   6 C    3.960 --   148 C    1.642   146 C    1.189   173 H    0.974
   148   6 C    3.961 --   147 C    1.642   149 C    1.182   174 H    0.973
   149   6 C    3.911 --   151 C    1.319   150 N    1.226   148 C    1.182
   150   7 N    3.292 --   146 C    1.261   149 C    1.226   125 Zn   0.457
   151   6 C    3.929 --   159 C    1.319   149 C    1.319   152 C    1.028
   152   6 C    3.989 --   153 C    1.394   158 C    1.384   151 C    1.028
   153   6 C    3.988 --   154 C    1.451   152 C    1.394   175 H    0.973
                           157 C    0.105
   154   6 C    3.988 --   153 C    1.451   155 C    1.373   176 H    0.970
                           158 C    0.103
   155   6 C    3.901 --   154 C    1.373   157 C    1.365   156 O    1.039
   156   8 O    2.042 --   155 C    1.039   177 H    0.865
   157   6 C    3.990 --   158 C    1.466   155 C    1.365   178 H    0.971
                           153 C    0.105
   158   6 C    3.988 --   157 C    1.466   152 C    1.384   179 H    0.973
                           154 C    0.103
   159   6 C    3.911 --   151 C    1.319   163 N    1.225   160 C    1.182
   160   6 C    3.961 --   161 C    1.642   159 C    1.182   180 H    0.973
   161   6 C    3.960 --   160 C    1.642   162 C    1.189   181 H    0.974
   162   6 C    3.905 --   163 N    1.262   126 C    1.253   161 C    1.189
   163   7 N    3.292 --   162 C    1.262   159 C    1.225   125 Zn   0.457
   164   1 H    1.002 --   128 C    0.974
   165   1 H    1.005 --   129 C    0.973
   166   1 H    1.005 --   134 C    0.973
   167   1 H    0.999 --   135 C    0.971
   168   1 H    0.887 --   137 O    0.865
   169   1 H    0.999 --   138 C    0.970
   170   1 H    1.005 --   139 C    0.973
   171   1 H    1.005 --   141 C    0.973
   172   1 H    1.002 --   142 C    0.974
   173   1 H    1.002 --   147 C    0.974
   174   1 H    1.005 --   148 C    0.973
   175   1 H    1.005 --   153 C    0.973
   176   1 H    0.999 --   154 C    0.970
   177   1 H    0.887 --   156 O    0.865
   178   1 H    0.999 --   157 C    0.971
   179   1 H    1.005 --   158 C    0.973
   180   1 H    1.005 --   160 C    0.973
   181   1 H    1.003 --   161 C    0.974
 ---------------------------------------------------------------------------

           -------------------------------------------------
          | TOTAL ENERGY             -318.738362071274 Eh   |
          | GRADIENT NORM               0.000579908803 Eh/α |
          | HOMO-LUMO GAP               0.954226853794 eV   |
           -------------------------------------------------

 * finished run on 2022/07/30 at 11:36:49.691
