   * xtb version 6.5.1 (b24c23e) compiled by 'conda@728c89f4b128' on 2022-07-12
          program call               : xtb Cu_Ph2OMe_C4_2.xyz --gfn 1 --opt -T 48

   ID    Z sym.   atoms
    1   29 Cu     1, 73
    2    6 C      2-6, 8-11, 13-21, 23-27, 29-33, 36, 37, 39-43, 45, 74-78,
                  80-83, 85-93, 95-99, 101-105, 108, 109, 111-115, 117,
                  145-148
    3    7 N      7, 12, 34, 35, 79, 84, 106, 107
    4    8 O      22, 28, 38, 44, 94, 100, 110, 116
    5    1 H      46-72, 118-144
########################################################################
[WARNING] Please study the warnings concerning your input carefully
-1- prog_main_parseArguments: Unknown option '-T' provided
########################################################################

          :  Hamiltonian                  GFN1-xTB          :
 * total energy  :  -261.6311342 Eh     change       -0.2109459E-09 Eh
 * total energy  :  -261.7728009 Eh     change       -0.1416667E+00 Eh
 * total energy  :  -261.8207778 Eh     change       -0.4797692E-01 Eh
 * total energy  :  -261.8479116 Eh     change       -0.2713381E-01 Eh
 * total energy  :  -261.8597202 Eh     change       -0.1180856E-01 Eh
 * total energy  :  -261.8663123 Eh     change       -0.6592144E-02 Eh
 * total energy  :  -261.8694302 Eh     change       -0.3117821E-02 Eh
 * total energy  :  -261.8722528 Eh     change       -0.2822685E-02 Eh
 * total energy  :  -261.8747141 Eh     change       -0.2461300E-02 Eh
 * total energy  :  -261.8764745 Eh     change       -0.1760347E-02 Eh
 * total energy  :  -261.8823882 Eh     change       -0.1643106E-04 Eh
 * total energy  :  -261.8823992 Eh     change       -0.1104448E-04 Eh
 * total energy  :  -261.8824065 Eh     change       -0.7347072E-05 Eh
 * total energy  :  -261.8824136 Eh     change       -0.7036996E-05 Eh
 * total energy  :  -261.8824224 Eh     change       -0.8850060E-05 Eh
 * total energy  :  -261.8824331 Eh     change       -0.1067909E-04 Eh
 * total energy  :  -261.8824438 Eh     change       -0.1071953E-04 Eh
 * total energy  :  -261.8824526 Eh     change       -0.8766842E-05 Eh
 * total energy  :  -261.8824535 Eh     change       -0.9075800E-06 Eh
   *** GEOMETRY OPTIMIZATION CONVERGED AFTER 68 ITERATIONS ***

 final structure:
================
148
 xtb: 6.5.1 (b24c23e)
Cu          14.44810526522567        0.04138853608425        0.01959194504316
C           11.04699849641350        0.23878455255631       -0.11962290916218
C           11.68536588515438        1.07602524237845        0.78358682970586
C           11.01648668841771        1.99151467950127        1.66429986680993
C           11.97756137903873        2.61223912864949        2.39238289613948
C           13.24280504073977        2.08642585076568        1.95832868503681
N           13.03386895804450        1.15572515410020        0.98178427002455
C           14.48476277739323        2.45798738132490        2.47410066424991
C           15.71230463322652        1.93484137994743        2.07006097450841
C           16.98876270560333        2.35471222316720        2.57418906936698
C           17.93317837314635        1.63648129961783        1.91553447735427
N           15.89956002715643        0.97003191584710        1.11579966142168
C           17.24099070987533        0.77384396061509        1.00445898945966
C           17.87383229907093       -0.12901016502896        0.13168787777782
C           17.21210151462128       -0.97987957188905       -0.77125487130225
C           17.87228205282398       -1.92170756484430       -1.62578807142942
C           16.90527095344976       -2.55613852936155       -2.33585454388921
C           15.64733941182003       -2.00088120854978       -1.92459057472470
C           14.40329061101911       -2.39347970541595       -2.41672650022849
C           14.38339467676409       -3.45100109736615       -3.46806973276432
C           14.83645241873008       -3.17203911417606       -4.76401693977886
O           15.26904158670905       -1.90160356373674       -4.98106571982249
C           15.76112717608130       -1.52039313361146       -6.24962069093526
C           14.81678766369513       -4.16174782507301       -5.74637831110296
C           14.34873007057443       -5.42740328157714       -5.42710263654707
C           13.89647379522251       -5.72711366918532       -4.15094225500422
C           13.91101363926028       -4.73573904441169       -3.17024642618432
O           13.49412233498179       -4.93308695864695       -1.89109960155200
C           12.99320967139340       -6.19135123646725       -1.48826794139038
C           13.17506637278752       -1.87460232959764       -2.00576774331325
C           11.89714710796018       -2.25396223291440       -2.54319934608223
C           10.95881679376669       -1.51487330187339       -1.90101244280307
C           11.65525807856310       -0.67423775765985       -0.96856288423269
N           12.99675468267147       -0.91372573654115       -1.05276604089013
N           15.86764863610537       -1.04542208243488       -0.96783383386104
C           14.50138932821810        3.50103944643525        3.53976200339551
C           14.81907009759493        3.15927342525384        4.86067613270365
O           15.09008396697459        1.84612691011479        5.08533948716664
C           15.43855427287463        1.39885204176764        6.37965590349446
C           14.83333621075961        4.13443576494187        5.85756259885624
C           14.53500072884778        5.44793707931812        5.52805965116694
C           14.21985293697053        5.81018732464529        4.22710895232536
C           14.20063443909588        4.83400155530797        3.23139280141840
O           13.91099795946776        5.09073719819154        1.92784524973635
C           13.59078157377856        6.40231273550923        1.51125253612876
H            9.96448451451513        0.30285478876567       -0.16489111760391
H            9.94714958317587        2.12721063078960        1.71194501842903
H           11.85100471050780        3.36041791020370        3.15853705066662
H           17.13664580966362        3.10732750425215        3.33190507434842
H           19.00494890730725        1.68079246201641        2.02718753679393
H           18.93923499736080       -2.07427195023782       -1.66489160276128
H           17.02591766209128       -3.33392410872171       -3.07268802569752
H           14.99031460785923       -1.61316707777845       -7.02445913906451
H           16.05412946604994       -0.47271114467098       -6.15965766213329
H           16.63656871226727       -2.11558619810536       -6.53646061414173
H           15.16062181855157       -3.95563055161103       -6.75116588776013
H           14.33596384990892       -6.19780554831412       -6.19032196513698
H           13.53878652429754       -6.72383210129899       -3.92975336832470
H           12.71585882427645       -6.08595138837634       -0.43773609630980
H           12.10624324303412       -6.47534007960556       -2.06765582706746
H           13.75397131231220       -6.97584159309476       -1.58265643000500
H           11.74755419168351       -2.99105829104910       -3.31595414068254
H            9.88872517109035       -1.52407715722768       -2.03884078113962
H           15.62179652361051        0.32634250717500        6.29148039246033
H           14.62500245955997        1.56719192021845        7.09584680849465
H           16.34889243484083        1.89081439751620        6.74327084374747
H           15.07283360302125        3.88025012954572        6.88143132475410
H           14.54811622810715        6.20663231174433        6.30291020089835
H           13.99336552748485        6.84304354393231        3.99861976077714
H           14.42205465900293        7.09532126578929        1.68951783480704
H           13.39870844751339        6.34205686277810        0.43835012727801
H           12.69235602376585        6.77656675347040        2.01711568611186
Cu          27.90489019177797       -0.01345028136404       -0.04322693346080
C           31.30586956019350        0.15450083510840       -0.22039219007964
C           30.66756579441078       -0.62057794729927       -1.17752005890927
C           31.33633874569021       -1.36124345464429       -2.20967513815942
C           30.37531468206914       -1.99456643323952       -2.92690253050741
C           29.11021955431352       -1.64118205145278       -2.34349908055854
N           29.31916367297650       -0.80673480123639       -1.28354813594547
C           27.86837908634879       -2.10017419670757       -2.78354231427184
C           26.64094275802801       -1.77555557161383       -2.20759846949449
C           25.36460362845311       -2.21614301580026       -2.69402947539278
C           24.42012313206182       -1.66609803168861       -1.88966591669588
N           26.45359306602827       -0.96752366167018       -1.11740064059145
C           25.11218275970899       -0.88575938090588       -0.90708845174594
C           24.47916527250743       -0.14925234133155        0.10985750126610
C           25.14077478029393        0.62430044675802        1.07996101941659
C           24.48050420990681        1.33743931525014        2.13286629556463
C           25.44752235356586        1.95008179734986        2.86181405976061
C           26.70554040812927        1.62094723484415        2.25443711710863
C           27.94964720483482        2.05181988668429        2.71326104808854
C           27.96950953641744        2.94213155159871        3.90954190377122
C           27.51825824022901        4.26514561986413        3.81721591752639
O           27.08765407793271        4.66123607933972        2.59004705400385
C           26.59852852547590        5.97209857092923        2.39231051956734
C           27.53749549169545        5.09664136775100        4.93667963398807
C           28.00340886525244        4.59992504129630        6.14461057413861
C           28.45403101633471        3.29358228450017        6.26022657547748
C           28.43986886234592        2.46395944590794        5.13936774670175
O           28.85536920728704        1.16930461583788        5.15307754881237
C           29.35319716201499        0.59056050066604        6.34204027400802
C           29.17787826632397        1.71862552785901        2.14137023723115
C           30.45578241622833        2.19654467659216        2.59344503015676
C           31.39406678230782        1.66680746826010        1.76995988095901
C           30.69762292772111        0.86389582446980        0.80483697943272
N           29.35616572198986        0.91265783351669        1.05420564277574
N           26.48525410661030        0.80915653626025        1.17310213805334
C           27.85178899069785       -3.00697998061104       -3.96732348746951
C           27.53781417205622       -4.36379576766111       -3.81586232252035
O           27.26998615043165       -4.77305909818859       -2.54738623329661
C           26.92585377722379       -6.11870211236830       -2.28747738242788
C           27.52372322764331       -5.21224499788844       -4.92259207764456
C           27.81854408663206       -4.69889746295618       -6.17655273792838
C           28.12996176809822       -3.35891612325445       -6.35109377812594
C           28.14897622854748       -2.51174972068150       -5.24351926837588
O           28.43520750540208       -1.18424997875240       -5.31308217751916
C           28.75113623795972       -0.58475512851692       -6.55289034045387
H           32.38830544244126        0.20935323963291       -0.27796983249253
H           32.40557742332383       -1.38794752710634       -2.35173219107716
H           30.50181171507363       -2.64630915094913       -3.77661861789622
H           25.21685745227367       -2.85995822649246       -3.54615146811586
H           23.34839411282880       -1.77100422604299       -1.94893727714723
H           23.41349937173716        1.35509495640773        2.28900683910774
H           25.32680615464967        2.56960986556323        3.73591137984950
H           27.37059866320844        6.72428621060747        2.59542434247340
H           26.30720159313391        6.03257669320211        1.34204811179377
H           25.72257214422782        6.17323095562906        3.02093809060324
H           27.19489607693708        6.12092408059227        4.87523996755837
H           28.01577174219503        5.24570777576746        7.01581618269598
H           28.81016267763182        2.93240693254810        7.21575574632993
H           29.62941650966574       -0.43467271889311        6.08856889272215
H           30.24032085808780        1.12218606859098        6.70733131244286
H           28.59093700526510        0.57342007909933        7.13055585377844
H           30.60538058382898        2.85597053042363        3.43345622850893
H           32.46413552752509        1.80213098185577        1.79855032198551
H           26.74503656096671       -6.18404520773689       -1.21292171104882
H           27.74078475033058       -6.80147459735688       -2.55738255013352
H           26.01522240918849       -6.41145111663401       -2.82414367308815
H           27.28700803073138       -6.26241756527749       -4.81587721461657
H           27.80564085235752       -5.35827898727906       -7.03750154594507
H           28.35385224584807       -2.98562511898824       -7.34146799068962
H           27.91863093461042       -0.66526391004375       -7.26247977267964
H           28.94056147328247        0.46929123196738       -6.34134738271421
H           29.64995428573496       -1.02974101316770       -6.99702326366832
C           20.50122594359625       -0.19008598813898        0.17209305368347
C           19.27958896506692       -0.17491232318749        0.15754973447203
C           21.85171306882146       -0.19732524222044        0.16519248549013
C           23.07337839829518       -0.18096407707812        0.15072788351929

          :  Hamiltonian                  GFN1-xTB          :
         :: total energy            -261.882453508613 Eh    ::
         :: gradient norm              0.000635799071 Eh/a0 ::
         :: HOMO-LUMO gap              0.000671368695 eV    ::
         :: SCC energy              -265.438392122069 Eh    ::
         :: repulsion energy           3.685155949494 Eh    ::

    * Orbital Energies and Occupations

         #    Occupation            Energy/Eh            Energy/eV
      -------------------------------------------------------------
         1        2.0000           -0.8039622             -21.8769
       ...           ...                  ...                  ...
       222        2.0000           -0.3948991             -10.7458
       223        2.0000           -0.3948891             -10.7455
       224        2.0000           -0.3917195             -10.6592
       225        2.0000           -0.3917180             -10.6592
       226        2.0000           -0.3914863             -10.6529
       227        2.0000           -0.3914677             -10.6524
       228        2.0000           -0.3914648             -10.6523
       229        2.0000           -0.3913689             -10.6497
       230        2.0000           -0.3783423             -10.2952
       231        2.0000           -0.3783373             -10.2951
       232        2.0000           -0.3756934             -10.2231
       233        2.0000           -0.3635861              -9.8937
       234        1.0065           -0.3387110              -9.2168 (HOMO)
       235        0.9935           -0.3386863              -9.2161 (LUMO)
       236                         -0.3211107              -8.7379
       237                         -0.3100136              -8.4359
       238                         -0.3100083              -8.4358
       239                         -0.3073459              -8.3633
       240                         -0.2800431              -7.6204
       241                         -0.2724517              -7.4138
       242                         -0.2519790              -6.8567
       243                         -0.2519762              -6.8566
       244                         -0.2516816              -6.8486
       245                         -0.2510955              -6.8327
       ...                                ...                  ...
       494                          1.5334751              41.7280
      -------------------------------------------------------------
                  HL-Gap            0.0000247 Eh            0.0007 eV

Wiberg/Mayer (AO) data.
largest (>0.10) Wiberg bond orders for each atom

     #   Z sym  total        # sym  WBO       # sym  WBO       # sym  WBO
 ---------------------------------------------------------------------------
     1  29 Cu   2.187 --     7 N    0.505    34 N    0.505    35 N    0.503
                            12 N    0.503
     2   6 C    3.930 --     3 C    1.361    33 C    1.361    46 H    0.972
     3   6 C    3.919 --     2 C    1.361     7 N    1.232     4 C    1.170
     4   6 C    3.955 --     5 C    1.657     3 C    1.170    47 H    0.976
     5   6 C    3.958 --     4 C    1.657     6 C    1.172    48 H    0.975
     6   6 C    3.912 --     8 C    1.325     7 N    1.237     5 C    1.172
     7   7 N    3.245 --     6 C    1.237     3 C    1.232     1 Cu   0.505
     8   6 C    3.935 --     9 C    1.334     6 C    1.325    36 C    1.012
     9   6 C    3.908 --     8 C    1.334    12 N    1.219    10 C    1.179
    10   6 C    3.955 --    11 C    1.645     9 C    1.179    49 H    0.975
    11   6 C    3.957 --    10 C    1.645    13 C    1.185    50 H    0.974
    12   7 N    3.249 --    13 C    1.259     9 C    1.219     1 Cu   0.503
    13   6 C    3.900 --    14 C    1.260    12 N    1.259    11 C    1.185
    14   6 C    3.939 --    15 C    1.260    13 C    1.260   146 C    1.185
    15   6 C    3.900 --    14 C    1.260    35 N    1.259    16 C    1.185
    16   6 C    3.957 --    17 C    1.645    15 C    1.185    51 H    0.974
    17   6 C    3.955 --    16 C    1.645    18 C    1.179    52 H    0.975
    18   6 C    3.908 --    19 C    1.334    35 N    1.219    17 C    1.179
    19   6 C    3.935 --    18 C    1.334    30 C    1.325    20 C    1.012
    20   6 C    3.978 --    27 C    1.344    21 C    1.344    19 C    1.012
                            25 C    0.101
    21   6 C    3.903 --    24 C    1.362    20 C    1.344    22 O    1.031
    22   8 O    2.144 --    21 C    1.031    23 C    0.936
    23   6 C    3.908 --    54 H    0.983    55 H    0.980    53 H    0.980
                            22 O    0.936
    24   6 C    3.983 --    25 C    1.442    21 C    1.362    56 H    0.969
    25   6 C    3.993 --    24 C    1.442    26 C    1.442    57 H    0.974
                            20 C    0.101
    26   6 C    3.983 --    25 C    1.442    27 C    1.362    58 H    0.969
    27   6 C    3.903 --    26 C    1.362    20 C    1.344    28 O    1.030
    28   8 O    2.144 --    27 C    1.030    29 C    0.936
    29   6 C    3.908 --    59 H    0.983    60 H    0.980    61 H    0.980
                            28 O    0.936
    30   6 C    3.912 --    19 C    1.325    34 N    1.237    31 C    1.172
    31   6 C    3.958 --    32 C    1.657    30 C    1.172    62 H    0.975
    32   6 C    3.955 --    31 C    1.657    33 C    1.170    63 H    0.976
    33   6 C    3.919 --     2 C    1.361    34 N    1.232    32 C    1.170
    34   7 N    3.245 --    30 C    1.237    33 C    1.232     1 Cu   0.505
    35   7 N    3.249 --    15 C    1.259    18 C    1.219     1 Cu   0.503
    36   6 C    3.978 --    43 C    1.344    37 C    1.344     8 C    1.012
                            41 C    0.101
    37   6 C    3.903 --    40 C    1.362    36 C    1.344    38 O    1.031
    38   8 O    2.144 --    37 C    1.031    39 C    0.936
    39   6 C    3.908 --    64 H    0.983    66 H    0.980    65 H    0.980
                            38 O    0.936
    40   6 C    3.983 --    41 C    1.442    37 C    1.362    67 H    0.969
    41   6 C    3.993 --    40 C    1.442    42 C    1.442    68 H    0.974
                            36 C    0.101
    42   6 C    3.983 --    41 C    1.442    43 C    1.362    69 H    0.969
    43   6 C    3.903 --    42 C    1.362    36 C    1.344    44 O    1.030
    44   8 O    2.144 --    43 C    1.030    45 C    0.936
    45   6 C    3.908 --    71 H    0.983    72 H    0.980    70 H    0.980
                            44 O    0.936
    46   1 H    1.002 --     2 C    0.972
    47   1 H    0.999 --     4 C    0.976
    48   1 H    1.002 --     5 C    0.975
    49   1 H    1.002 --    10 C    0.975
    50   1 H    1.003 --    11 C    0.974
    51   1 H    1.003 --    16 C    0.974
    52   1 H    1.002 --    17 C    0.975
    53   1 H    1.009 --    23 C    0.980
    54   1 H    1.016 --    23 C    0.983
    55   1 H    1.009 --    23 C    0.980
    56   1 H    1.000 --    24 C    0.969
    57   1 H    1.003 --    25 C    0.974
    58   1 H    1.000 --    26 C    0.969
    59   1 H    1.016 --    29 C    0.983
    60   1 H    1.009 --    29 C    0.980
    61   1 H    1.009 --    29 C    0.980
    62   1 H    1.002 --    31 C    0.975
    63   1 H    0.999 --    32 C    0.976
    64   1 H    1.016 --    39 C    0.983
    65   1 H    1.009 --    39 C    0.980
    66   1 H    1.009 --    39 C    0.980
    67   1 H    1.000 --    40 C    0.969
    68   1 H    1.003 --    41 C    0.974
    69   1 H    1.000 --    42 C    0.969
    70   1 H    1.009 --    45 C    0.980
    71   1 H    1.016 --    45 C    0.983
    72   1 H    1.009 --    45 C    0.980
    73  29 Cu   2.187 --    79 N    0.505   106 N    0.505    84 N    0.503
                           107 N    0.503
    74   6 C    3.930 --    75 C    1.361   105 C    1.361   118 H    0.972
    75   6 C    3.919 --    74 C    1.361    79 N    1.232    76 C    1.170
    76   6 C    3.955 --    77 C    1.657    75 C    1.170   119 H    0.976
    77   6 C    3.958 --    76 C    1.657    78 C    1.172   120 H    0.975
    78   6 C    3.912 --    80 C    1.325    79 N    1.237    77 C    1.172
    79   7 N    3.245 --    78 C    1.237    75 C    1.232    73 Cu   0.505
    80   6 C    3.935 --    81 C    1.334    78 C    1.325   108 C    1.012
    81   6 C    3.908 --    80 C    1.334    84 N    1.219    82 C    1.179
    82   6 C    3.955 --    83 C    1.645    81 C    1.179   121 H    0.975
    83   6 C    3.957 --    82 C    1.645    85 C    1.185   122 H    0.974
    84   7 N    3.249 --    85 C    1.259    81 C    1.219    73 Cu   0.503
    85   6 C    3.900 --    86 C    1.260    84 N    1.259    83 C    1.185
    86   6 C    3.939 --    87 C    1.260    85 C    1.260   148 C    1.185
    87   6 C    3.900 --    86 C    1.260   107 N    1.259    88 C    1.185
    88   6 C    3.957 --    89 C    1.645    87 C    1.185   123 H    0.974
    89   6 C    3.955 --    88 C    1.645    90 C    1.179   124 H    0.975
    90   6 C    3.908 --    91 C    1.334   107 N    1.219    89 C    1.179
    91   6 C    3.935 --    90 C    1.334   102 C    1.325    92 C    1.012
    92   6 C    3.978 --    99 C    1.344    93 C    1.344    91 C    1.012
                            97 C    0.101
    93   6 C    3.903 --    96 C    1.362    92 C    1.344    94 O    1.031
    94   8 O    2.144 --    93 C    1.031    95 C    0.936
    95   6 C    3.908 --   126 H    0.983   127 H    0.980   125 H    0.980
                            94 O    0.936
    96   6 C    3.983 --    97 C    1.442    93 C    1.362   128 H    0.969
    97   6 C    3.993 --    96 C    1.442    98 C    1.442   129 H    0.974
                            92 C    0.101
    98   6 C    3.983 --    97 C    1.442    99 C    1.362   130 H    0.969
    99   6 C    3.903 --    98 C    1.362    92 C    1.344   100 O    1.030
   100   8 O    2.144 --    99 C    1.030   101 C    0.936
   101   6 C    3.908 --   131 H    0.983   132 H    0.980   133 H    0.980
                           100 O    0.936
   102   6 C    3.912 --    91 C    1.325   106 N    1.237   103 C    1.172
   103   6 C    3.958 --   104 C    1.657   102 C    1.172   134 H    0.975
   104   6 C    3.955 --   103 C    1.657   105 C    1.170   135 H    0.976
   105   6 C    3.919 --    74 C    1.361   106 N    1.232   104 C    1.170
   106   7 N    3.245 --   102 C    1.237   105 C    1.232    73 Cu   0.505
   107   7 N    3.249 --    87 C    1.259    90 C    1.219    73 Cu   0.503
   108   6 C    3.978 --   115 C    1.344   109 C    1.344    80 C    1.012
                           113 C    0.101
   109   6 C    3.903 --   112 C    1.362   108 C    1.344   110 O    1.031
   110   8 O    2.144 --   109 C    1.031   111 C    0.936
   111   6 C    3.908 --   136 H    0.983   138 H    0.980   137 H    0.980
                           110 O    0.936
   112   6 C    3.983 --   113 C    1.442   109 C    1.362   139 H    0.969
   113   6 C    3.993 --   112 C    1.442   114 C    1.442   140 H    0.974
                           108 C    0.101
   114   6 C    3.983 --   113 C    1.442   115 C    1.362   141 H    0.969
   115   6 C    3.903 --   114 C    1.362   108 C    1.344   116 O    1.030
   116   8 O    2.144 --   115 C    1.030   117 C    0.936
   117   6 C    3.908 --   143 H    0.983   144 H    0.980   142 H    0.980
                           116 O    0.936
   118   1 H    1.002 --    74 C    0.972
   119   1 H    0.999 --    76 C    0.976
   120   1 H    1.002 --    77 C    0.975
   121   1 H    1.002 --    82 C    0.975
   122   1 H    1.003 --    83 C    0.974
   123   1 H    1.003 --    88 C    0.974
   124   1 H    1.002 --    89 C    0.975
   125   1 H    1.009 --    95 C    0.980
   126   1 H    1.016 --    95 C    0.983
   127   1 H    1.009 --    95 C    0.980
   128   1 H    1.000 --    96 C    0.969
   129   1 H    1.003 --    97 C    0.974
   130   1 H    1.000 --    98 C    0.969
   131   1 H    1.016 --   101 C    0.983
   132   1 H    1.009 --   101 C    0.980
   133   1 H    1.009 --   101 C    0.980
   134   1 H    1.002 --   103 C    0.975
   135   1 H    0.999 --   104 C    0.976
   136   1 H    1.016 --   111 C    0.983
   137   1 H    1.009 --   111 C    0.980
   138   1 H    1.009 --   111 C    0.980
   139   1 H    1.000 --   112 C    0.969
   140   1 H    1.003 --   113 C    0.974
   141   1 H    1.000 --   114 C    0.969
   142   1 H    1.009 --   117 C    0.980
   143   1 H    1.016 --   117 C    0.983
   144   1 H    1.009 --   117 C    0.980
   145   6 C    3.936 --   146 C    2.481   147 C    1.305
   146   6 C    3.926 --   145 C    2.481    14 C    1.185   148 C    0.200
   147   6 C    3.936 --   148 C    2.481   145 C    1.305
   148   6 C    3.926 --   147 C    2.481    86 C    1.185   146 C    0.200
 ---------------------------------------------------------------------------

           -------------------------------------------------
          | TOTAL ENERGY             -261.882453508613 Eh   |
          | GRADIENT NORM               0.000635799071 Eh/α |
          | HOMO-LUMO GAP               0.000671368695 eV   |
           -------------------------------------------------

 * finished run on 2022/07/30 at 12:10:18.047
