   * xtb version 6.5.1 (b24c23e) compiled by 'conda@728c89f4b128' on 2022-07-12
          program call               : xtb Cu_PhCN_C8_3.xyz --gfn 1 --opt -T 48

   ID    Z sym.   atoms
    1   29 Cu     1, 59, 133
    2    6 C      2-6, 8-13, 15-19, 21-26, 28-33, 35-40, 60-64, 66-71, 73-77,
                  79-84, 86-91, 93-98, 117-132, 134-138, 140-145, 147-151,
                  153-158, 160-165, 167-172
    3    7 N      7, 14, 20, 27, 34, 41, 65, 72, 78, 85, 92, 99, 139, 146,
                  152, 159, 166, 173
    4    1 H      42-58, 100-116, 174-189

          :  Hamiltonian                  GFN1-xTB          :
 * total energy  :  -345.8175510 Eh     change        0.6941548E-08 Eh
 * total energy  :  -346.1881279 Eh     change       -0.3705769E+00 Eh
 * total energy  :  -346.3093706 Eh     change       -0.1212427E+00 Eh
 * total energy  :  -346.3690932 Eh     change       -0.5972261E-01 Eh
 * total energy  :  -346.4252638 Eh     change       -0.5617063E-01 Eh
 * total energy  :  -346.4865332 Eh     change       -0.6126944E-01 Eh
 * total energy  :  -346.5435503 Eh     change       -0.5701708E-01 Eh
 * total energy  :  -346.5767095 Eh     change       -0.3315916E-01 Eh
 * total energy  :  -346.6037901 Eh     change       -0.2708056E-01 Eh
 * total energy  :  -346.6248869 Eh     change       -0.2109686E-01 Eh
 * total energy  :  -346.7433114 Eh     change       -0.3515683E-04 Eh
 * total energy  :  -346.7433376 Eh     change       -0.2622199E-04 Eh
 * total energy  :  -346.7433577 Eh     change       -0.2009113E-04 Eh
 * total energy  :  -346.7433720 Eh     change       -0.1423706E-04 Eh
 * total energy  :  -346.7433849 Eh     change       -0.1291401E-04 Eh
 * total energy  :  -346.7433958 Eh     change       -0.1097448E-04 Eh
 * total energy  :  -346.7434055 Eh     change       -0.9614029E-05 Eh
 * total energy  :  -346.7434130 Eh     change       -0.7548537E-05 Eh
 * total energy  :  -346.7434157 Eh     change       -0.2659788E-05 Eh
   *** GEOMETRY OPTIMIZATION CONVERGED AFTER 68 ITERATIONS ***

 final structure:
================
189
 xtb: 6.5.1 (b24c23e)
Cu          28.62080937319062        0.02603585401469        0.01588986647681
C           25.21435818518005        0.04808247998202        0.09275634208797
C           25.85129934822646        1.26102359599937        0.30618244294946
C           25.17808840353824        2.51158132058389        0.51100573858298
C           26.13837310975337        3.45445135598950        0.67578347751210
C           27.40793492299469        2.78501199151954        0.58578347616012
N           27.20251601306410        1.45578830439086        0.35406209834031
C           28.65432822158976        3.40655384956277        0.69559251009343
C           28.66695163365126        4.86253095447491        0.97881323976909
C           28.11684332171608        5.35941775777605        2.16262565400821
C           28.12057825754146        6.71747507295493        2.42591107460785
C           28.67257625760918        7.60898563674253        1.50121617708793
C           28.67108075505437        9.00784481118983        1.76510682702040
N           28.66845115975321       10.13881359113448        1.97808577149989
C           29.22459105793493        7.11672960491701        0.31482931526085
C           29.22290870326504        5.75684115137015        0.06124729778574
C           29.88685716709264        2.76512901334932        0.55710564541088
C           31.16466800933505        3.39397427783611        0.73750416215417
C           32.10938165780760        2.44134262838070        0.53317759016792
N           30.07328535300343        1.44143940814922        0.25798137682255
C           31.41665894184992        1.22424752181903        0.23380040341526
C           32.05128832376851        0.00100339592275       -0.04712846867337
C           31.38950465044270       -1.21188154083991       -0.30949440314931
C           32.05312746535460       -2.43746948528775       -0.63832777873873
C           31.08773646054891       -3.37531216523036       -0.81279478720659
C           29.82661261739011       -2.72921079125089       -0.58276143555831
N           30.04313096519027       -1.40946316048970       -0.28619041138147
C           28.58037164213843       -3.35244797204795       -0.67394607676454
C           28.55892019080656       -4.80626645660304       -0.96736871074681
C           27.94746560373008       -5.28458545227138       -2.12862562593078
C           27.91744607841935       -6.64013671362208       -2.40264556073905
C           28.49717653051844       -7.54795014331806       -1.51144095778120
C           28.46149637052769       -8.94442946672300       -1.78536398890285
N           28.43146096672002      -10.07376741989761       -2.00506136362527
C           29.11037786387259       -7.07445275522537       -0.34764892098204
C           29.14170149771891       -5.71694871077081       -0.08320760209384
C           27.34845681789951       -2.71474406338449       -0.50685103955406
C           26.06758566207174       -3.36764139363168       -0.54058259599979
C           25.12807033995068       -2.41349074543686       -0.32795092220006
C           25.82588953357196       -1.17226212042293       -0.15091814486746
N           27.17089130532452       -1.38392766869630       -0.26139642833132
H           24.12958802476677        0.05457695705220        0.11786009225238
H           24.10708114320458        2.63901924059719        0.51502574338319
H           26.00586766865698        4.51280151865737        0.83268573966637
H           27.69706394018582        4.67018790528722        2.88664519904849
H           27.69627071838511        7.09517286677829        3.34883282778672
H           29.65083081267966        7.80519277430416       -0.40543530110855
H           29.64049787128644        5.37968764034201       -0.86547934106227
H           31.31524018595432        4.42801398792258        1.00225555702562
H           33.18155744867504        2.54261727112335        0.58523023908006
H           33.12114108223355       -2.55390295276427       -0.72981624227577
H           31.21394033965345       -4.41016812915647       -1.08694961227958
H           27.50596170292988       -4.58262268275251       -2.82704301739311
H           27.44495779381895       -7.00309556617358       -3.30789808533131
H           29.55787906554412       -7.77575770792375        0.34686902872066
H           29.60662311191698       -5.35468730395139        0.82675705971837
H           25.91428031917770       -4.42361239674744       -0.69450918011566
H           24.05650383777607       -2.52746759797372       -0.28258629338628
Cu          65.85157996627646       -0.00066538647742        0.03113223221943
C           69.25875040034516       -0.02433074222237        0.09292744194716
C           68.62096164648173       -1.22293034632083        0.37400765946032
C           69.29335147116586       -2.46175183033726        0.64278980803645
C           68.33247792443248       -3.39346398538830        0.85931575151594
C           67.06338386422156       -2.72809017987097        0.73757277304824
N           67.26966273921620       -1.41309182341427        0.43605721216402
C           65.81663448700979       -3.34174416682509        0.88205003646660
C           65.80415569629815       -4.78129123528202        1.23970352303184
C           66.35637545924934       -5.21606125853669        2.44676824194407
C           66.35465888692760       -6.55875991525104        2.77953264412453
C           65.80255267455564       -7.49721527700174        1.90256009013067
C           65.80738889638367       -8.88078118281815        2.23746686618838
N           65.81498583661006       -9.99935806054356        2.50804141418742
C           65.24777929195417       -7.06711633330091        0.69353984872785
C           65.24751991748212       -5.72204090244417        0.37033371831008
C           64.58424700625828       -2.70690762653114        0.71488680414749
C           63.30649179739837       -3.32491067236754        0.93008141376577
C           62.36193450817952       -2.38208076220545        0.68399619303892
N           64.39795046488565       -1.39917967089998        0.35247541613545
C           63.05460985479377       -1.18153953637241        0.32362142912022
C           62.42030518904511        0.02849253447891       -0.00983188408895
C           63.08258891636002        1.22596787964083       -0.33379837438191
C           62.41894418943301        2.43537469256522       -0.71809519650221
C           63.38501318811881        3.35954017378061       -0.95150590677249
C           64.64676477173957        2.72211367128107       -0.70132427087592
N           64.42975124144452        1.42041245676001       -0.33392524604058
C           65.89365518294804        3.33562060240067       -0.83838306439268
C           65.91660568609601        4.77122470432799       -1.21088252045170
C           66.51846714580789        5.18350331280906       -2.40212564159459
C           66.55098702722762        6.52218491790771       -2.74894279478309
C           65.98361182568931        7.47935875829241       -1.90237643061898
C           66.02287224599652        8.85836554047594       -2.25334223604321
N           66.05741344514929        9.97299468583241       -2.53703770481325
C           65.37995901331057        7.07201314289479       -0.70904750581475
C           65.34605008940571        5.73079157121885       -0.37165447280339
C           67.12560022880152        2.70487299396790       -0.64699696454609
C           68.40735568306941        3.35231493609562       -0.72513820243397
C           69.34655997476898        2.40980919942678       -0.46474585124628
C           68.64781689070462        1.18168018395553       -0.21489513008985
N           67.30251258458181        1.38938317332262       -0.32939376638212
H           70.34360173257782       -0.03116955484380        0.11409529431209
H           70.36422653419721       -2.59013232927568        0.65070782928283
H           68.46436238767242       -4.44226069183214        1.07121680482838
H           66.77657014041404       -4.48999856849245        3.13359233976632
H           66.78084708038041       -6.88803898473189        3.71996477505752
H           64.82119245934904       -7.79215445604908        0.01032184570642
H           64.82812588585918       -5.39354099733575       -0.57393193670042
H           63.15597591585185       -4.34494297277854        1.24454687791395
H           61.28989161840875       -2.47944848499757        0.74543760249902
H           61.35032166514996        2.55046912239551       -0.80404706009089
H           63.25882076002230        4.37908588906740       -1.27802889699100
H           66.95074815177779        4.44315904751365       -3.06582698054335
H           67.01604425974553        6.83412675756390       -3.67678379030156
H           64.94200600181954        7.81140947946360       -0.04879573905564
H           64.88900078308428        5.41999354873580        0.56105729637950
H           68.56146777111012        4.39770127240559       -0.93887432333758
H           70.41854713743395        2.52410270387405       -0.43182798190716
C           33.45683853198502       -0.00906729811868       -0.06505196321363
C           34.68140300313187       -0.01378805194949       -0.07433191357936
C           36.02432636757123       -0.01491433030211       -0.08156638042666
C           37.25511989474731       -0.01577024407521       -0.08269464586381
C           38.59317970701172       -0.01165257252145       -0.08222714577123
C           39.82403571121601       -0.00687566927202       -0.07831507264571
C           41.16672909615707       -0.00211311449480       -0.07149808136880
C           42.39150493372806        0.00504090325160       -0.06258031078618
C           52.07852014875578        0.04243291216028       -0.02881296002419
C           53.30325111393101        0.04752566034085       -0.02775459505483
C           54.64639195157455        0.04979707854486       -0.02618877799922
C           55.87716512518836        0.05051184056972       -0.02734101937711
C           57.21565588971455        0.05004567651229       -0.02784413905923
C           58.44631314614268        0.04868858291058       -0.02844398606549
C           59.78967726186875        0.04438453479729       -0.02613199360307
C           61.01417952805631        0.04062307986435       -0.01999385170227
Cu          47.23479398117069        0.02272331292637       -0.04166669813723
C           43.79645266768311        0.01020796069395       -0.05574916516227
C           44.45176521235202       -1.15541478706599       -0.49295476422255
C           43.78058438344237       -2.35356453183755       -0.89849807796397
C           44.74173464239624       -3.24319916293445       -1.25491367217080
C           46.00697588400160       -2.58906199095910       -1.07673407718516
N           45.79741242537429       -1.32105265975391       -0.60436388688310
C           47.25141247826411       -3.17171800876901       -1.32658838558609
C           47.25744303590587       -4.54677255135348       -1.88367938777976
C           46.68685163035232       -4.80662270917583       -3.13177758664598
C           46.69158526944160       -6.08671251926286       -3.65612346649876
C           47.26500219181938       -7.13752805427578       -2.93396437340861
C           47.26803991096427       -8.45693352812608       -3.46840900670562
N           47.27008515763934       -9.52338311017629       -3.90078910631073
C           47.83494929064108       -6.88316740254106       -1.68296298350436
C           47.83225233705383       -5.59928943938506       -1.16782383432492
C           48.48972221912498       -2.56782383526119       -1.09724026115843
C           49.76146267837836       -3.15207079690624       -1.41622624332050
C           50.71328272384481       -2.25500763773417       -1.05344156143355
N           48.68612928962256       -1.32419027042735       -0.55907485066419
C           50.02995506556312       -1.11516734703603       -0.52007972661336
C           50.67305745490101        0.03675330750165       -0.03164861725310
C           50.01783505783523        1.18311841941502        0.45380568008956
C           50.68876510822845        2.32814444945810        0.99167841996173
C           49.72754218102538        3.21714787908852        1.34964048446680
C           48.46247641976715        2.62279669900584        1.02301395453993
N           48.67217014592696        1.38100562562811        0.48544828454312
C           47.21787216803320        3.21669680543192        1.24428571214428
C           47.20909189240773        4.59118989888480        1.80280821818403
C           46.62741283357278        4.84468721879630        3.04713303961093
C           46.61844374876724        6.12390806348920        3.57346696925827
C           47.18890294922384        7.18029289676763        2.85704684495756
C           47.17781207884109        8.49873259187992        3.39377005730745
N           47.16773856902959        9.56397330949780        3.82893883146677
C           47.76963341885713        6.93235223177507        1.60975420055587
C           47.78064845333830        5.64927138992871        1.09263586062212
C           45.97975291407301        2.62478263651330        0.98484625211617
C           44.70837054384923        3.26963348720235        1.15284493920048
C           43.75663860835133        2.37323822594986        0.78812487943699
C           44.43979014194323        1.18011281536062        0.38781735938469
N           45.78321619660091        1.35538470860441        0.51050637158024
H           42.71108015757438       -2.49029718888257       -0.89906266580721
H           44.60933850421477       -4.25757060504115       -1.59472397306046
H           46.25082846009399       -3.99215401833322       -3.69919636614159
H           46.25221238018450       -6.27954678251580       -4.62783158103471
H           48.27703828686585       -7.69607251891142       -1.11888716612387
H           48.26506897068661       -5.40776417048519       -0.19242714786748
H           49.90412343851729       -4.11818692764311       -1.87253765922814
H           51.78399542888138       -2.34475354708351       -1.14323443298166
H           51.75818202295240        2.42677359868876        1.08747495445510
H           49.85991709908388        4.18413685270673        1.80721386241942
H           46.19356324932019        4.02593469285304        3.61003174511341
H           46.17061938341729        6.31183329823007        4.54227486347364
H           48.20930827478684        7.74956058002656        1.05001624059381
H           48.22179394856433        5.46279090092746        0.11999378043854
H           44.56591144859375        4.28298953153747        1.49161882649587
H           42.68618777543093        2.50213052984614        0.77991394194028

          :  Hamiltonian                  GFN1-xTB          :
         :: total energy            -346.743415669326 Eh    ::
         :: gradient norm              0.000852626482 Eh/a0 ::
         :: HOMO-LUMO gap              0.000849550344 eV    ::
         :: SCC energy              -352.772525101988 Eh    ::
         :: repulsion energy           6.200615971812 Eh    ::

    * Orbital Energies and Occupations

         #    Occupation            Energy/Eh            Energy/eV
      -------------------------------------------------------------
         1        2.0000           -0.7768669             -21.1396
       ...           ...                  ...                  ...
       311        2.0000           -0.4199771             -11.4282
       312        2.0000           -0.4198730             -11.4253
       313        2.0000           -0.4195774             -11.4173
       314        2.0000           -0.4173317             -11.3562
       315        2.0000           -0.4163823             -11.3303
       316        2.0000           -0.4081536             -11.1064
       317        2.0000           -0.4081464             -11.1062
       318        2.0000           -0.4079876             -11.1019
       319        2.0000           -0.4018308             -10.9344
       320        2.0000           -0.3974814             -10.8160
       321        2.0000           -0.3908962             -10.6368
       322        1.0319           -0.3682221             -10.0198
       323        0.9913           -0.3681353             -10.0175 (HOMO)
       324        0.9767           -0.3681041             -10.0166 (LUMO)
       325        0.0000           -0.3530170              -9.6061
       326                         -0.3459063              -9.4126
       327                         -0.3418653              -9.3026
       328                         -0.3418648              -9.3026
       329                         -0.3414127              -9.2903
       330                         -0.3410822              -9.2813
       331                         -0.3207393              -8.7278
       332                         -0.3144803              -8.5574
       333                         -0.3128523              -8.5131
       334                         -0.3090329              -8.4092
       ...                                ...                  ...
       671                          1.5960792              43.4315
      -------------------------------------------------------------
                  HL-Gap            0.0000312 Eh            0.0008 eV

Wiberg/Mayer (AO) data.
largest (>0.10) Wiberg bond orders for each atom

     #   Z sym  total        # sym  WBO       # sym  WBO       # sym  WBO
 ---------------------------------------------------------------------------
     1  29 Cu   2.188 --    41 N    0.506     7 N    0.505    20 N    0.503
                            27 N    0.502
     2   6 C    3.930 --     3 C    1.362    40 C    1.362    42 H    0.971
     3   6 C    3.916 --     2 C    1.362     7 N    1.229     4 C    1.170
     4   6 C    3.955 --     5 C    1.657     3 C    1.170    43 H    0.975
     5   6 C    3.958 --     4 C    1.657     6 C    1.171    44 H    0.973
     6   6 C    3.913 --     8 C    1.318     7 N    1.240     5 C    1.171
     7   7 N    3.244 --     6 C    1.240     3 C    1.229     1 Cu   0.505
     8   6 C    3.933 --    17 C    1.326     6 C    1.318     9 C    1.029
     9   6 C    3.963 --    16 C    1.386    10 C    1.386     8 C    1.029
    10   6 C    3.987 --    11 C    1.463     9 C    1.386    45 H    0.971
                            15 C    0.102
    11   6 C    3.993 --    10 C    1.463    12 C    1.364    46 H    0.972
                            16 C    0.102
    12   6 C    3.984 --    15 C    1.364    11 C    1.364    13 C    1.098
    13   6 C    3.958 --    14 N    2.820    12 C    1.098
    14   7 N    2.973 --    13 C    2.820
    15   6 C    3.993 --    16 C    1.463    12 C    1.364    47 H    0.972
                            10 C    0.102
    16   6 C    3.988 --    15 C    1.463     9 C    1.386    48 H    0.971
                            11 C    0.102
    17   6 C    3.907 --     8 C    1.326    20 N    1.222    18 C    1.179
    18   6 C    3.954 --    19 C    1.643    17 C    1.179    49 H    0.973
    19   6 C    3.956 --    18 C    1.643    21 C    1.187    50 H    0.974
    20   7 N    3.248 --    21 C    1.256    17 C    1.222     1 Cu   0.503
    21   6 C    3.895 --    22 C    1.258    20 N    1.256    19 C    1.187
    22   6 C    3.939 --    23 C    1.258    21 C    1.258   117 C    1.190
    23   6 C    3.895 --    22 C    1.258    27 N    1.257    24 C    1.187
    24   6 C    3.956 --    25 C    1.643    23 C    1.187    51 H    0.974
    25   6 C    3.954 --    24 C    1.643    26 C    1.179    52 H    0.973
    26   6 C    3.907 --    28 C    1.326    27 N    1.222    25 C    1.179
    27   7 N    3.248 --    23 C    1.257    26 C    1.222     1 Cu   0.502
    28   6 C    3.933 --    26 C    1.326    37 C    1.318    29 C    1.030
    29   6 C    3.963 --    36 C    1.386    30 C    1.385    28 C    1.030
    30   6 C    3.987 --    31 C    1.464    29 C    1.385    53 H    0.971
                            35 C    0.102
    31   6 C    3.993 --    30 C    1.464    32 C    1.364    54 H    0.972
                            36 C    0.102
    32   6 C    3.984 --    35 C    1.364    31 C    1.364    33 C    1.098
    33   6 C    3.958 --    34 N    2.819    32 C    1.098
    34   7 N    2.973 --    33 C    2.819
    35   6 C    3.993 --    36 C    1.463    32 C    1.364    55 H    0.972
                            30 C    0.102
    36   6 C    3.988 --    35 C    1.463    29 C    1.386    56 H    0.971
                            31 C    0.102
    37   6 C    3.913 --    28 C    1.318    41 N    1.240    38 C    1.171
    38   6 C    3.958 --    39 C    1.656    37 C    1.171    57 H    0.973
    39   6 C    3.955 --    38 C    1.656    40 C    1.170    58 H    0.975
    40   6 C    3.916 --     2 C    1.362    41 N    1.229    39 C    1.170
    41   7 N    3.244 --    37 C    1.240    40 C    1.229     1 Cu   0.506
    42   1 H    1.001 --     2 C    0.971
    43   1 H    0.997 --     4 C    0.975
    44   1 H    1.004 --     5 C    0.973
    45   1 H    1.003 --    10 C    0.971
    46   1 H    1.000 --    11 C    0.972
    47   1 H    1.000 --    15 C    0.972
    48   1 H    1.003 --    16 C    0.971
    49   1 H    1.004 --    18 C    0.973
    50   1 H    1.002 --    19 C    0.974
    51   1 H    1.001 --    24 C    0.974
    52   1 H    1.004 --    25 C    0.973
    53   1 H    1.003 --    30 C    0.971
    54   1 H    1.000 --    31 C    0.972
    55   1 H    1.000 --    35 C    0.972
    56   1 H    1.003 --    36 C    0.971
    57   1 H    1.004 --    38 C    0.973
    58   1 H    0.997 --    39 C    0.975
    59  29 Cu   2.188 --    99 N    0.506    65 N    0.505    78 N    0.503
                            85 N    0.502
    60   6 C    3.930 --    98 C    1.362    61 C    1.362   100 H    0.971
    61   6 C    3.916 --    60 C    1.362    65 N    1.229    62 C    1.170
    62   6 C    3.955 --    63 C    1.657    61 C    1.170   101 H    0.975
    63   6 C    3.958 --    62 C    1.657    64 C    1.171   102 H    0.973
    64   6 C    3.913 --    66 C    1.318    65 N    1.240    63 C    1.171
    65   7 N    3.244 --    64 C    1.240    61 C    1.229    59 Cu   0.505
    66   6 C    3.934 --    75 C    1.325    64 C    1.318    67 C    1.029
    67   6 C    3.963 --    74 C    1.386    68 C    1.386    66 C    1.029
    68   6 C    3.987 --    69 C    1.464    67 C    1.386   103 H    0.971
                            73 C    0.102
    69   6 C    3.993 --    68 C    1.464    70 C    1.364   104 H    0.972
                            74 C    0.102
    70   6 C    3.984 --    73 C    1.364    69 C    1.364    71 C    1.098
    71   6 C    3.958 --    72 N    2.819    70 C    1.098
    72   7 N    2.973 --    71 C    2.819
    73   6 C    3.993 --    74 C    1.463    70 C    1.364   105 H    0.972
                            68 C    0.102
    74   6 C    3.988 --    73 C    1.463    67 C    1.386   106 H    0.971
                            69 C    0.102
    75   6 C    3.908 --    66 C    1.325    78 N    1.223    76 C    1.179
    76   6 C    3.954 --    77 C    1.643    75 C    1.179   107 H    0.973
    77   6 C    3.956 --    76 C    1.643    79 C    1.186   108 H    0.974
    78   7 N    3.248 --    79 C    1.256    75 C    1.223    59 Cu   0.503
    79   6 C    3.896 --    80 C    1.259    78 N    1.256    77 C    1.186
    80   6 C    3.940 --    81 C    1.259    79 C    1.259   132 C    1.188
    81   6 C    3.896 --    80 C    1.259    85 N    1.256    82 C    1.186
    82   6 C    3.956 --    83 C    1.643    81 C    1.186   109 H    0.974
    83   6 C    3.954 --    82 C    1.643    84 C    1.179   110 H    0.973
    84   6 C    3.908 --    86 C    1.326    85 N    1.222    83 C    1.179
    85   7 N    3.248 --    81 C    1.256    84 C    1.222    59 Cu   0.502
    86   6 C    3.934 --    84 C    1.326    95 C    1.318    87 C    1.029
    87   6 C    3.963 --    94 C    1.386    88 C    1.385    86 C    1.029
    88   6 C    3.987 --    89 C    1.464    87 C    1.385   111 H    0.971
                            93 C    0.102
    89   6 C    3.993 --    88 C    1.464    90 C    1.364   112 H    0.972
                            94 C    0.102
    90   6 C    3.984 --    93 C    1.364    89 C    1.364    91 C    1.098
    91   6 C    3.958 --    92 N    2.820    90 C    1.098
    92   7 N    2.973 --    91 C    2.820
    93   6 C    3.993 --    94 C    1.463    90 C    1.364   113 H    0.972
                            88 C    0.102
    94   6 C    3.988 --    93 C    1.463    87 C    1.386   114 H    0.971
                            89 C    0.102
    95   6 C    3.913 --    86 C    1.318    99 N    1.240    96 C    1.171
    96   6 C    3.958 --    97 C    1.657    95 C    1.171   115 H    0.973
    97   6 C    3.955 --    96 C    1.657    98 C    1.170   116 H    0.975
    98   6 C    3.916 --    60 C    1.362    99 N    1.228    97 C    1.170
    99   7 N    3.244 --    95 C    1.240    98 C    1.228    59 Cu   0.506
   100   1 H    1.001 --    60 C    0.971
   101   1 H    0.997 --    62 C    0.975
   102   1 H    1.004 --    63 C    0.973
   103   1 H    1.003 --    68 C    0.971
   104   1 H    1.000 --    69 C    0.972
   105   1 H    1.000 --    73 C    0.972
   106   1 H    1.003 --    74 C    0.971
   107   1 H    1.004 --    76 C    0.973
   108   1 H    1.002 --    77 C    0.974
   109   1 H    1.001 --    82 C    0.974
   110   1 H    1.004 --    83 C    0.973
   111   1 H    1.003 --    88 C    0.971
   112   1 H    1.000 --    89 C    0.972
   113   1 H    1.000 --    93 C    0.972
   114   1 H    1.003 --    94 C    0.971
   115   1 H    1.004 --    96 C    0.973
   116   1 H    0.997 --    97 C    0.975
   117   6 C    3.877 --   118 C    2.441    22 C    1.190   120 C    0.187
   118   6 C    3.936 --   117 C    2.441   119 C    1.343
   119   6 C    3.893 --   120 C    2.337   118 C    1.343   122 C    0.182
   120   6 C    3.926 --   119 C    2.337   121 C    1.369   117 C    0.187
   121   6 C    3.925 --   122 C    2.336   120 C    1.369   124 C    0.186
   122   6 C    3.893 --   121 C    2.336   123 C    1.345   119 C    0.182
   123   6 C    3.933 --   124 C    2.438   122 C    1.345
   124   6 C    3.878 --   123 C    2.438   134 C    1.193   121 C    0.186
   125   6 C    3.877 --   126 C    2.440   154 C    1.191   128 C    0.186
   126   6 C    3.933 --   125 C    2.440   127 C    1.343
   127   6 C    3.893 --   128 C    2.338   126 C    1.343   130 C    0.182
   128   6 C    3.925 --   127 C    2.338   129 C    1.367   125 C    0.186
   129   6 C    3.926 --   130 C    2.339   128 C    1.367   132 C    0.187
   130   6 C    3.893 --   129 C    2.339   131 C    1.342   127 C    0.182
   131   6 C    3.936 --   132 C    2.443   130 C    1.342
   132   6 C    3.877 --   131 C    2.443    80 C    1.188   129 C    0.187
   133  29 Cu   2.155 --   152 N    0.497   173 N    0.497   159 N    0.497
                           139 N    0.497
   134   6 C    3.929 --   172 C    1.256   135 C    1.256   124 C    1.193
   135   6 C    3.896 --   139 N    1.259   134 C    1.256   136 C    1.187
   136   6 C    3.955 --   137 C    1.641   135 C    1.187   174 H    0.974
   137   6 C    3.955 --   136 C    1.641   138 C    1.180   175 H    0.973
   138   6 C    3.906 --   140 C    1.322   139 N    1.223   137 C    1.180
   139   7 N    3.241 --   135 C    1.259   138 C    1.223   133 Cu   0.497
   140   6 C    3.929 --   138 C    1.322   149 C    1.322   141 C    1.029
   141   6 C    3.963 --   148 C    1.386   142 C    1.386   140 C    1.029
   142   6 C    3.988 --   143 C    1.463   141 C    1.386   176 H    0.971
                           147 C    0.102
   143   6 C    3.993 --   142 C    1.463   144 C    1.364   177 H    0.972
                           148 C    0.102
   144   6 C    3.984 --   147 C    1.364   143 C    1.364   145 C    1.098
   145   6 C    3.958 --   146 N    2.820   144 C    1.098
   146   7 N    2.973 --   145 C    2.820
   147   6 C    3.993 --   148 C    1.463   144 C    1.364   178 H    0.972
                           142 C    0.102
   148   6 C    3.988 --   147 C    1.463   141 C    1.386   179 H    0.971
                           143 C    0.102
   149   6 C    3.906 --   140 C    1.322   152 N    1.224   150 C    1.180
   150   6 C    3.955 --   151 C    1.642   149 C    1.180   180 H    0.973
   151   6 C    3.955 --   150 C    1.642   153 C    1.187   181 H    0.974
   152   7 N    3.241 --   153 C    1.259   149 C    1.224   133 Cu   0.497
   153   6 C    3.896 --   152 N    1.259   154 C    1.256   151 C    1.187
   154   6 C    3.929 --   153 C    1.256   155 C    1.256   125 C    1.191
   155   6 C    3.896 --   159 N    1.259   154 C    1.256   156 C    1.187
   156   6 C    3.955 --   157 C    1.641   155 C    1.187   182 H    0.974
   157   6 C    3.955 --   156 C    1.641   158 C    1.180   183 H    0.973
   158   6 C    3.906 --   160 C    1.322   159 N    1.224   157 C    1.180
   159   7 N    3.241 --   155 C    1.259   158 C    1.224   133 Cu   0.497
   160   6 C    3.929 --   169 C    1.322   158 C    1.322   161 C    1.029
   161   6 C    3.963 --   168 C    1.386   162 C    1.386   160 C    1.029
   162   6 C    3.988 --   163 C    1.464   161 C    1.386   184 H    0.971
                           167 C    0.102
   163   6 C    3.993 --   162 C    1.464   164 C    1.364   185 H    0.972
                           168 C    0.102
   164   6 C    3.984 --   167 C    1.364   163 C    1.364   165 C    1.098
   165   6 C    3.958 --   166 N    2.820   164 C    1.098
   166   7 N    2.973 --   165 C    2.820
   167   6 C    3.993 --   168 C    1.463   164 C    1.364   186 H    0.972
                           162 C    0.102
   168   6 C    3.988 --   167 C    1.463   161 C    1.386   187 H    0.971
                           163 C    0.102
   169   6 C    3.906 --   160 C    1.322   173 N    1.223   170 C    1.180
   170   6 C    3.955 --   171 C    1.641   169 C    1.180   188 H    0.973
   171   6 C    3.955 --   170 C    1.641   172 C    1.187   189 H    0.974
   172   6 C    3.896 --   173 N    1.260   134 C    1.256   171 C    1.187
   173   7 N    3.241 --   172 C    1.260   169 C    1.223   133 Cu   0.497
   174   1 H    1.001 --   136 C    0.974
   175   1 H    1.004 --   137 C    0.973
   176   1 H    1.003 --   142 C    0.971
   177   1 H    1.000 --   143 C    0.972
   178   1 H    1.000 --   147 C    0.972
   179   1 H    1.003 --   148 C    0.971
   180   1 H    1.004 --   150 C    0.973
   181   1 H    1.001 --   151 C    0.974
   182   1 H    1.001 --   156 C    0.974
   183   1 H    1.004 --   157 C    0.973
   184   1 H    1.003 --   162 C    0.971
   185   1 H    1.000 --   163 C    0.972
   186   1 H    1.000 --   167 C    0.972
   187   1 H    1.003 --   168 C    0.971
   188   1 H    1.004 --   170 C    0.973
   189   1 H    1.001 --   171 C    0.974
 ---------------------------------------------------------------------------

           -------------------------------------------------
          | TOTAL ENERGY             -346.743415669326 Eh   |
          | GRADIENT NORM               0.000852626482 Eh/α |
          | HOMO-LUMO GAP               0.000849550344 eV   |
           -------------------------------------------------

 * finished run on 2022/07/30 at 14:41:29.703
