   * xtb version 6.5.1 (b24c23e) compiled by 'conda@728c89f4b128' on 2022-07-12
          program call               : xtb Fe_PhOH_C2_2.xyz --gfn 1 --opt -T 48

   ID    Z sym.   atoms
    1   26 Fe     1, 59
    2    6 C      2-6, 8-12, 14-18, 20-25, 27-31, 33-38, 60-64, 66-70, 72-76,
                  78-83, 85-89, 91-96, 117, 118
    3    7 N      7, 19, 26, 39, 65, 77, 84, 97
    4    8 O      13, 32, 71, 90
    5    1 H      40-58, 98-116
########################################################################
[WARNING] Please study the warnings concerning your input carefully
-1- prog_main_parseArguments: Unknown option '-T' provided
########################################################################

          :  Hamiltonian                  GFN1-xTB          :
 * total energy  :  -209.9698570 Eh     change       -0.1333771E-07 Eh
 * total energy  :  -210.1847477 Eh     change       -0.2148907E+00 Eh
 * total energy  :  -210.2583142 Eh     change       -0.7356652E-01 Eh
 * total energy  :  -210.2878843 Eh     change       -0.2957006E-01 Eh
 * total energy  :  -210.2989486 Eh     change       -0.1106430E-01 Eh
 * total energy  :  -210.3050907 Eh     change       -0.6142170E-02 Eh
 * total energy  :  -210.3085973 Eh     change       -0.3506603E-02 Eh
 * total energy  :  -210.3108041 Eh     change       -0.2206784E-02 Eh
 * total energy  :  -210.3123253 Eh     change       -0.1521144E-02 Eh
 * total energy  :  -210.3133346 Eh     change       -0.1009343E-02 Eh
 * total energy  :  -210.3154445 Eh     change       -0.1418826E-04 Eh
 * total energy  :  -210.3154739 Eh     change       -0.2934986E-04 Eh
 * total energy  :  -210.3154838 Eh     change       -0.9949569E-05 Eh
 * total energy  :  -210.3155080 Eh     change       -0.2413427E-04 Eh
 * total energy  :  -210.3155192 Eh     change       -0.1121917E-04 Eh
 * total energy  :  -210.3155293 Eh     change       -0.1008306E-04 Eh
 * total energy  :  -210.3155358 Eh     change       -0.6557461E-05 Eh
 * total energy  :  -210.3155412 Eh     change       -0.5356693E-05 Eh
 * total energy  :  -210.3155460 Eh     change       -0.4812060E-05 Eh
   *** GEOMETRY OPTIMIZATION CONVERGED AFTER 30 ITERATIONS ***

 final structure:
================
118
 xtb: 6.5.1 (b24c23e)
Fe          16.86919784280693       -0.05526227676215       -0.02320312878171
C           13.48801507416051       -0.10370948388255       -0.21906830444928
C           14.15354755457078       -1.31067129083298       -0.28019295170410
C           13.49156259402068       -2.57640572175851       -0.37754563119477
C           14.44797841292921       -3.52530129154611       -0.24327501210097
C           15.69648295401099       -2.83770734337907       -0.08082089362248
N           15.50574227505776       -1.48340639146660       -0.13493989830714
C           16.90295427606909       -3.47061447753420        0.20185352321012
C           16.91596466571329       -4.94750063303832        0.33752834106431
C           16.62219244338135       -5.76160109562136       -0.75625534989114
C           16.64031816046732       -7.14256439786864       -0.63522494014715
C           16.94739255496026       -7.72483519579515        0.59237002385622
O           16.97296092822589       -9.07248166423069        0.75587401804834
C           17.23906958983246       -6.92194087696134        1.69363473023676
C           17.22616136821030       -5.54472673529949        1.56141819758042
C           18.09781917215831       -2.78040281905916        0.35442926551919
C           19.35830399632444       -3.41108998288192        0.61037897923104
C           20.30224262086672       -2.44210774421794        0.53590897793426
N           18.27511442627145       -1.43287214198292        0.14579868905356
C           19.62011605267501       -1.22558691946471        0.22622859880373
C           20.28015238126972       -0.01830431274402       -0.03871822168259
C           19.59560615287499        1.17989706312652       -0.27699054664048
C           20.24878943564115        2.41833838334004       -0.56115010504193
C           19.28547036903660        3.37128726530969       -0.58382086386642
C           18.04406253619311        2.70898650002480       -0.31653603063348
N           18.24590207862423        1.35614648677220       -0.18475394293775
C           16.82838407493905        3.36628846927813       -0.17460968559730
C           16.82143498106875        4.84692104561742       -0.18966049939454
C           17.54895280409449        5.56377881197889        0.76441474807701
C           17.54609659723856        6.94686252607496        0.76597119299609
C           16.81842203985659        7.63736137417577       -0.20191425037651
O           16.84085719641582        8.99439003950545       -0.17460901927490
C           16.09443617330242        6.93647852999130       -1.16381577548748
C           16.09488114514984        5.55033703920291       -1.15107488843628
C           15.62161595062867        2.68911968254572       -0.02832980089989
C           14.34917649185124        3.33264677576811        0.12705918994312
C           13.40951973442736        2.35799736884546        0.08444731179031
C           14.11025079962043        1.11957598057195       -0.07063392712280
N           15.46294513073177        1.33164168804526       -0.10490619413838
H           12.40479078334227       -0.11942565376374       -0.26445997111105
H           12.42846393845889       -2.70274209293725       -0.50844682229419
H           14.32802481171350       -4.59649218182129       -0.23631280874848
H           16.39571662908500       -5.30938168169085       -1.71537744984534
H           16.41853454378469       -7.77151275887079       -1.49069995667360
H           16.75652038114925       -9.53160959220139       -0.06666797768005
H           17.47253562213201       -7.38868416103323        2.64258466792621
H           17.44228573302440       -4.91959289400307        2.42048020417793
H           19.49695096969434       -4.46188536671843        0.80540706750177
H           21.36723274919596       -2.53179176752487        0.67297932240830
H           21.30802846908367        2.53191388057664       -0.72315451509465
H           19.39553236980542        4.42637497867712       -0.77434222423516
H           18.10647243103298        5.02607540395680        1.52312992723256
H           18.10120582687139        7.50474773556080        1.50990480448746
H           16.30440157440327        9.37079638178109       -0.88512602497063
H           15.53534797474623        7.47826703248125       -1.91914344163732
H           15.54252250016327        5.00668708443437       -1.90937559127965
H           14.20491672682045        4.39342893110313        0.25322015002560
H           12.33750616748116        2.44980765608723        0.15860854576485
Fe          27.71851867254031        0.05135385804405       -0.03095607716575
C           31.09970395921925        0.07119805071716       -0.23168136534839
C           30.43417727110819        1.25690659815472       -0.46533901711496
C           31.09616987251961        2.49558154832282       -0.74324809193476
C           30.13975547599622        3.45392565932291       -0.74651407592661
C           28.89124442088366        2.79675130190932       -0.48712562931902
N           29.08198029829610        1.44869468499971       -0.34639543739036
C           27.68477506684557        3.46366790380135       -0.29817471992622
C           27.67177116259053        4.94474132951053       -0.37577337824221
C           27.96554678292950        5.59350361538439       -1.57503451893285
C           27.94742238695721        6.97754515003310       -1.65337235518163
C           27.64034633328000        7.72990663666950       -0.52201044281676
O           27.61477668019749        9.08706939523609       -0.55353523020534
C           27.34866927771268        7.09330793429116        0.68304785780747
C           27.36157621700301        5.71137175590710        0.74977744305501
C           26.48990766577086        2.80248733491670       -0.04816120066378
C           25.22942723205717        3.46337368874854        0.11467910256926
C           24.28548535607082        2.49373439456497        0.17999558128995
N           26.31260737764939        1.43896612762886       -0.06132219750310
C           24.96760594709389        1.24536748136889        0.04802710484993
C           24.30756389528874        0.01256627809366       -0.04098147487013
C           24.99210343511570       -1.20742731941864       -0.10492984479906
C           24.33891310920484       -2.47381906746753       -0.20850882483785
C           25.30222776621739       -3.42017204882028       -0.09426405404492
C           26.54364560373426       -2.72638529063991        0.07519084892231
N           26.34181107692923       -1.36863019985777        0.01158968106572
C           27.75931112048919       -3.35653659288956        0.30995329192403
C           27.76621106972784       -4.82400674172135        0.50753489321227
C           27.03867679228368       -5.39647119872740        1.55463030952115
C           27.04174123353391       -6.76498939061981        1.75486111539460
C           27.76950382295274       -7.58727645008654        0.89620206081001
O           27.74711081230257       -8.92632348990313        1.11807261949677
C           28.49333975702885       -7.03175385217724       -0.15646299705758
C           28.49281031817270       -5.65814767120810       -0.34290727679137
C           28.96608461435297       -2.66539177200642        0.35760889123229
C           30.23851648418269       -3.27997287284739        0.60374513082588
C           31.17817741495623       -2.32151237647250        0.42181580086978
C           30.47745826952150       -1.11814269337162        0.09067479111949
N           29.12476568085710       -1.33293351891065        0.08712248641750
H           32.18292986115370        0.08024178476231       -0.27881205336829
H           32.15927189077517        2.60182954059180       -0.89089548349492
H           30.25971346367767        4.51503509104020       -0.89329157658563
H           28.19202454313601        5.00836360062460       -2.45935788714444
H           28.16920737583266        7.47725867280638       -2.59022841095978
H           27.83121598950986        9.42344365565526       -1.43343675696757
H           27.11520329572279        7.69136216687235        1.55522132806977
H           27.14545186031367        5.21594796689582        1.68963658880747
H           25.09078557550873        4.53127908312895        0.15694969380189
H           23.22049672043433        2.60215894561663        0.30279365943073
H           23.27966820554522       -2.60945072562858       -0.35251294078289
H           25.19216119911406       -4.49167828448868       -0.13146777773018
H           26.48140374047011       -4.75538968691880        2.22846424456720
H           26.48659417664616       -7.21029595266882        2.57115431136866
H           28.28352008247116       -9.40083374320641        0.46891657676772
H           29.05246416844932       -7.67636909988198       -0.82615555235700
H           29.04513847584643       -5.22900042957526       -1.17142401734537
H           30.38277071474997       -4.31169291641835        0.88074468540027
H           32.25018593848426       -2.40173419450233        0.50842626637959
C           21.68439880590816       -0.00664871100773       -0.04526614307184
C           22.90331694500719        0.00009588789216       -0.04576338665624

          :  Hamiltonian                  GFN1-xTB          :
         :: total energy            -210.315545995205 Eh    ::
         :: gradient norm              0.000610372668 Eh/a0 ::
         :: HOMO-LUMO gap              0.089779314931 eV    ::
         :: SCC energy              -213.450076185596 Eh    ::
         :: repulsion energy           3.242522225898 Eh    ::

    * Orbital Energies and Occupations

         #    Occupation            Energy/Eh            Energy/eV
      -------------------------------------------------------------
         1        2.0000           -0.8064798             -21.9454
       ...           ...                  ...                  ...
       179        2.0000           -0.4217813             -11.4773
       180        2.0000           -0.4199421             -11.4272
       181        2.0000           -0.4197885             -11.4230
       182        2.0000           -0.3964771             -10.7887
       183        2.0000           -0.3951576             -10.7528
       184        2.0000           -0.3951489             -10.7525
       185        1.9925           -0.3862999             -10.5118
       186        1.9919           -0.3862289             -10.5098
       187        1.9517           -0.3845095             -10.4630
       188        1.9507           -0.3844884             -10.4625
       189        1.9483           -0.3844431             -10.4612
       190        1.9483           -0.3844421             -10.4612
       191        1.7022           -0.3826509             -10.4125 (HOMO)
       192        0.3013           -0.3793516             -10.3227 (LUMO)
       193        0.2131           -0.3789744             -10.3124
       194                         -0.3372363              -9.1767
       195                         -0.3257140              -8.8631
       196                         -0.3257032              -8.8628
       197                         -0.3200571              -8.7092
       198                         -0.2978605              -8.1052
       199                         -0.2977471              -8.1021
       200                         -0.2953186              -8.0360
       201                         -0.2864354              -7.7943
       202                         -0.2682798              -7.3003
       ...                                ...                  ...
       406                          1.3344539              36.3123
      -------------------------------------------------------------
                  HL-Gap            0.0032993 Eh            0.0898 eV

Wiberg/Mayer (AO) data.
largest (>0.10) Wiberg bond orders for each atom

     #   Z sym  total        # sym  WBO       # sym  WBO       # sym  WBO
 ---------------------------------------------------------------------------
     1  26 Fe   3.172 --     7 N    0.672    26 N    0.665    39 N    0.664
                            19 N    0.660
     2   6 C    3.922 --     3 C    1.365    38 C    1.359    40 H    0.970
     3   6 C    3.926 --     2 C    1.365     7 N    1.208     4 C    1.173
     4   6 C    3.959 --     5 C    1.649     3 C    1.173    41 H    0.975
     5   6 C    3.962 --     4 C    1.649     6 C    1.176    42 H    0.973
     6   6 C    3.920 --     8 C    1.313     7 N    1.226     5 C    1.176
     7   7 N    3.379 --     6 C    1.226     3 C    1.208     1 Fe   0.672
     8   6 C    3.924 --    16 C    1.333     6 C    1.313     9 C    1.025
     9   6 C    3.987 --    10 C    1.394    15 C    1.384     8 C    1.025
    10   6 C    3.987 --    11 C    1.452     9 C    1.394    43 H    0.973
                            14 C    0.105
    11   6 C    3.988 --    10 C    1.452    12 C    1.372    44 H    0.970
                            15 C    0.102
    12   6 C    3.901 --    11 C    1.372    14 C    1.364    13 O    1.041
    13   8 O    2.044 --    12 C    1.041    45 H    0.865
    14   6 C    3.990 --    15 C    1.466    12 C    1.364    46 H    0.971
                            10 C    0.105
    15   6 C    3.987 --    14 C    1.466     9 C    1.384    47 H    0.973
                            11 C    0.102
    16   6 C    3.917 --     8 C    1.333    19 N    1.199    17 C    1.181
    17   6 C    3.957 --    18 C    1.636    16 C    1.181    48 H    0.973
    18   6 C    3.961 --    17 C    1.636    20 C    1.190    49 H    0.969
    19   7 N    3.378 --    20 C    1.246    16 C    1.199     1 Fe   0.660
    20   6 C    3.910 --    21 C    1.251    19 N    1.246    18 C    1.190
    21   6 C    3.922 --    22 C    1.254    20 C    1.251   117 C    1.195
    22   6 C    3.909 --    21 C    1.254    26 N    1.243    23 C    1.191
    23   6 C    3.960 --    24 C    1.634    22 C    1.191    50 H    0.969
    24   6 C    3.957 --    23 C    1.634    25 C    1.182    51 H    0.973
    25   6 C    3.918 --    27 C    1.328    26 N    1.203    24 C    1.182
    26   7 N    3.380 --    22 C    1.243    25 C    1.203     1 Fe   0.665
    27   6 C    3.924 --    25 C    1.328    35 C    1.312    28 C    1.033
    28   6 C    3.987 --    34 C    1.391    29 C    1.380    27 C    1.033
    29   6 C    3.986 --    30 C    1.469    28 C    1.380    52 H    0.973
                            33 C    0.102
    30   6 C    3.990 --    29 C    1.469    31 C    1.362    53 H    0.971
                            34 C    0.104
    31   6 C    3.899 --    33 C    1.371    30 C    1.362    32 O    1.042
    32   8 O    2.044 --    31 C    1.042    54 H    0.865
    33   6 C    3.988 --    34 C    1.453    31 C    1.371    55 H    0.970
                            29 C    0.102
    34   6 C    3.986 --    33 C    1.453    28 C    1.391    56 H    0.972
                            30 C    0.104
    35   6 C    3.921 --    27 C    1.312    39 N    1.224    36 C    1.177
    36   6 C    3.962 --    37 C    1.646    35 C    1.177    57 H    0.973
    37   6 C    3.959 --    36 C    1.646    38 C    1.175    58 H    0.975
    38   6 C    3.926 --     2 C    1.359    39 N    1.211    37 C    1.175
    39   7 N    3.376 --    35 C    1.224    38 C    1.211     1 Fe   0.664
    40   1 H    1.001 --     2 C    0.970
    41   1 H    0.998 --     4 C    0.975
    42   1 H    1.005 --     5 C    0.973
    43   1 H    1.004 --    10 C    0.973
    44   1 H    0.999 --    11 C    0.970
    45   1 H    0.887 --    13 O    0.865
    46   1 H    0.999 --    14 C    0.971
    47   1 H    1.004 --    15 C    0.973
    48   1 H    1.005 --    17 C    0.973
    49   1 H    1.006 --    18 C    0.969
    50   1 H    1.005 --    23 C    0.969
    51   1 H    1.004 --    24 C    0.973
    52   1 H    1.005 --    29 C    0.973
    53   1 H    0.999 --    30 C    0.971
    54   1 H    0.886 --    32 O    0.865
    55   1 H    0.999 --    33 C    0.970
    56   1 H    1.005 --    34 C    0.972
    57   1 H    1.005 --    36 C    0.973
    58   1 H    0.998 --    37 C    0.975
    59  26 Fe   3.172 --    65 N    0.672    84 N    0.665    97 N    0.664
                            77 N    0.660
    60   6 C    3.922 --    61 C    1.365    96 C    1.359    98 H    0.970
    61   6 C    3.926 --    60 C    1.365    65 N    1.208    62 C    1.173
    62   6 C    3.959 --    63 C    1.649    61 C    1.173    99 H    0.975
    63   6 C    3.962 --    62 C    1.649    64 C    1.176   100 H    0.973
    64   6 C    3.920 --    66 C    1.313    65 N    1.226    63 C    1.176
    65   7 N    3.379 --    64 C    1.226    61 C    1.208    59 Fe   0.672
    66   6 C    3.924 --    74 C    1.333    64 C    1.313    67 C    1.025
    67   6 C    3.987 --    68 C    1.394    73 C    1.384    66 C    1.025
    68   6 C    3.987 --    69 C    1.452    67 C    1.394   101 H    0.973
                            72 C    0.105
    69   6 C    3.988 --    68 C    1.452    70 C    1.372   102 H    0.970
                            73 C    0.102
    70   6 C    3.901 --    69 C    1.372    72 C    1.364    71 O    1.041
    71   8 O    2.044 --    70 C    1.041   103 H    0.865
    72   6 C    3.990 --    73 C    1.466    70 C    1.364   104 H    0.971
                            68 C    0.105
    73   6 C    3.987 --    72 C    1.466    67 C    1.384   105 H    0.973
                            69 C    0.102
    74   6 C    3.917 --    66 C    1.333    77 N    1.199    75 C    1.181
    75   6 C    3.957 --    76 C    1.636    74 C    1.181   106 H    0.973
    76   6 C    3.961 --    75 C    1.636    78 C    1.190   107 H    0.969
    77   7 N    3.378 --    78 C    1.246    74 C    1.199    59 Fe   0.660
    78   6 C    3.910 --    79 C    1.251    77 N    1.246    76 C    1.190
    79   6 C    3.922 --    80 C    1.254    78 C    1.251   118 C    1.195
    80   6 C    3.909 --    79 C    1.254    84 N    1.243    81 C    1.191
    81   6 C    3.960 --    82 C    1.634    80 C    1.191   108 H    0.969
    82   6 C    3.957 --    81 C    1.634    83 C    1.182   109 H    0.973
    83   6 C    3.918 --    85 C    1.328    84 N    1.203    82 C    1.182
    84   7 N    3.380 --    80 C    1.243    83 C    1.203    59 Fe   0.665
    85   6 C    3.924 --    83 C    1.328    93 C    1.312    86 C    1.033
    86   6 C    3.987 --    92 C    1.391    87 C    1.380    85 C    1.033
    87   6 C    3.986 --    88 C    1.469    86 C    1.380   110 H    0.973
                            91 C    0.102
    88   6 C    3.990 --    87 C    1.469    89 C    1.362   111 H    0.971
                            92 C    0.104
    89   6 C    3.899 --    91 C    1.371    88 C    1.362    90 O    1.042
    90   8 O    2.044 --    89 C    1.042   112 H    0.865
    91   6 C    3.988 --    92 C    1.453    89 C    1.371   113 H    0.970
                            87 C    0.102
    92   6 C    3.986 --    91 C    1.453    86 C    1.391   114 H    0.972
                            88 C    0.104
    93   6 C    3.921 --    85 C    1.312    97 N    1.224    94 C    1.177
    94   6 C    3.962 --    95 C    1.646    93 C    1.177   115 H    0.973
    95   6 C    3.959 --    94 C    1.646    96 C    1.175   116 H    0.975
    96   6 C    3.926 --    60 C    1.359    97 N    1.211    95 C    1.175
    97   7 N    3.376 --    93 C    1.224    96 C    1.211    59 Fe   0.664
    98   1 H    1.001 --    60 C    0.970
    99   1 H    0.998 --    62 C    0.975
   100   1 H    1.005 --    63 C    0.973
   101   1 H    1.004 --    68 C    0.973
   102   1 H    0.999 --    69 C    0.970
   103   1 H    0.887 --    71 O    0.865
   104   1 H    0.999 --    72 C    0.971
   105   1 H    1.004 --    73 C    0.973
   106   1 H    1.005 --    75 C    0.973
   107   1 H    1.006 --    76 C    0.969
   108   1 H    1.005 --    81 C    0.969
   109   1 H    1.004 --    82 C    0.973
   110   1 H    1.005 --    87 C    0.973
   111   1 H    0.999 --    88 C    0.971
   112   1 H    0.886 --    90 O    0.865
   113   1 H    0.999 --    91 C    0.970
   114   1 H    1.005 --    92 C    0.972
   115   1 H    1.005 --    94 C    0.973
   116   1 H    0.998 --    95 C    0.975
   117   6 C    3.923 --   118 C    2.549    21 C    1.195
   118   6 C    3.923 --   117 C    2.549    79 C    1.195
 ---------------------------------------------------------------------------

           -------------------------------------------------
          | TOTAL ENERGY             -210.315545995205 Eh   |
          | GRADIENT NORM               0.000610372668 Eh/α |
          | HOMO-LUMO GAP               0.089779314931 eV   |
           -------------------------------------------------

 * finished run on 2022/07/29 at 19:44:03.472
