   * xtb version 6.5.1 (b24c23e) compiled by 'conda@728c89f4b128' on 2022-07-12
          program call               : xtb Co_p-CP_C6_3.xyz --gfn 1 --opt -T 48

   ID    Z sym.   atoms
    1   27 Co     1, 63, 137
    2    6 C      2-6, 8-11, 13-24, 27-32, 35-39, 42, 43, 64-68, 70-73,
                  75-86, 89-94, 97-101, 104, 105, 125-136, 138-142, 144-147,
                  149-160, 163-168, 171-175, 178, 179
    3    7 N      7, 12, 33, 34, 69, 74, 95, 96, 143, 148, 169, 170
    4    8 O      25, 26, 40, 41, 87, 88, 102, 103, 161, 162, 176, 177
    5    1 H      44-62, 106-124, 180-197

          :  Hamiltonian                  GFN1-xTB          :
 * total energy  :  -375.3022263 Eh     change        0.6055984E-08 Eh
 * total energy  :  -375.7372247 Eh     change       -0.4349984E+00 Eh
 * total energy  :  -375.8908197 Eh     change       -0.1535950E+00 Eh
 * total energy  :  -376.0022943 Eh     change       -0.1114746E+00 Eh
 * total energy  :  -376.0747242 Eh     change       -0.7242988E-01 Eh
 * total energy  :  -376.1147455 Eh     change       -0.4002133E-01 Eh
 * total energy  :  -376.1409177 Eh     change       -0.2617225E-01 Eh
 * total energy  :  -376.1580405 Eh     change       -0.1712280E-01 Eh
 * total energy  :  -376.1682587 Eh     change       -0.1021815E-01 Eh
 * total energy  :  -376.1762972 Eh     change       -0.8038544E-02 Eh
 * total energy  :  -376.2135180 Eh     change       -0.2888781E-04 Eh
 * total energy  :  -376.2135312 Eh     change       -0.1321998E-04 Eh
 * total energy  :  -376.2135621 Eh     change       -0.3093981E-04 Eh
 * total energy  :  -376.2135719 Eh     change       -0.9762128E-05 Eh
 * total energy  :  -376.2135972 Eh     change       -0.2530839E-04 Eh
 * total energy  :  -376.2136064 Eh     change       -0.9214539E-05 Eh
 * total energy  :  -376.2136213 Eh     change       -0.1484457E-04 Eh
 * total energy  :  -376.2136258 Eh     change       -0.4573366E-05 Eh
 * total energy  :  -376.2136305 Eh     change       -0.4704211E-05 Eh
   *** GEOMETRY OPTIMIZATION CONVERGED AFTER 62 ITERATIONS ***

 final structure:
================
197
 xtb: 6.5.1 (b24c23e)
Co          33.48081938990478       -0.05265713243825        0.00680429335378
C           30.10984184197570       -0.14845844175470        0.03758490433097
C           30.78498622521110       -0.43667787670685        1.20405267966106
C           30.13935600735856       -0.77504555349118        2.43601800415038
C           31.09883874227436       -0.77425649980996        3.39043670263626
C           32.33269857830396       -0.44203033120519        2.73935857541188
N           32.13607115493419       -0.28446623074365        1.39096554240369
C           33.51086158201666       -0.14226767451686        3.40915585772929
C           34.67691591719520        0.18878568929605        2.73599320802300
C           35.92114639608683        0.48114116036984        3.38207998691846
C           36.86704045551725        0.51542677688355        2.41321980133523
N           34.85526600519509        0.09503242694048        1.37420489111786
C           36.20064172732438        0.24117767899306        1.17956001709889
C           36.87141865281421       -0.00318931423382       -0.02092082071444
C           36.18430153507250       -0.24543666195986       -1.21201580163984
C           36.83104293479663       -0.51372357082235       -2.45725744838840
C           35.86988389135122       -0.47165597836547       -3.41134813207235
C           34.63863582560391       -0.17199734610210       -2.74463704619625
C           33.44557142389457        0.10711827170550       -3.39581437050639
C           33.43353971426445        0.18371840030986       -4.87337373439688
C           32.61107472561719       -0.66352450752379       -5.62103273699168
C           32.60024314133489       -0.58601894350246       -7.00138190035458
C           33.40763931744003        0.34303930164236       -7.66039265347745
C           33.35634718852805        0.39237368089683       -9.14121908718730
O           34.17190538447877        1.31346162974677       -9.67637682270679
O           32.65818404681895       -0.31542416661019       -9.82157725666772
C           34.23067230855214        1.19113808008985       -6.91873830941008
C           34.24400830717194        1.10819151510721       -5.53751166088065
C           32.26162855602428        0.30859325416265       -2.69898407674621
C           31.00579458179320        0.62778815157893       -3.31330621698925
C           30.06336844212214        0.54095507806489       -2.34545533953342
C           30.74574369549584        0.18746356684385       -1.13804114436539
N           32.09941260772621        0.11067938587442       -1.35141211714630
N           34.83525275626562       -0.10060777300801       -1.38516425566220
C           33.52295814007063       -0.18715557004773        4.89073373646966
C           33.35833071060471       -1.40377398807095        5.55689219440354
C           33.36946515642176       -1.44810656879546        6.93886584897205
C           33.54017644379933       -0.27645737861242        7.67863963010163
C           33.54066299811389       -0.37516543780577        9.15799868245997
O           33.70571557644190        0.80454439753973        9.77501746202856
O           33.40745475494052       -1.40375779867351        9.77085331551101
C           33.70316945447311        0.94080962005598        7.01684655155619
C           33.69688487706917        0.98244718239676        5.63322020123269
H           29.02676921141065       -0.17799218642270        0.04799242125585
H           29.08275676891397       -0.96375188295981        2.53992772270162
H           30.99083457133523       -0.95806985972382        4.44702907540431
H           36.04723985338699        0.61645842827416        4.44384203844547
H           37.92649217294359        0.68942025044011        2.51051858725230
H           37.88725981453812       -0.69748222555142       -2.57064490936420
H           35.97329759743481       -0.62864325597003       -4.47264188919712
H           31.99309840112744       -1.39450509535111       -5.11216096425834
H           31.96776728496752       -1.24337338597141       -7.58786704345722
H           34.07899094618827        1.28198108821216      -10.64237845587948
H           34.85687056069811        1.91548452766651       -7.42599482509463
H           34.87377418100868        1.77609573508663       -4.96067306195298
H           30.87559902949463        0.87954874955626       -4.35327443923038
H           28.99874039729379        0.69384054411235       -2.42289297596639
H           33.23602807753596       -2.31524474776924        4.98302103394898
H           33.24704182216342       -2.38913749338641        7.46377944825323
H           33.69400439760787        0.65389469442056       10.73419615014524
H           33.83281304381093        1.85268503203791        7.58765682224264
H           33.81229139970276        1.92954839202105        5.11845971547361
Co          65.37997323105276       -0.03969357040388       -0.03984465922466
C           68.75055169088138       -0.13026777371073       -0.08636988483508
C           68.07383664999745       -0.28380323892569       -1.27727984745813
C           68.71748184152092       -0.47943895814339       -2.54079850219396
C           67.75624781620928       -0.37073667024489       -3.48731272015646
C           66.52360675302018       -0.11487819719342       -2.80046344840874
N           66.72242288052976       -0.11199472146854       -1.44339205970292
C           65.34463205893941        0.26094140936518       -3.42976893901604
C           64.18050060559455        0.51594810834541       -2.72129017128024
C           62.93630245849489        0.88501964751889       -3.32694163598458
C           61.99232786456295        0.81182953686808       -2.35827702992174
N           64.00398180058390        0.26685797252011       -1.37887585532600
C           62.65993270522327        0.39488813493853       -1.16589470781381
C           61.98979300989537        0.01317754872291       -0.00085297624081
C           62.67807687310929       -0.37053965508868        1.15235092218830
C           62.03246901769590       -0.78451008754798        2.35761301474437
C           62.99525321593163       -0.85915114971263        3.30811956174808
C           64.22600909702375       -0.48374649517139        2.67988334374242
C           65.42001326444436       -0.28337716593194        3.35757715007980
C           65.43440344481213       -0.38184840496171        4.83375121657613
C           66.25954808741805       -1.30981721613712        5.47503906387641
C           66.27250941645021       -1.39551384242645        6.85489982281392
C           65.46474973098272       -0.55202236432069        7.61997088926510
C           65.51851943766670       -0.67733809892656        9.09634440826156
O           64.70304330581737        0.17338114436701        9.73730453948388
O           66.21863674845210       -1.45952549711066        9.68729875108288
C           64.63907925858162        0.37606761933358        6.98472233206792
C           64.62351661575011        0.45644261429247        5.60337081278604
C           66.60280429847460        0.00093983812938        2.68764722120068
C           67.85898194821881        0.24821445471295        3.33354201689197
C           68.80002665674692        0.27764001671133        2.36082715508400
C           68.11628784520981        0.06661174722500        1.12130207073610
N           66.76314963632993       -0.03741840855995        1.32615285666632
N           64.02729307234837       -0.25022021794461        1.33888803577706
C           65.33085829462838        0.38603321673373       -4.90669320229733
C           65.49100660115589       -0.74673149165505       -5.70806102631608
C           65.47940698396400       -0.63218279405220       -7.08599790558267
C           65.31297295436413        0.61721661075465       -7.68636993769014
C           65.31281527624685        0.68899172507153       -9.16730729913631
O           65.15501004157737        1.93265819452435       -9.64474700667938
O           65.44106130425021       -0.26316424293890       -9.89416755510292
C           65.15415003821764        1.75107261637426       -6.88922590613932
C           65.16059240936973        1.63366058918650       -5.50996847185526
H           69.83364844120895       -0.15703269422091       -0.10179157651085
H           69.77393427857810       -0.65464214876383       -2.66732678101768
H           67.86234483757947       -0.43321722738381       -4.55814226457761
H           62.80889985478176        1.14155474632449       -4.36595246812452
H           60.93343187004663        1.00005247799736       -2.43242765305005
H           60.97601077576865       -0.97821517546767        2.45017038802436
H           62.89315149720701       -1.14209573298514        4.34309499434847
H           66.87784696292445       -1.97460054220100        4.88263622414615
H           66.90704185200941       -2.11623362513278        7.35892439331807
H           64.79734037753641        0.02886736775230       10.69281514193420
H           64.01257407695432        1.03445343622222        7.57471912028091
H           63.99181325637361        1.18660931865502        5.11018797563172
H           67.99033494772620        0.37643303176092        4.39569220085804
H           69.86448627838898        0.42253438005137        2.45422400839729
H           65.61042269444822       -1.71840260603758       -5.24259084186949
H           65.59840970822600       -1.50719345009855       -7.71549213480784
H           65.16731423825223        1.89326571716346      -10.61487887133600
H           65.02773370574900        2.72286636832607       -7.35158406005930
H           65.04849148384267        2.51579471617700       -4.88983915212183
C           42.07307695370331        0.00427274713790       -0.03156454749003
C           40.84452768088660        0.00533657292179       -0.03588641603923
C           39.49972116839622        0.00349142070637       -0.03381729684664
C           38.27595947366265       -0.00133703114393       -0.02995116692381
C           43.41751573554083        0.00555989639463       -0.02856384315685
C           44.64171775726966        0.00672384509777       -0.02456852492793
C           58.01802160540199        0.01764113521777        0.02162293588620
C           56.78915372072673        0.01595426043014        0.01959648590857
C           55.44538694185029        0.01441909715903        0.01640662603953
C           54.22092505220141        0.01172449848933        0.01154021969822
C           59.36210809158813        0.01785062877892        0.01850430426273
C           60.58618599950267        0.01643074125679        0.01049171136279
Co          49.43187049115977        0.00713829818814       -0.04834279871318
C           46.04440157804264        0.00698258847609       -0.02064668621023
C           46.72901108554846       -1.17861755668678       -0.30640638552076
C           46.09159312308006       -2.40937375437479       -0.65031258156962
C           47.04854754798898       -3.36922683028263       -0.60351676000323
C           48.26515211449606       -2.72046809447351       -0.21885408628638
N           48.06867387091668       -1.36456460667403       -0.11021516670374
C           49.43338434454382       -3.37879646520120        0.14469877606986
C           50.59920682701825       -2.68792768058796        0.44861634576278
C           51.81697969741588       -3.29855966861370        0.88888184983793
C           52.77241588540266       -2.33732323700225        0.84967400912189
N           50.79200759653145       -1.34417454226746        0.22880646701132
C           52.13303450444835       -1.14271938550576        0.39776152991056
C           52.81899237158939        0.01087667807970        0.00475712474750
C           52.13655069169500        1.16364520903312       -0.39783030969288
C           52.77730492431247        2.35648357870468       -0.85180569509606
C           51.82079279331807        3.31655858840605       -0.90226847132183
C           50.60096873514461        2.70681973257892       -0.46700753150001
C           49.43078971917252        3.39605738394059       -0.17518165654947
C           49.42978528732685        4.87280216595644       -0.24785657623265
C           50.32720403245106        5.61912610787054        0.52098277072116
C           50.32271463984980        7.00000114517073        0.45411235244627
C           49.42589766710265        7.66077306186102       -0.38737057092385
C           49.46221643824972        9.14278220005528       -0.42712646589879
O           48.55970716527477        9.67925009569801       -1.26168302692002
O           50.21865999495540        9.82155615686078        0.21925758356481
C           48.53044848815476        6.92047039174136       -1.15971992774415
C           48.53196075315716        5.53864204233642       -1.08652617935098
C           48.26184249152347        2.73628425394889        0.18268671817441
C           47.04122979124526        3.38531396109453        0.55472382408778
C           46.08572307072130        2.42433892550107        0.59927227355909
C           46.72773854650536        1.19261125348381        0.26650323644823
N           48.07038284943038        1.37799593358288        0.08890572255311
N           50.79585255323721        1.36689429614413       -0.22998510489666
C           49.43602001954389       -4.85608699121806        0.20603816175895
C           48.53380608909008       -5.53230906878371        1.03197285790719
C           48.53834755368274       -6.91380256795282        1.08613431638971
C           49.44003805482245       -7.64545003930895        0.31108012800832
C           49.40178510534648       -9.12551938004674        0.39856186756696
O           50.30708469388687       -9.73252152944879       -0.38299736065274
O           48.64039592027330       -9.74532223643610        1.09628352635042
C           50.34144814961672       -6.97540183402184       -0.51644667231373
C           50.33987994906561       -5.59249890180532       -0.56439794703962
H           45.04429660450128       -2.51228069927676       -0.88422245426602
H           46.94860396986050       -4.42293105301799       -0.80663867682168
H           51.91839794095020       -4.33041185636475        1.18317052127157
H           53.82036905070909       -2.41732715291556        1.08960977903947
H           53.82632369474483        2.43649819754432       -1.08693215456131
H           51.92262879730209        4.34654961163439       -1.20303008930702
H           51.01517599166908        5.10846916260864        1.18508136806128
H           51.01197310327941        7.58550334984124        1.05255497039990
H           48.64710124997169       10.64580261428682       -1.22960459614609
H           47.83549558488695        7.42920752371204       -1.81716608087007
H           47.84528209725203        4.96313676333771       -1.69691544138030
H           46.93800956164993        4.44025826095115        0.74989566377010
H           45.03620441521587        2.52640917456593        0.82344976220674
H           47.84165068792077       -4.96566959321711        1.64426890222967
H           47.84495191709449       -7.44498896490558        1.72890735753370
H           50.21740731648782      -10.69274434285938       -0.26986033041491
H           51.04070784462681       -7.53952712609784       -1.12216235603343
H           51.03086870148523       -5.07237701393783       -1.21815379904356

          :  Hamiltonian                  GFN1-xTB          :
         :: total energy            -376.213630547863 Eh    ::
         :: gradient norm              0.000696755151 Eh/a0 ::
         :: HOMO-LUMO gap              0.004486806620 eV    ::
         :: SCC energy              -381.849241463023 Eh    ::
         :: repulsion energy           5.810085953045 Eh    ::

    * Orbital Energies and Occupations

         #    Occupation            Energy/Eh            Energy/eV
      -------------------------------------------------------------
         1        2.0000           -0.8357602             -22.7422
       ...           ...                  ...                  ...
       324        2.0000           -0.4062612             -11.0549
       325        2.0000           -0.4059880             -11.0475
       326        1.9999           -0.4042652             -11.0006
       327        1.9998           -0.4031782             -10.9710
       328        1.9998           -0.4030163             -10.9666
       329        1.9997           -0.4027501             -10.9594
       330        1.9996           -0.4026543             -10.9568
       331        1.9996           -0.4026329             -10.9562
       332        1.9996           -0.4025300             -10.9534
       333        1.9954           -0.4002303             -10.8908
       334        1.8064           -0.3965463             -10.7906
       335        1.1012           -0.3944936             -10.7347
       336        1.0889           -0.3944676             -10.7340 (HOMO)
       337        1.0101           -0.3943027             -10.7295 (LUMO)
       338                         -0.3519009              -9.5757
       339                         -0.3435135              -9.3475
       340                         -0.3429805              -9.3330
       341                         -0.3411512              -9.2832
       342                         -0.3395545              -9.2397
       343                         -0.3390539              -9.2261
       344                         -0.3234643              -8.8019
       345                         -0.3163298              -8.6078
       346                         -0.3159846              -8.5984
       347                         -0.3116788              -8.4812
       ...                                ...                  ...
       691                          1.5649480              42.5844
      -------------------------------------------------------------
                  HL-Gap            0.0001649 Eh            0.0045 eV

Wiberg/Mayer (AO) data.
largest (>0.10) Wiberg bond orders for each atom

     #   Z sym  total        # sym  WBO       # sym  WBO       # sym  WBO
 ---------------------------------------------------------------------------
     1  27 Co   3.046 --    33 N    0.642     7 N    0.642    12 N    0.638
                            34 N    0.637
     2   6 C    3.932 --     3 C    1.366    32 C    1.366    44 H    0.970
     3   6 C    3.923 --     2 C    1.366     7 N    1.200     4 C    1.173
     4   6 C    3.960 --     5 C    1.652     3 C    1.173    45 H    0.975
     5   6 C    3.963 --     4 C    1.652     6 C    1.175    46 H    0.973
     6   6 C    3.919 --     8 C    1.322     7 N    1.210     5 C    1.175
     7   7 N    3.350 --     6 C    1.210     3 C    1.200     1 Co   0.642
     8   6 C    3.935 --     9 C    1.333     6 C    1.322    35 C    1.023
     9   6 C    3.915 --     8 C    1.333    12 N    1.192    10 C    1.180
    10   6 C    3.958 --    11 C    1.640     9 C    1.180    47 H    0.973
    11   6 C    3.962 --    10 C    1.640    13 C    1.188    48 H    0.973
    12   7 N    3.351 --    13 C    1.227     9 C    1.192     1 Co   0.638
    13   6 C    3.903 --    14 C    1.263    12 N    1.227    11 C    1.188
    14   6 C    3.939 --    15 C    1.264    13 C    1.263   128 C    1.184
    15   6 C    3.903 --    14 C    1.264    34 N    1.224    16 C    1.190
    16   6 C    3.961 --    17 C    1.637    15 C    1.190    49 H    0.973
    17   6 C    3.959 --    16 C    1.637    18 C    1.182    50 H    0.973
    18   6 C    3.916 --    19 C    1.327    34 N    1.196    17 C    1.182
    19   6 C    3.935 --    18 C    1.327    29 C    1.320    20 C    1.034
    20   6 C    3.986 --    28 C    1.385    21 C    1.384    19 C    1.034
    21   6 C    3.987 --    22 C    1.465    20 C    1.384    51 H    0.972
                            27 C    0.102
    22   6 C    3.990 --    21 C    1.465    23 C    1.385    52 H    0.968
                            28 C    0.102
    23   6 C    3.982 --    27 C    1.388    22 C    1.385    24 C    1.009
    24   6 C    3.836 --    26 O    1.690    25 O    1.088    23 C    1.009
    25   8 O    2.096 --    24 C    1.088    53 H    0.838    26 O    0.129
    26   8 O    1.958 --    24 C    1.690    25 O    0.129
    27   6 C    3.991 --    28 C    1.462    23 C    1.388    54 H    0.970
                            21 C    0.102
    28   6 C    3.987 --    27 C    1.462    20 C    1.385    55 H    0.972
                            22 C    0.102
    29   6 C    3.920 --    19 C    1.320    33 N    1.210    30 C    1.175
    30   6 C    3.963 --    31 C    1.650    29 C    1.175    56 H    0.973
    31   6 C    3.960 --    30 C    1.650    32 C    1.174    57 H    0.975
    32   6 C    3.923 --     2 C    1.366    33 N    1.199    31 C    1.174
    33   7 N    3.349 --    29 C    1.210    32 C    1.199     1 Co   0.642
    34   7 N    3.351 --    15 C    1.224    18 C    1.196     1 Co   0.637
    35   6 C    3.986 --    43 C    1.390    36 C    1.387     8 C    1.023
    36   6 C    3.988 --    37 C    1.463    35 C    1.387    58 H    0.972
                            42 C    0.103
    37   6 C    3.990 --    36 C    1.463    38 C    1.386    59 H    0.968
                            43 C    0.103
    38   6 C    3.984 --    42 C    1.390    37 C    1.386    39 C    1.009
    39   6 C    3.836 --    41 O    1.690    40 O    1.088    38 C    1.009
    40   8 O    2.097 --    39 C    1.088    60 H    0.838    41 O    0.129
    41   8 O    1.959 --    39 C    1.690    40 O    0.129
    42   6 C    3.991 --    43 C    1.460    38 C    1.390    61 H    0.970
                            36 C    0.103
    43   6 C    3.988 --    42 C    1.460    35 C    1.390    62 H    0.972
                            37 C    0.103
    44   1 H    1.000 --     2 C    0.970
    45   1 H    0.997 --     4 C    0.975
    46   1 H    1.004 --     5 C    0.973
    47   1 H    1.004 --    10 C    0.973
    48   1 H    1.001 --    11 C    0.973
    49   1 H    1.001 --    16 C    0.973
    50   1 H    1.003 --    17 C    0.973
    51   1 H    1.004 --    21 C    0.972
    52   1 H    1.005 --    22 C    0.968
    53   1 H    0.873 --    25 O    0.838
    54   1 H    1.005 --    27 C    0.970
    55   1 H    1.004 --    28 C    0.972
    56   1 H    1.003 --    30 C    0.973
    57   1 H    0.997 --    31 C    0.975
    58   1 H    1.003 --    36 C    0.972
    59   1 H    1.005 --    37 C    0.968
    60   1 H    0.873 --    40 O    0.838
    61   1 H    1.005 --    42 C    0.970
    62   1 H    1.003 --    43 C    0.972
    63  27 Co   3.041 --    95 N    0.641    69 N    0.641    74 N    0.636
                            96 N    0.635
    64   6 C    3.930 --    65 C    1.366    94 C    1.365   106 H    0.970
    65   6 C    3.923 --    64 C    1.366    69 N    1.200    66 C    1.173
    66   6 C    3.960 --    67 C    1.652    65 C    1.173   107 H    0.975
    67   6 C    3.963 --    66 C    1.652    68 C    1.175   108 H    0.973
    68   6 C    3.919 --    70 C    1.321    69 N    1.211    67 C    1.175
    69   7 N    3.349 --    68 C    1.211    65 C    1.200    63 Co   0.641
    70   6 C    3.933 --    71 C    1.333    68 C    1.321    97 C    1.023
    71   6 C    3.916 --    70 C    1.333    74 N    1.192    72 C    1.180
    72   6 C    3.958 --    73 C    1.640    71 C    1.180   109 H    0.973
    73   6 C    3.962 --    72 C    1.640    75 C    1.189   110 H    0.973
    74   7 N    3.349 --    75 C    1.229    71 C    1.192    63 Co   0.636
    75   6 C    3.903 --    76 C    1.261    74 N    1.229    73 C    1.189
    76   6 C    3.936 --    77 C    1.262    75 C    1.261   136 C    1.188
    77   6 C    3.903 --    76 C    1.262    96 N    1.226    78 C    1.190
    78   6 C    3.961 --    79 C    1.637    77 C    1.190   111 H    0.973
    79   6 C    3.958 --    78 C    1.637    80 C    1.182   112 H    0.973
    80   6 C    3.916 --    81 C    1.328    96 N    1.195    79 C    1.182
    81   6 C    3.933 --    80 C    1.328    91 C    1.319    82 C    1.034
    82   6 C    3.986 --    90 C    1.385    83 C    1.384    81 C    1.034
    83   6 C    3.987 --    84 C    1.464    82 C    1.384   113 H    0.972
                            89 C    0.102
    84   6 C    3.990 --    83 C    1.464    85 C    1.385   114 H    0.968
                            90 C    0.102
    85   6 C    3.982 --    89 C    1.388    84 C    1.385    86 C    1.009
    86   6 C    3.836 --    88 O    1.690    87 O    1.088    85 C    1.009
    87   8 O    2.097 --    86 C    1.088   115 H    0.838    88 O    0.129
    88   8 O    1.958 --    86 C    1.690    87 O    0.129
    89   6 C    3.991 --    90 C    1.462    85 C    1.388   116 H    0.970
                            83 C    0.102
    90   6 C    3.987 --    89 C    1.462    82 C    1.385   117 H    0.972
                            84 C    0.102
    91   6 C    3.920 --    81 C    1.319    95 N    1.211    92 C    1.175
    92   6 C    3.963 --    93 C    1.650    91 C    1.175   118 H    0.973
    93   6 C    3.959 --    92 C    1.650    94 C    1.174   119 H    0.975
    94   6 C    3.923 --    64 C    1.365    95 N    1.199    93 C    1.174
    95   7 N    3.348 --    91 C    1.211    94 C    1.199    63 Co   0.641
    96   7 N    3.349 --    77 C    1.226    80 C    1.195    63 Co   0.635
    97   6 C    3.986 --   105 C    1.390    98 C    1.387    70 C    1.023
    98   6 C    3.988 --    99 C    1.463    97 C    1.387   120 H    0.972
                           104 C    0.103
    99   6 C    3.990 --    98 C    1.463   100 C    1.386   121 H    0.968
                           105 C    0.103
   100   6 C    3.984 --   104 C    1.390    99 C    1.386   101 C    1.009
   101   6 C    3.836 --   103 O    1.690   102 O    1.088   100 C    1.009
   102   8 O    2.097 --   101 C    1.088   122 H    0.838   103 O    0.129
   103   8 O    1.958 --   101 C    1.690   102 O    0.129
   104   6 C    3.991 --   105 C    1.460   100 C    1.390   123 H    0.970
                            98 C    0.103
   105   6 C    3.988 --   104 C    1.460    97 C    1.390   124 H    0.972
                            99 C    0.103
   106   1 H    1.000 --    64 C    0.970
   107   1 H    0.997 --    66 C    0.975
   108   1 H    1.004 --    67 C    0.973
   109   1 H    1.004 --    72 C    0.973
   110   1 H    1.001 --    73 C    0.973
   111   1 H    1.001 --    78 C    0.973
   112   1 H    1.003 --    79 C    0.973
   113   1 H    1.004 --    83 C    0.972
   114   1 H    1.005 --    84 C    0.968
   115   1 H    0.873 --    87 O    0.838
   116   1 H    1.005 --    89 C    0.970
   117   1 H    1.004 --    90 C    0.972
   118   1 H    1.003 --    92 C    0.973
   119   1 H    0.997 --    93 C    0.975
   120   1 H    1.003 --    98 C    0.972
   121   1 H    1.005 --    99 C    0.968
   122   1 H    0.873 --   102 O    0.838
   123   1 H    1.005 --   104 C    0.970
   124   1 H    1.003 --   105 C    0.972
   125   6 C    3.921 --   126 C    2.366   129 C    1.335   128 C    0.188
   126   6 C    3.917 --   125 C    2.366   127 C    1.333   130 C    0.188
   127   6 C    3.933 --   128 C    2.450   126 C    1.333
   128   6 C    3.882 --   127 C    2.450    14 C    1.184   125 C    0.188
   129   6 C    3.927 --   130 C    2.445   125 C    1.335
   130   6 C    3.885 --   129 C    2.445   138 C    1.192   126 C    0.188
   131   6 C    3.917 --   132 C    2.361   135 C    1.337   134 C    0.188
   132   6 C    3.920 --   131 C    2.361   133 C    1.339   136 C    0.188
   133   6 C    3.926 --   134 C    2.440   132 C    1.339
   134   6 C    3.885 --   133 C    2.440   150 C    1.195   131 C    0.188
   135   6 C    3.932 --   136 C    2.446   131 C    1.337
   136   6 C    3.881 --   135 C    2.446    76 C    1.188   132 C    0.188
   137  27 Co   3.067 --   169 N    0.636   148 N    0.636   143 N    0.631
                           170 N    0.631
   138   6 C    3.925 --   168 C    1.259   139 C    1.256   130 C    1.192
   139   6 C    3.904 --   138 C    1.256   143 N    1.228   140 C    1.193
   140   6 C    3.959 --   141 C    1.633   139 C    1.193   180 H    0.974
   141   6 C    3.960 --   140 C    1.633   142 C    1.185   181 H    0.973
   142   6 C    3.914 --   144 C    1.319   143 N    1.197   141 C    1.185
   143   7 N    3.342 --   139 C    1.228   142 C    1.197   137 Co   0.631
   144   6 C    3.927 --   145 C    1.322   142 C    1.319   171 C    1.036
   145   6 C    3.914 --   144 C    1.322   148 N    1.195   146 C    1.184
   146   6 C    3.960 --   147 C    1.634   145 C    1.184   182 H    0.973
   147   6 C    3.959 --   146 C    1.634   149 C    1.191   183 H    0.974
   148   7 N    3.340 --   149 C    1.229   145 C    1.195   137 Co   0.636
   149   6 C    3.904 --   150 C    1.257   148 N    1.229   147 C    1.191
   150   6 C    3.924 --   149 C    1.257   151 C    1.255   134 C    1.195
   151   6 C    3.903 --   150 C    1.255   170 N    1.229   152 C    1.193
   152   6 C    3.959 --   153 C    1.633   151 C    1.193   184 H    0.974
   153   6 C    3.959 --   152 C    1.633   154 C    1.184   185 H    0.973
   154   6 C    3.915 --   155 C    1.320   170 N    1.196   153 C    1.184
   155   6 C    3.927 --   165 C    1.321   154 C    1.320   156 C    1.036
   156   6 C    3.986 --   164 C    1.384   157 C    1.383   155 C    1.036
   157   6 C    3.985 --   158 C    1.465   156 C    1.383   186 H    0.972
                           163 C    0.102
   158   6 C    3.990 --   157 C    1.465   159 C    1.385   187 H    0.968
                           164 C    0.102
   159   6 C    3.982 --   163 C    1.389   158 C    1.385   160 C    1.008
   160   6 C    3.836 --   162 O    1.691   161 O    1.089   159 C    1.008
   161   8 O    2.097 --   160 C    1.089   188 H    0.838   162 O    0.129
   162   8 O    1.959 --   160 C    1.691   161 O    0.129
   163   6 C    3.991 --   164 C    1.462   159 C    1.389   189 H    0.969
                           157 C    0.102
   164   6 C    3.985 --   163 C    1.462   156 C    1.384   190 H    0.972
                           158 C    0.102
   165   6 C    3.915 --   155 C    1.321   169 N    1.197   166 C    1.184
   166   6 C    3.960 --   167 C    1.634   165 C    1.184   191 H    0.973
   167   6 C    3.959 --   166 C    1.634   168 C    1.191   192 H    0.974
   168   6 C    3.904 --   138 C    1.259   169 N    1.227   167 C    1.191
   169   7 N    3.340 --   168 C    1.227   165 C    1.197   137 Co   0.636
   170   7 N    3.341 --   151 C    1.229   154 C    1.196   137 Co   0.631
   171   6 C    3.986 --   179 C    1.384   172 C    1.383   144 C    1.036
   172   6 C    3.985 --   173 C    1.464   171 C    1.383   193 H    0.972
                           178 C    0.102
   173   6 C    3.990 --   172 C    1.464   174 C    1.385   194 H    0.968
                           179 C    0.103
   174   6 C    3.982 --   178 C    1.389   173 C    1.385   175 C    1.008
   175   6 C    3.836 --   177 O    1.691   176 O    1.089   174 C    1.008
   176   8 O    2.097 --   175 C    1.089   195 H    0.838   177 O    0.129
   177   8 O    1.959 --   175 C    1.691   176 O    0.129
   178   6 C    3.991 --   179 C    1.462   174 C    1.389   196 H    0.969
                           172 C    0.102
   179   6 C    3.985 --   178 C    1.462   171 C    1.384   197 H    0.972
                           173 C    0.103
   180   1 H    1.000 --   140 C    0.974
   181   1 H    1.003 --   141 C    0.973
   182   1 H    1.003 --   146 C    0.973
   183   1 H    1.001 --   147 C    0.974
   184   1 H    1.001 --   152 C    0.974
   185   1 H    1.003 --   153 C    0.973
   186   1 H    1.004 --   157 C    0.972
   187   1 H    1.005 --   158 C    0.968
   188   1 H    0.873 --   161 O    0.838
   189   1 H    1.005 --   163 C    0.969
   190   1 H    1.005 --   164 C    0.972
   191   1 H    1.003 --   166 C    0.973
   192   1 H    1.001 --   167 C    0.974
   193   1 H    1.004 --   172 C    0.972
   194   1 H    1.005 --   173 C    0.968
   195   1 H    0.872 --   176 O    0.838
   196   1 H    1.005 --   178 C    0.969
   197   1 H    1.004 --   179 C    0.972
 ---------------------------------------------------------------------------

           -------------------------------------------------
          | TOTAL ENERGY             -376.213630547863 Eh   |
          | GRADIENT NORM               0.000696755151 Eh/α |
          | HOMO-LUMO GAP               0.004486806620 eV   |
           -------------------------------------------------

 * finished run on 2022/07/30 at 03:42:14.264
