   * xtb version 6.5.1 (b24c23e) compiled by 'conda@728c89f4b128' on 2022-07-12
          program call               : xtb Zn_Ph3OH_C2_3.xyz --gfn 1 --opt -T 48

   ID    Z sym.   atoms
    1   30 Zn     1, 63, 129
    2    6 C      2-6, 8-11, 13, 15, 17-20, 22-27, 29-32, 34, 36, 38-42,
                  64-68, 70-73, 75, 77, 79-82, 84-89, 91-94, 96, 98, 100-104,
                  125-128, 130-134, 136-139, 141, 143, 145-148, 150-155,
                  157-160, 162, 164, 166-170
    3    7 N      7, 21, 28, 43, 69, 83, 90, 105, 135, 149, 156, 171
    4    8 O      12, 14, 16, 33, 35, 37, 74, 76, 78, 95, 97, 99, 140, 142,
                  144, 161, 163, 165
    5    1 H      44-62, 106-124, 172-189
########################################################################
[WARNING] Please study the warnings concerning your input carefully
-1- prog_main_parseArguments: Unknown option '-T' provided
########################################################################

          :  Hamiltonian                  GFN1-xTB          :
 * total energy  :  -366.3260670 Eh     change       -0.6816663E-09 Eh
 * total energy  :  -366.5468296 Eh     change       -0.2207626E+00 Eh
 * total energy  :  -366.6906317 Eh     change       -0.1438021E+00 Eh
 * total energy  :  -366.7550330 Eh     change       -0.6440123E-01 Eh
 * total energy  :  -366.7855606 Eh     change       -0.3052765E-01 Eh
 * total energy  :  -366.8052039 Eh     change       -0.1964333E-01 Eh
 * total energy  :  -366.8183108 Eh     change       -0.1310682E-01 Eh
 * total energy  :  -366.8283108 Eh     change       -0.1000004E-01 Eh
 * total energy  :  -366.8357334 Eh     change       -0.7422633E-02 Eh
 * total energy  :  -366.8410085 Eh     change       -0.5275070E-02 Eh
 * total energy  :  -366.8658133 Eh     change       -0.9699560E-05 Eh
 * total energy  :  -366.8658243 Eh     change       -0.1108672E-04 Eh
 * total energy  :  -366.8658357 Eh     change       -0.1140281E-04 Eh
 * total energy  :  -366.8658467 Eh     change       -0.1095841E-04 Eh
 * total energy  :  -366.8658574 Eh     change       -0.1074175E-04 Eh
 * total energy  :  -366.8658686 Eh     change       -0.1115573E-04 Eh
 * total energy  :  -366.8658802 Eh     change       -0.1158608E-04 Eh
 * total energy  :  -366.8658916 Eh     change       -0.1137005E-04 Eh
 * total energy  :  -366.8658942 Eh     change       -0.2662319E-05 Eh
   *** GEOMETRY OPTIMIZATION CONVERGED AFTER 68 ITERATIONS ***

 final structure:
================
189
 xtb: 6.5.1 (b24c23e)
Zn          35.80167621762779        0.02413306634937       -0.08094872757132
C           32.38898101375329        0.03278167583028       -0.14632085814272
C           33.01188604463164        1.27483824501724       -0.12466117205594
C           32.32996145995946        2.53801568184455       -0.08047793010521
C           33.28276440194297        3.50307962366057       -0.05949832834001
C           34.55988125605495        2.84104035872155       -0.10299698658632
N           34.35993585216759        1.49139179924443       -0.13081570253476
C           35.80744041508232        3.47567543072903       -0.10271695012460
C           35.81461156672242        4.96104512576215       -0.08829999600748
C           35.23757121953366        5.68073748033011       -1.13472478223853
C           35.24457763612415        7.07058414278359       -1.11249167975605
O           34.69309016599823        7.78019327678446       -2.12793560880775
C           35.82338709397641        7.74635188153656       -0.03722849749940
O           35.81114756996566        9.11712416508388       -0.04024208731618
C           36.39767066844134        7.02811562853493        1.00828644837935
O           36.94319951597519        7.76008564140635        2.03065473684811
C           36.39928483585652        5.63915937628824        0.98500965598952
C           37.05057069573144        2.83203528127392       -0.10937013228446
C           38.32208119670037        3.49336859997432       -0.19847227900805
C           39.27620597578186        2.52766255257389       -0.18258597585064
N           37.25738713057329        1.47918364066809       -0.05571578825958
C           38.60171479670302        1.26793626408075       -0.08338646614772
C           39.24489032718179        0.01402297139089       -0.02159102878779
C           38.59277599456446       -1.23572903075137        0.02282342691026
C           39.26043662341388       -2.50198494037017        0.07851634559738
C           38.30220214297687       -3.46264468306046        0.06070630797210
C           37.03324565697837       -2.79202615422874        0.01064586026459
N           37.24728243969364       -1.43884296474048       -0.01164764734960
C           35.78798541155055       -3.42742333501850       -0.04448028471209
C           35.78199225281460       -4.91381362733218       -0.03834896808715
C           36.26823853742696       -5.61682619812492        1.06371424316170
C           36.25942453708271       -7.00691105407819        1.06336827030312
O           36.72329772612748       -7.70060114335839        2.13211073428442
C           35.76934607709119       -7.69911623000351       -0.04498287589930
O           35.77706123785655       -9.07012293594519       -0.01912912448463
C           35.28561920907101       -6.99719642096314       -1.14569341323935
O           34.82358352093711       -7.74473661444277       -2.19801903618568
C           35.28627709767166       -5.60787412107106       -1.14528227431841
C           34.54525100441092       -2.78623039525897       -0.10691473469079
C           33.26488477971602       -3.44317312746267       -0.10955873525626
C           32.31666553874353       -2.47340607329749       -0.13888140995123
C           33.00487736861857       -1.21301558412678       -0.14701556283493
N           34.35169104174930       -1.43593697021244       -0.12776461076095
H           31.30334059104966        0.03593412444792       -0.15031675625162
H           31.25809400898587        2.65865692268707       -0.06034581273855
H           33.13808081946774        4.57033115020493       -0.00884025758171
H           34.79806823291652        5.16745874189812       -1.98024009418106
H           34.79616856762055        8.72544654662096       -1.92894755977123
H           36.24926959874750        9.42071394107979        0.77071818910085
H           37.31796079486179        7.17987862865716        2.70620237019748
H           36.83652194844055        5.08626092891126        1.80822589361920
H           38.46563123273643        4.55866402878727       -0.28251593807040
H           40.34433321208899        2.65383763697309       -0.24730444656173
H           40.32816013888403       -2.63610348723074        0.12641205800547
H           38.44254247456460       -4.53136660314766        0.07333606182816
H           36.63877814422930       -5.09027123574895        1.93372256887423
H           36.63193023833361       -8.64880879834784        1.94203568990022
H           35.40321094179590       -9.38527018201545       -0.85731941204631
H           34.50952384563115       -7.17405440665189       -2.91151543523254
H           34.91987710523160       -5.06788312608695       -2.01058244367922
H           33.11501377526389       -4.51065357717032       -0.07810723474888
H           31.24409937731100       -2.58963708826731       -0.14592074492218
Zn          57.66115930553291       -0.05816205702588       -0.06717776746005
C           61.07316746561069       -0.07365656564568       -0.15106142980289
C           60.44466681590398       -1.30755525872060       -0.26766042949832
C           61.12094344222054       -2.57046030830685       -0.36811804979333
C           60.16379139800078       -3.52797820853790       -0.45017238255773
C           58.88959890819681       -2.85988769312057       -0.41530831185126
N           59.09559251310158       -1.51655951678545       -0.29208154172138
C           57.63872159164763       -3.48436575367384       -0.48661649967919
C           57.62224676740804       -4.96166119029128       -0.63858646818507
C           58.20610887804207       -5.56580110928529       -1.75221175387700
C           58.18888808416994       -6.94942560915437       -1.88448784805674
O           58.74778836128743       -7.54655766400998       -2.96603096177489
C           57.59202961703406       -7.73546728751336       -0.89765686868858
O           57.59410391374715       -9.09758102140021       -1.05269021802771
C           57.01027287424891       -7.13281067640336        0.21455099781279
O           56.44633568213088       -7.96880012538616        1.14317170445206
C           57.01986631121521       -5.75003768201636        0.34614611624695
C           56.39909799509238       -2.83712482574002       -0.42218221303325
C           55.12465464769652       -3.47596775606743       -0.59533460904478
C           54.17544244633140       -2.51399991341045       -0.46751893291764
N           56.19880893097783       -1.49921516838387       -0.20806545003643
C           54.85560719640966       -1.27910712893147       -0.21430380238320
C           54.21820594225235       -0.03896408744791       -0.00083011197107
C           54.87648127413530        1.19330480878500        0.19271070945590
C           54.21506293697733        2.44717452771727        0.39874265098198
C           55.17797931267659        3.39842807712346        0.49512358877743
C           56.44370351106176        2.73239096584223        0.36494376787064
N           56.22289561558922        1.39252342290459        0.18180307427853
C           57.69189526257534        3.36426013080611        0.38371995741845
C           57.70458607034453        4.83821095523906        0.57366819984397
C           57.21611084422352        5.40061261680180        1.75292405709865
C           57.23000756137041        6.77978968987783        1.92605979596907
O           56.76288277237701        7.33639694330620        3.07071281848364
C           57.72876813057091        7.60271626361704        0.91510405988158
O           57.72697042737774        8.95922207778499        1.11252996218094
C           58.21486730352537        7.04130052590456       -0.26259140961613
O           58.68555107757417        7.91194321228892       -1.21112300200402
C           58.20796859422489        5.66281441309742       -0.43599652675038
C           58.93129344309533        2.72981573715379        0.23769299750073
C           60.21500221911551        3.37659303752167        0.30605578645770
C           61.15804326908535        2.41349499087320        0.15255503231483
C           60.46340749216246        1.16623889661017       -0.00204062661317
N           59.11785865584456        1.39108639569143        0.05289226068131
H           62.15874061345857       -0.08070095620366       -0.16253484661953
H           62.19231117257655       -2.69703350933442       -0.36636668262455
H           60.30407392343098       -4.59483228824958       -0.51830649054423
H           58.65824728634875       -4.96574882023902       -2.53131324310353
H           58.63282849208283       -8.50695178708412       -2.87606928439462
H           57.13999124643461       -9.48476828685313       -0.28746345786477
H           56.06264280447517       -7.46266701848446        1.87121574081130
H           56.57700041911622       -5.28836155198431        1.22097528911880
H           54.97604443981744       -4.52224256429605       -0.80893624064358
H           53.10727507083381       -2.62541579386956       -0.55295581836092
H           53.14792876433640        2.57997682078894        0.46142742247088
H           55.04263226937201        4.45884277798834        0.63363822677196
H           56.83966947509757        4.77124731604372        2.54898190982130
H           56.85385107336304        8.30094020499448        2.99910355747200
H           58.09957117934789        9.37640335876504        0.31958269781319
H           59.00009046037913        7.43345245283559       -1.98925497111844
H           58.57521281183391        5.23360868107020       -1.36092593589304
H           60.37088754265827        4.43161729243910        0.46588088839120
H           62.23110635896169        2.52520473145910        0.15174176589803
C           40.65479005612206        0.00960260670704       -0.01339836962471
C           41.87314169049608        0.00589944726177       -0.00369636610454
C           51.58992148805444       -0.02452320047072        0.02216098880210
C           52.80830684655702       -0.02978244730744        0.01000774244719
Zn          46.73220329763453       -0.00967353173502        0.02127180666757
C           43.28227222480500        0.00149977621287        0.00407414829324
C           43.93650465368705        1.23519391364576        0.20562910978965
C           43.27801562652682        2.47582232980954        0.48252810382454
C           44.23889123522727        3.43362411145240        0.54787975459679
C           45.49659589816515        2.78548368787942        0.30748622546401
N           45.27889641229690        1.44548855384202        0.12868662313700
C           46.74041845502613        3.42578125153401        0.25039749569575
C           46.74315583922380        4.90637830703952        0.34113521820253
C           47.45360968177362        5.55217779779734        1.35421824628900
C           47.46248769468712        6.94082901870959        1.45165302986367
O           48.14338175250836        7.57871835420319        2.43977428306873
C           46.75723301551828        7.70640344271341        0.51758650336447
O           46.74963575522708        9.06377448257247        0.58216159645446
C           46.05139741865857        7.05356731680922       -0.49633069764644
O           45.38543729769009        7.86167154213837       -1.38258207148014
C           46.03436370257403        5.66928883840752       -0.58958086309355
C           47.98059734239143        2.79158997826952        0.11022807161390
C           49.24190366701184        3.45913781088745       -0.04182914717358
C           50.19694159672665        2.49597127654291       -0.10721992517682
N           48.19093708332449        1.43827582958618        0.10743419400192
C           49.53215443103682        1.23272000596776       -0.00000182733725
C           50.18070147687672       -0.02000965314967        0.02894231409593
C           49.52581874259155       -1.26890270177755        0.06009880999885
C           50.18278125526776       -2.53673855399298        0.16829498495134
C           49.22213064327416       -3.49369675365912        0.09707156383099
C           47.96555402442393       -2.81763223105891       -0.05818300167323
N           48.18369400354099       -1.46583558565302       -0.05100262228611
C           46.72232208599566       -3.44229181992993       -0.20720650527971
C           46.71343565745630       -4.92416687568238       -0.30263437436716
C           47.40632926347223       -5.56341859942401       -1.33164776997521
C           47.37856657284716       -6.94967047662543       -1.43049412593192
O           48.03218843546611       -7.58256347309799       -2.43376681667831
C           46.66262477641671       -7.69808951388733       -0.49446186251464
O           46.66165494856362       -9.08147330369585       -0.62325221619273
C           46.00325280598273       -7.06376563704411        0.55683927512855
O           45.33515968893985       -7.79565251889984        1.49340880788599
C           46.01328004065924       -5.67637125965331        0.64181588176407
C           45.48335745422620       -2.79489278493360       -0.27349168209832
C           44.22334277941412       -3.43778636535985       -0.51707203744218
C           43.26809151001610       -2.47451575801340       -0.46349116013413
C           43.93139706401492       -1.23555379649999       -0.18917973246232
N           45.27236394778812       -1.45275670122177       -0.10339875725997
H           42.21669739435634        2.59402711753884        0.62647000356551
H           44.10812688089769        4.48271120233272        0.75947076104607
H           47.99185526511228        4.96871610769137        2.09279963181650
H           48.59652947927169        6.94728148735312        3.01376621363453
H           46.20923921060795        9.39799441617082       -0.15177299727476
H           44.92595042205131        7.33439491112546       -2.04886530527641
H           45.49136754690696        5.18800455476456       -1.39455920651257
H           49.37917014814186        4.52631524751333       -0.10913584997538
H           51.25866564288398        2.62706646206841       -0.23371465700851
H           51.24332668887781       -2.67403313273919        0.29952119786486
H           49.35134188951415       -4.56216270995485        0.15955596308565
H           47.94557637667406       -4.99008566630993       -2.07458568910746
H           47.89907018593858       -8.53947629562661       -2.32712603073079
H           45.76746819409428       -9.43309698382133       -0.52226481763608
H           45.61247359959558       -8.72202407775242        1.44987752174125
H           45.49695364378174       -5.19306509640668        1.46112249935228
H           44.08797591897121       -4.48804144715717       -0.71921279337614
H           42.20712560300930       -2.58798282705830       -0.61168921260997

          :  Hamiltonian                  GFN1-xTB          :
         :: total energy            -366.865894220680 Eh    ::
         :: gradient norm              0.000214296071 Eh/a0 ::
         :: HOMO-LUMO gap              0.870966287190 eV    ::
         :: SCC energy              -371.654815383015 Eh    ::
         :: repulsion energy           4.962386888591 Eh    ::

    * Orbital Energies and Occupations

         #    Occupation            Energy/Eh            Energy/eV
      -------------------------------------------------------------
         1        2.0000           -0.8111874             -22.0735
       ...           ...                  ...                  ...
       303        2.0000           -0.4180288             -11.3751
       304        2.0000           -0.4170012             -11.3472
       305        2.0000           -0.4108712             -11.1804
       306        2.0000           -0.4096056             -11.1459
       307        2.0000           -0.4087228             -11.1219
       308        2.0000           -0.4075973             -11.0913
       309        2.0000           -0.4050506             -11.0220
       310        2.0000           -0.3924428             -10.6789
       311        2.0000           -0.3922410             -10.6734
       312        2.0000           -0.3914551             -10.6520
       313        2.0000           -0.3900935             -10.6150
       314        2.0000           -0.3813634             -10.3774
       315        2.0000           -0.3708520             -10.0914 (HOMO)
       316                         -0.3388446              -9.2204 (LUMO)
       317                         -0.3268717              -8.8946
       318                         -0.3251803              -8.8486
       319                         -0.3247923              -8.8380
       320                         -0.3240195              -8.8170
       321                         -0.3154283              -8.5832
       322                         -0.2961525              -8.0587
       323                         -0.2875483              -7.8246
       324                         -0.2830698              -7.7027
       325                         -0.2567682              -6.9870
       326                         -0.2523035              -6.8655
       ...                                ...                  ...
       644                          1.3360784              36.3565
      -------------------------------------------------------------
                  HL-Gap            0.0320074 Eh            0.8710 eV

Wiberg/Mayer (AO) data.
largest (>0.10) Wiberg bond orders for each atom

     #   Z sym  total        # sym  WBO       # sym  WBO       # sym  WBO
 ---------------------------------------------------------------------------
     1  30 Zn   1.998 --     7 N    0.460    43 N    0.459    28 N    0.457
                            21 N    0.456
     2   6 C    3.926 --     3 C    1.357    42 C    1.356    44 H    0.971
     3   6 C    3.922 --     2 C    1.357     7 N    1.234     4 C    1.171
     4   6 C    3.960 --     5 C    1.659     3 C    1.171    45 H    0.976
     5   6 C    3.964 --     4 C    1.659     6 C    1.172    46 H    0.973
     6   6 C    3.918 --     8 C    1.317     7 N    1.242     5 C    1.172
     7   7 N    3.292 --     6 C    1.242     3 C    1.234     1 Zn   0.460
     8   6 C    3.932 --    18 C    1.320     6 C    1.317     9 C    1.028
     9   6 C    3.989 --    10 C    1.399    17 C    1.386     8 C    1.028
    10   6 C    3.977 --     9 C    1.399    11 C    1.380    47 H    0.970
    11   6 C    3.917 --    10 C    1.380    13 C    1.325    12 O    1.051
    12   8 O    2.047 --    11 C    1.051    48 H    0.848
    13   6 C    3.904 --    15 C    1.341    11 C    1.325    14 O    1.020
    14   8 O    2.019 --    13 C    1.020    49 H    0.846
    15   6 C    3.905 --    17 C    1.385    13 C    1.341    16 O    1.013
    16   8 O    2.024 --    15 C    1.013    50 H    0.861
    17   6 C    3.973 --     9 C    1.386    15 C    1.385    51 H    0.969
    18   6 C    3.913 --     8 C    1.320    21 N    1.227    19 C    1.182
    19   6 C    3.959 --    20 C    1.641    18 C    1.182    52 H    0.974
    20   6 C    3.962 --    19 C    1.641    22 C    1.189    53 H    0.968
    21   7 N    3.296 --    22 C    1.261    18 C    1.227     1 Zn   0.456
    22   6 C    3.906 --    21 N    1.261    23 C    1.255    20 C    1.189
    23   6 C    3.938 --    24 C    1.256    22 C    1.255   125 C    1.184
    24   6 C    3.906 --    28 N    1.261    23 C    1.256    25 C    1.187
    25   6 C    3.962 --    26 C    1.644    24 C    1.187    54 H    0.966
    26   6 C    3.959 --    25 C    1.644    27 C    1.180    55 H    0.973
    27   6 C    3.913 --    29 C    1.324    28 N    1.225    26 C    1.180
    28   7 N    3.296 --    24 C    1.261    27 C    1.225     1 Zn   0.457
    29   6 C    3.932 --    27 C    1.324    39 C    1.315    30 C    1.024
    30   6 C    3.989 --    31 C    1.400    38 C    1.388    29 C    1.024
    31   6 C    3.977 --    30 C    1.400    32 C    1.380    56 H    0.970
    32   6 C    3.917 --    31 C    1.380    34 C    1.325    33 O    1.051
    33   8 O    2.047 --    32 C    1.051    57 H    0.848
    34   6 C    3.904 --    36 C    1.342    32 C    1.325    35 O    1.019
    35   8 O    2.019 --    34 C    1.019    58 H    0.847
    36   6 C    3.905 --    38 C    1.384    34 C    1.342    37 O    1.012
    37   8 O    2.023 --    36 C    1.012    59 H    0.861
    38   6 C    3.973 --    30 C    1.388    36 C    1.384    60 H    0.970
    39   6 C    3.918 --    29 C    1.315    43 N    1.244    40 C    1.173
    40   6 C    3.963 --    41 C    1.658    39 C    1.173    61 H    0.974
    41   6 C    3.960 --    40 C    1.658    42 C    1.171    62 H    0.976
    42   6 C    3.922 --     2 C    1.356    43 N    1.234    41 C    1.171
    43   7 N    3.292 --    39 C    1.244    42 C    1.234     1 Zn   0.459
    44   1 H    1.002 --     2 C    0.971
    45   1 H    0.998 --     4 C    0.976
    46   1 H    1.006 --     5 C    0.973
    47   1 H    1.000 --    10 C    0.970
    48   1 H    0.878 --    12 O    0.848
    49   1 H    0.876 --    14 O    0.846
    50   1 H    0.881 --    16 O    0.861
    51   1 H    1.001 --    17 C    0.969
    52   1 H    1.006 --    19 C    0.974
    53   1 H    1.007 --    20 C    0.968
    54   1 H    1.007 --    25 C    0.966
    55   1 H    1.006 --    26 C    0.973
    56   1 H    1.000 --    31 C    0.970
    57   1 H    0.878 --    33 O    0.848
    58   1 H    0.877 --    35 O    0.847
    59   1 H    0.882 --    37 O    0.861
    60   1 H    1.001 --    38 C    0.970
    61   1 H    1.006 --    40 C    0.974
    62   1 H    0.998 --    41 C    0.976
    63  30 Zn   1.998 --    69 N    0.460   105 N    0.459    90 N    0.457
                            83 N    0.456
    64   6 C    3.926 --    65 C    1.357   104 C    1.356   106 H    0.971
    65   6 C    3.922 --    64 C    1.357    69 N    1.233    66 C    1.171
    66   6 C    3.960 --    67 C    1.659    65 C    1.171   107 H    0.976
    67   6 C    3.963 --    66 C    1.659    68 C    1.172   108 H    0.973
    68   6 C    3.918 --    70 C    1.316    69 N    1.243    67 C    1.172
    69   7 N    3.292 --    68 C    1.243    65 C    1.233    63 Zn   0.460
    70   6 C    3.932 --    80 C    1.321    68 C    1.316    71 C    1.029
    71   6 C    3.989 --    72 C    1.399    79 C    1.386    70 C    1.029
    72   6 C    3.977 --    71 C    1.399    73 C    1.380   109 H    0.970
    73   6 C    3.917 --    72 C    1.380    75 C    1.325    74 O    1.051
    74   8 O    2.047 --    73 C    1.051   110 H    0.848
    75   6 C    3.903 --    77 C    1.341    73 C    1.325    76 O    1.019
    76   8 O    2.019 --    75 C    1.019   111 H    0.847
    77   6 C    3.905 --    79 C    1.385    75 C    1.341    78 O    1.012
    78   8 O    2.023 --    77 C    1.012   112 H    0.861
    79   6 C    3.973 --    71 C    1.386    77 C    1.385   113 H    0.969
    80   6 C    3.913 --    70 C    1.321    83 N    1.226    81 C    1.181
    81   6 C    3.959 --    82 C    1.642    80 C    1.181   114 H    0.974
    82   6 C    3.962 --    81 C    1.642    84 C    1.189   115 H    0.967
    83   7 N    3.296 --    84 C    1.261    80 C    1.226    63 Zn   0.456
    84   6 C    3.906 --    83 N    1.261    85 C    1.255    82 C    1.189
    85   6 C    3.938 --    86 C    1.256    84 C    1.255   128 C    1.184
    86   6 C    3.906 --    90 N    1.262    85 C    1.256    87 C    1.187
    87   6 C    3.962 --    88 C    1.644    86 C    1.187   116 H    0.966
    88   6 C    3.959 --    87 C    1.644    89 C    1.180   117 H    0.973
    89   6 C    3.913 --    91 C    1.324    90 N    1.225    88 C    1.180
    90   7 N    3.296 --    86 C    1.262    89 C    1.225    63 Zn   0.457
    91   6 C    3.932 --    89 C    1.324   101 C    1.315    92 C    1.025
    92   6 C    3.989 --    93 C    1.400   100 C    1.388    91 C    1.025
    93   6 C    3.977 --    92 C    1.400    94 C    1.380   118 H    0.970
    94   6 C    3.917 --    93 C    1.380    96 C    1.325    95 O    1.052
    95   8 O    2.047 --    94 C    1.052   119 H    0.848
    96   6 C    3.904 --    98 C    1.341    94 C    1.325    97 O    1.020
    97   8 O    2.020 --    96 C    1.020   120 H    0.847
    98   6 C    3.905 --   100 C    1.384    96 C    1.341    99 O    1.012
    99   8 O    2.024 --    98 C    1.012   121 H    0.861
   100   6 C    3.973 --    92 C    1.388    98 C    1.384   122 H    0.969
   101   6 C    3.918 --    91 C    1.315   105 N    1.244   102 C    1.173
   102   6 C    3.963 --   103 C    1.657   101 C    1.173   123 H    0.974
   103   6 C    3.960 --   102 C    1.657   104 C    1.172   124 H    0.976
   104   6 C    3.922 --    64 C    1.356   105 N    1.233   103 C    1.172
   105   7 N    3.292 --   101 C    1.244   104 C    1.233    63 Zn   0.459
   106   1 H    1.002 --    64 C    0.971
   107   1 H    0.998 --    66 C    0.976
   108   1 H    1.006 --    67 C    0.973
   109   1 H    1.000 --    72 C    0.970
   110   1 H    0.878 --    74 O    0.848
   111   1 H    0.876 --    76 O    0.847
   112   1 H    0.882 --    78 O    0.861
   113   1 H    1.001 --    79 C    0.969
   114   1 H    1.006 --    81 C    0.974
   115   1 H    1.007 --    82 C    0.967
   116   1 H    1.007 --    87 C    0.966
   117   1 H    1.006 --    88 C    0.973
   118   1 H    1.000 --    93 C    0.970
   119   1 H    0.878 --    95 O    0.848
   120   1 H    0.876 --    97 O    0.847
   121   1 H    0.882 --    99 O    0.861
   122   1 H    1.001 --   100 C    0.969
   123   1 H    1.006 --   102 C    0.974
   124   1 H    0.998 --   103 C    0.976
   125   6 C    3.931 --   126 C    2.570    23 C    1.184
   126   6 C    3.934 --   125 C    2.570   130 C    1.186
   127   6 C    3.934 --   128 C    2.570   151 C    1.186
   128   6 C    3.931 --   127 C    2.570    85 C    1.184
   129  30 Zn   1.995 --   171 N    0.457   156 N    0.456   149 N    0.456
                           135 N    0.455
   130   6 C    3.926 --   170 C    1.254   131 C    1.251   126 C    1.186
   131   6 C    3.907 --   135 N    1.262   130 C    1.251   132 C    1.192
   132   6 C    3.960 --   133 C    1.637   131 C    1.192   172 H    0.968
   133   6 C    3.960 --   132 C    1.637   134 C    1.185   173 H    0.974
   134   6 C    3.912 --   136 C    1.315   135 N    1.226   133 C    1.185
   135   7 N    3.288 --   131 C    1.262   134 C    1.226   129 Zn   0.455
   136   6 C    3.927 --   146 C    1.316   134 C    1.315   137 C    1.033
   137   6 C    3.988 --   138 C    1.391   145 C    1.382   136 C    1.033
   138   6 C    3.973 --   137 C    1.391   139 C    1.381   174 H    0.969
   139   6 C    3.915 --   138 C    1.381   141 C    1.322   140 O    1.043
   140   8 O    2.051 --   139 C    1.043   175 H    0.867
   141   6 C    3.914 --   143 C    1.328   139 C    1.322   142 O    1.050
   142   8 O    2.045 --   141 C    1.050   176 H    0.851
   143   6 C    3.904 --   145 C    1.392   141 C    1.328   144 O    1.011
   144   8 O    2.025 --   143 C    1.011   177 H    0.861
   145   6 C    3.973 --   143 C    1.392   137 C    1.382   178 H    0.969
   146   6 C    3.912 --   136 C    1.316   149 N    1.225   147 C    1.184
   147   6 C    3.960 --   148 C    1.638   146 C    1.184   179 H    0.973
   148   6 C    3.960 --   147 C    1.638   150 C    1.192   180 H    0.966
   149   7 N    3.289 --   150 C    1.261   146 C    1.225   129 Zn   0.456
   150   6 C    3.907 --   149 N    1.261   151 C    1.252   148 C    1.192
   151   6 C    3.926 --   152 C    1.254   150 C    1.252   127 C    1.186
   152   6 C    3.906 --   156 N    1.261   151 C    1.254   153 C    1.190
   153   6 C    3.960 --   154 C    1.640   152 C    1.190   181 H    0.967
   154   6 C    3.960 --   153 C    1.640   155 C    1.183   182 H    0.974
   155   6 C    3.912 --   157 C    1.318   156 N    1.225   154 C    1.183
   156   7 N    3.289 --   152 C    1.261   155 C    1.225   129 Zn   0.456
   157   6 C    3.926 --   155 C    1.318   167 C    1.318   158 C    1.030
   158   6 C    3.989 --   159 C    1.397   166 C    1.396   157 C    1.030
   159   6 C    3.975 --   158 C    1.397   160 C    1.377   183 H    0.970
   160   6 C    3.916 --   159 C    1.377   162 C    1.334   161 O    1.054
   161   8 O    2.050 --   160 C    1.054   184 H    0.848
   162   6 C    3.886 --   164 C    1.346   160 C    1.334   163 O    0.976
   163   8 O    1.978 --   162 C    0.976   185 H    0.864
   164   6 C    3.910 --   166 C    1.380   162 C    1.346   165 O    1.029
   165   8 O    2.032 --   164 C    1.029   186 H    0.862
   166   6 C    3.975 --   158 C    1.396   164 C    1.380   187 H    0.970
   167   6 C    3.912 --   157 C    1.318   171 N    1.226   168 C    1.183
   168   6 C    3.960 --   169 C    1.640   167 C    1.183   188 H    0.974
   169   6 C    3.960 --   168 C    1.640   170 C    1.190   189 H    0.967
   170   6 C    3.907 --   171 N    1.260   130 C    1.254   169 C    1.190
   171   7 N    3.289 --   170 C    1.260   167 C    1.226   129 Zn   0.457
   172   1 H    1.007 --   132 C    0.968
   173   1 H    1.006 --   133 C    0.974
   174   1 H    1.002 --   138 C    0.969
   175   1 H    0.887 --   140 O    0.867
   176   1 H    0.882 --   142 O    0.851
   177   1 H    0.882 --   144 O    0.861
   178   1 H    1.002 --   145 C    0.969
   179   1 H    1.006 --   147 C    0.973
   180   1 H    1.007 --   148 C    0.966
   181   1 H    1.007 --   153 C    0.967
   182   1 H    1.005 --   154 C    0.974
   183   1 H    1.000 --   159 C    0.970
   184   1 H    0.882 --   161 O    0.848
   185   1 H    0.885 --   163 O    0.864
   186   1 H    0.886 --   165 O    0.862
   187   1 H    1.000 --   166 C    0.970
   188   1 H    1.006 --   168 C    0.974
   189   1 H    1.007 --   169 C    0.967
 ---------------------------------------------------------------------------

           -------------------------------------------------
          | TOTAL ENERGY             -366.865894220680 Eh   |
          | GRADIENT NORM               0.000214296071 Eh/α |
          | HOMO-LUMO GAP               0.870966287190 eV   |
           -------------------------------------------------

 * finished run on 2022/07/30 at 12:03:42.878
