   * xtb version 6.5.1 (b24c23e) compiled by 'conda@728c89f4b128' on 2022-07-12
          program call               : xtb Co_PhNH2_C8_3.xyz --gfn 1 --opt -T 48

   ID    Z sym.   atoms
    1   27 Co     1, 61, 137
    2    6 C      2-6, 8-12, 14-18, 20-25, 27-31, 33-38, 62-66, 68-72, 74-78,
                  80-85, 87-91, 93-98, 121-136, 138-142, 144-148, 150-154,
                  156-161, 163-167, 169-174
    3    7 N      7, 13, 19, 26, 32, 39, 67, 73, 79, 86, 92, 99, 143, 149,
                  155, 162, 168, 175
    4    1 H      40-60, 100-120, 176-195

          :  Hamiltonian                  GFN1-xTB          :
 * total energy  :  -335.3034331 Eh     change        0.2006004E-09 Eh
 * total energy  :  -337.0406382 Eh     change       -0.1737205E+01 Eh
 * total energy  :  -337.3668493 Eh     change       -0.3262111E+00 Eh
 * total energy  :  -337.5354328 Eh     change       -0.1685835E+00 Eh
 * total energy  :  -337.6581935 Eh     change       -0.1227607E+00 Eh
 * total energy  :  -337.7482634 Eh     change       -0.9006991E-01 Eh
 * total energy  :  -337.8004271 Eh     change       -0.5216376E-01 Eh
 * total energy  :  -337.8369787 Eh     change       -0.3655153E-01 Eh
 * total energy  :  -337.8612763 Eh     change       -0.2429765E-01 Eh
 * total energy  :  -337.8749959 Eh     change       -0.1371962E-01 Eh
 * total energy  :  -337.9043897 Eh     change       -0.1983523E-04 Eh
 * total energy  :  -337.9044055 Eh     change       -0.1571910E-04 Eh
 * total energy  :  -337.9044176 Eh     change       -0.1210980E-04 Eh
 * total energy  :  -337.9044284 Eh     change       -0.1086269E-04 Eh
 * total energy  :  -337.9044394 Eh     change       -0.1101046E-04 Eh
 * total energy  :  -337.9044517 Eh     change       -0.1228868E-04 Eh
 * total energy  :  -337.9044629 Eh     change       -0.1112431E-04 Eh
 * total energy  :  -337.9044706 Eh     change       -0.7693484E-05 Eh
 * total energy  :  -337.9044754 Eh     change       -0.4877971E-05 Eh
   *** GEOMETRY OPTIMIZATION CONVERGED AFTER 67 ITERATIONS ***

 final structure:
================
195
 xtb: 6.5.1 (b24c23e)
Co          26.61111342429373        0.02543576392869        0.03680423924072
C           23.24425296591314        0.11108626579320        0.13794839631848
C           23.90193111023762        1.04887463988221       -0.62994054229043
C           23.24618417838188        2.03872686447975       -1.42816496221551
C           24.20894853703433        2.88591819178121       -1.86454607787160
C           25.44956476019817        2.42230891758109       -1.31611238366383
N           25.25909553688909        1.25451428287953       -0.62322651135013
C           26.64428158238891        3.13209471786106       -1.36620388821145
C           26.66235596680400        4.47916797981237       -1.97404350396545
C           27.53122555512302        4.77161951656435       -3.02917728681634
C           27.55346667638811        6.02996569929574       -3.60256568070178
C           26.71364730338122        7.03649092624631       -3.11795926293959
N           26.70725353603516        8.28544581869991       -3.71224538883795
C           25.83904292856321        6.75162505467276       -2.06572698232115
C           25.81515216881129        5.48719786575991       -1.50555118433564
C           27.82168503363249        2.60727486911428       -0.85093416244433
C           29.06617005059433        3.31325929979415       -0.79897579281871
C           30.01006922648375        2.41650751475067       -0.42114898872003
N           27.99321154952384        1.30725956665017       -0.43305219597472
C           29.33792325029299        1.17076080606448       -0.23309000437523
C           29.99883170786901       -0.04407227442674       -0.02658982069089
C           29.29809918151406       -1.23428728248587        0.19205375756477
C           29.92565044881272       -2.50847921127590        0.33890826001699
C           28.95818791159680       -3.37485364069665        0.72789000753303
C           27.74559895016722       -2.62078002760182        0.83373414466686
N           27.95591705982172       -1.32115620088332        0.43111780690883
C           26.56897145552957       -3.10313593575911        1.38979182108477
C           26.54684972700165       -4.46327969152472        1.96782760070500
C           27.44350371693050       -4.82502586001850        2.97711289723221
C           27.42397763412503       -6.09625774396793        3.52167605807628
C           26.51219792732045       -7.04625558873165        3.05325406993392
N           26.46523103316882       -8.30685933228134        3.62039414679690
C           25.60896583660458       -6.69150921485986        2.04742808926327
C           25.62762638343192       -5.41453427715509        1.51644827460903
C           25.40984308381358       -2.33487998682229        1.41725040614081
C           24.18286736888259       -2.74343298937829        2.03553144127550
C           23.24285481697612       -1.83497635186972        1.68033978332872
C           23.89912973358440       -0.86676041381111        0.85633352907256
N           25.23976031872249       -1.14579403103545        0.75696211933479
H           22.16155676908441        0.14063559855092        0.17405121392375
H           22.18444340991087        2.06803569341292       -1.61534422916351
H           24.10104139447706        3.75066457269783       -2.49909960052448
H           28.17932103044507        3.99348544750899       -3.41733299157385
H           28.22341185880826        6.24070165287127       -4.42898337932109
H           27.54886175493600        8.52607274068545       -4.21090625786994
H           26.34518000016774        9.03034326882327       -3.13871453830820
H           25.18317063422749        7.52796511448173       -1.68706775007273
H           25.14857340897429        5.28103433894277       -0.67525282280914
H           29.19133612396021        4.36036214060022       -1.02198899933612
H           31.06892272997260        2.56783699622075       -0.28541246974895
H           30.97301226328229       -2.69856871861586        0.16738200492334
H           29.04805709977977       -4.43021400027489        0.92788680252650
H           28.14708250635822       -4.09076648363382        3.35393536138315
H           28.11648570799416       -6.36084271732620        4.31329019010084
H           27.31331061785404       -8.60289087664124        4.07642232519762
H           26.03926609799286       -9.01814506132505        3.04810597145707
H           24.89690684364489       -7.42341463557175        1.68203491544822
H           24.93666835560605       -5.15360920065797        0.72227037166881
H           24.06826788308564       -3.61504506096683        2.65943821358641
H           22.19548210572482       -1.81056971661913        1.93646114651677
Co          63.64170242104116       -0.00805196381469        0.04465711098369
C           67.01016317634735        0.02682503362030        0.17786924405450
C           66.35082691591636       -1.12811802966815        0.54180247574920
C           67.00673553766964       -2.33728079191229        0.93514074892588
C           66.04301044003250       -3.16884698728220        1.39812671448314
C           64.80136729140865       -2.45869680379249        1.30369072104931
N           64.99298895092961       -1.23682858028837        0.71122846140426
C           63.60376211418018       -2.89764248285889        1.85643344827736
C           63.58577771113620       -4.14960210487150        2.64268933521498
C           62.73414759104855       -5.20015209179281        2.29018415693161
C           62.71522953438402       -6.37429011588663        3.02111544356793
C           63.54097003809353       -6.51775544974468        4.13941511750340
N           63.55215927414005       -7.70418478286876        4.85075101957001
C           64.39780923850891       -5.47324162166245        4.49713560745215
C           64.41848929551300       -4.30679798975507        3.75403637738074
C           62.42484021832062       -2.18311570077026        1.69490178010175
C           61.17711770478282       -2.53951892009456        2.29988844090321
C           60.23480834079247       -1.72649130800051        1.76294219422955
N           62.25642889269911       -1.10972137768161        0.84997547626046
C           60.91082663996120       -0.87044806700192        0.84125876432611
C           60.25230508174517       -0.01497601285696       -0.04631701231268
C           60.95340685852187        0.83434971004489       -0.90688390483621
C           60.32488855307230        1.67248181056056       -1.87729005480209
C           61.29381975222727        2.47393241074531       -2.38344512774780
C           62.50845688089117        2.13288405304172       -1.70634526270025
N           62.29724698123250        1.07508958435428       -0.85096013020498
C           63.68891267196724        2.85538346802436       -1.80744266211959
C           63.71208696576924        4.09131439391105       -2.61877427784368
C           62.83275906338641        5.14192615789616       -2.34295216481635
C           62.85257426856371        6.30065974411900       -3.09801031104864
C           63.74670125852519        6.42766149943332       -4.16453400441368
N           63.79439585147961        7.59920742749426       -4.89880076198290
C           64.63242549781297        5.38349879278320       -4.44442188256492
C           64.61405974735464        4.23294569514502       -3.67676925260218
C           64.84948883967068        2.44611742681743       -1.16070938236899
C           66.08019997305028        3.18091939268105       -1.16873959412795
C           67.01841316102697        2.38112872683880       -0.60781801285758
C           66.35765425227427        1.16412407664411       -0.24786507571756
N           65.01628904296055        1.23975552845601       -0.53091741562998
H           68.09282884158247        0.03923759141622        0.22332111128245
H           68.06927082048544       -2.50765235917057        0.86303644614911
H           66.15076217894742       -4.17352628240091        1.77379047947935
H           62.09704246282325       -5.10055029667487        1.41816781187491
H           62.05898060448590       -7.18719056078100        2.72991026617808
H           62.71847092554709       -8.26294963031996        4.76325457144770
H           63.89957674107433       -7.63390499580072        5.79377016572547
H           65.04268507583585       -5.57962435482827        5.36263534273720
H           65.07160044220591       -3.49334540041935        4.05067272404581
H           61.04913055850126       -3.31216304491447        3.04050008732100
H           59.17462654073091       -1.70127643438607        1.95749239551519
H           59.27591635368752        1.64221757543993       -2.12484971304305
H           61.20404893850797        3.23068590590607       -3.14574607701734
H           62.14239483529662        5.05516398258978       -1.51104686982738
H           62.17379740407727        7.11413988435926       -2.86606450516437
H           62.95252470605849        8.15212232578370       -4.87608228579012
H           64.20063441806337        7.51215188991486       -5.81662773681828
H           65.33080943429664        5.47761628297515       -5.26887930742736
H           65.29183385926780        3.41968876360980       -3.91245081205852
H           66.19775752208801        4.17990097617439       -1.55644204021855
H           68.06740776977966        2.57649550396666       -0.45089189493250
C           31.39931781298825       -0.06843385682524       -0.04333091437993
C           32.62480125648938       -0.08365672043165       -0.05602546623849
C           33.96537464718929       -0.09430675390233       -0.06724961878496
C           35.19735509327059       -0.10029303987975       -0.07694439719992
C           36.53314976784382       -0.10212255294795       -0.08331958632896
C           37.76524009600482       -0.09894111762905       -0.08398508574982
C           39.10563136710505       -0.09334938041034       -0.08115050489566
C           40.33146844192976       -0.08409046790915       -0.07103289840448
C           49.91832797146418       -0.03310926700129       -0.08763435296017
C           51.14371944017851       -0.03316375595495       -0.10613129745041
C           52.48476822092333       -0.03052326337057       -0.12057106894644
C           53.71637871528961       -0.02555608538805       -0.12540541105814
C           55.05293796583609       -0.02151280574505       -0.12317526814472
C           56.28446451651582       -0.01516529031474       -0.11593832386310
C           57.62577535833175       -0.01479723620232       -0.09701320825705
C           58.85081490217706       -0.01354329902636       -0.07813651199985
Co          45.12512781026101       -0.04590361451632       -0.02656228084888
C           41.73162875331541       -0.07192665523540       -0.05612435915914
C           42.40962129659055        0.99781285235276       -0.64988563088608
C           41.74534629070524        2.09436139462578       -1.27860966005872
C           42.69111304683734        3.03584478357831       -1.51501609093065
C           43.93294760430371        2.50298139781011       -1.04305351723525
N           43.75180307489610        1.23067405268926       -0.55124536686056
C           45.10451122223282        3.23983898803375       -0.92817779275143
C           45.09602686112714        4.67064898134657       -1.31074112693747
C           44.84801373801970        5.05589792237672       -2.62999949770135
C           44.84689719719672        6.39214095003695       -2.98889862591977
C           45.09203718877068        7.37686279233175       -2.02810513813268
N           45.04418832096403        8.71559090166829       -2.37313403005017
C           45.32816862733798        6.99880595849232       -0.70363382694125
C           45.33754329773417        5.66004582564211       -0.35493686615459
C           46.28874958749076        2.67360279563504       -0.47495012377360
C           47.53243059886186        3.37863402619275       -0.39901988449293
C           48.49482478236541        2.45220100505404       -0.17082880717700
N           46.48486358703283        1.33119077019645       -0.24396973681370
C           47.83629771905626        1.18691516876187       -0.10803969057756
C           48.51764797819237       -0.03315481623958       -0.05425514684972
C           47.84042876786543       -1.25217223034265        0.04857276906634
C           48.49602070566721       -2.51967953055392        0.08419232692769
C           47.54742848868990       -3.43738827374024        0.39591220109336
C           46.31879518109535       -2.72203906666923        0.55715190664028
N           46.50057569908409       -1.38831600132776        0.27845497127215
C           45.14241332757067       -3.28494369488166        1.03830873448097
C           45.15635611161977       -4.68832857945034        1.49981637163497
C           44.28734078665810       -5.63267886472259        0.94573700410835
C           44.30623474714749       -6.94896497781690        1.36935725199352
C           45.19705136103139       -7.35208138561639        2.36824179870276
N           45.18539212071363       -8.65535796308423        2.82869812360011
C           46.05963980077724       -6.41098530371258        2.93760221783732
C           46.04300081428252       -5.09955445747012        2.49934078596642
C           43.95525081702369       -2.56588662219933        1.08347437615488
C           42.72154888694616       -3.07802250832179        1.59768626682713
C           41.75927103128799       -2.18155757001158        1.26820258676830
C           42.41273220567912       -1.11796990763594        0.57530952319716
N           43.76123580636062       -1.32460277050464        0.52149769122154
H           40.68740054873972        2.13471292619246       -1.48219785809717
H           42.56281720783148        4.01393991849719       -1.94882499879348
H           44.67663405480278        4.29674631941617       -3.38523026387614
H           44.66016885702165        6.67967419876157       -4.01779496709962
H           45.19688750122999        8.91138035978113       -3.34947014330065
H           45.53700970712411        9.33552075345987       -1.75040252285329
H           45.50535880433895        7.75917636120704        0.04907644051812
H           45.51352687776592        5.37429228864124        0.67629848130009
H           47.64917469132164        4.44133964248416       -0.53508238399417
H           49.55874407267675        2.59490350724460       -0.07056283099611
H           49.54742638089969       -2.67144853353781       -0.09991628536467
H           47.66009906141220       -4.50382858559424        0.50434266529575
H           43.60808802608584       -5.33340544758773        0.15506037635542
H           43.63359858677949       -7.67425415594909        0.92475535246072
H           46.03075500089190       -8.95738122585046        3.28562613201014
H           44.79896370036696       -9.33302720001298        2.19143135431587
H           46.74258364534499       -6.71448814870475        3.72348293198441
H           46.70865128391372       -4.37350398065308        2.95309243322614
H           42.61427246559908       -4.00425603383013        2.13818013557009
H           40.70058001545571       -2.22376951562552        1.46756694690019

          :  Hamiltonian                  GFN1-xTB          :
         :: total energy            -337.904475430980 Eh    ::
         :: gradient norm              0.000520204564 Eh/a0 ::
         :: HOMO-LUMO gap              0.001880741169 eV    ::
         :: SCC energy              -343.599925220712 Eh    ::
         :: repulsion energy           5.865692857944 Eh    ::

    * Orbital Energies and Occupations

         #    Occupation            Energy/Eh            Energy/eV
      -------------------------------------------------------------
         1        2.0000           -0.7822863             -21.2871
       ...           ...                  ...                  ...
       302        2.0000           -0.3867785             -10.5248
       303        2.0000           -0.3867595             -10.5243
       304        1.9999           -0.3839723             -10.4484
       305        1.9999           -0.3837833             -10.4433
       306        1.9998           -0.3836710             -10.4402
       307        1.9998           -0.3834823             -10.4351
       308        1.9998           -0.3834095             -10.4331
       309        1.9998           -0.3834054             -10.4330
       310        1.9998           -0.3833323             -10.4310
       311        1.9885           -0.3796090             -10.3297
       312        1.6464           -0.3761267             -10.2349
       313        1.1425           -0.3748587             -10.2004
       314        1.1285           -0.3748292             -10.1996 (HOMO)
       315        1.0954           -0.3747601             -10.1977 (LUMO)
       316                         -0.3372116              -9.1760
       317                         -0.3281011              -8.9281
       318                         -0.3239464              -8.8150
       319                         -0.3217363              -8.7549
       320                         -0.3195051              -8.6942
       321                         -0.3188723              -8.6770
       322                         -0.3051403              -8.3033
       323                         -0.2980801              -8.1112
       324                         -0.2966028              -8.0710
       325                         -0.2913568              -7.9282
       ...                                ...                  ...
       671                          1.6072396              43.7352
      -------------------------------------------------------------
                  HL-Gap            0.0000691 Eh            0.0019 eV

Wiberg/Mayer (AO) data.
largest (>0.10) Wiberg bond orders for each atom

     #   Z sym  total        # sym  WBO       # sym  WBO       # sym  WBO
 ---------------------------------------------------------------------------
     1  27 Co   3.031 --     7 N    0.636    39 N    0.636    26 N    0.631
                            19 N    0.631
     2   6 C    3.924 --    38 C    1.365     3 C    1.364    40 H    0.970
     3   6 C    3.926 --     2 C    1.364     7 N    1.200     4 C    1.177
     4   6 C    3.957 --     5 C    1.644     3 C    1.177    41 H    0.975
     5   6 C    3.963 --     4 C    1.644     6 C    1.179    42 H    0.973
     6   6 C    3.918 --     8 C    1.312     7 N    1.215     5 C    1.179
     7   7 N    3.343 --     6 C    1.215     3 C    1.200     1 Co   0.636
     8   6 C    3.929 --    16 C    1.327     6 C    1.312     9 C    1.040
     9   6 C    3.986 --    15 C    1.377    10 C    1.377     8 C    1.040
    10   6 C    3.985 --    11 C    1.472     9 C    1.377    43 H    0.972
    11   6 C    3.989 --    10 C    1.472    12 C    1.351    44 H    0.972
    12   6 C    3.950 --    14 C    1.352    11 C    1.351    13 N    1.119
    13   7 N    3.135 --    12 C    1.119    46 H    0.933    45 H    0.933
    14   6 C    3.988 --    15 C    1.471    12 C    1.352    47 H    0.972
    15   6 C    3.985 --    14 C    1.471     9 C    1.377    48 H    0.972
    16   6 C    3.916 --     8 C    1.327    19 N    1.194    17 C    1.184
    17   6 C    3.959 --    18 C    1.633    16 C    1.184    49 H    0.973
    18   6 C    3.959 --    17 C    1.633    20 C    1.193    50 H    0.974
    19   7 N    3.344 --    20 C    1.231    16 C    1.194     1 Co   0.631
    20   6 C    3.903 --    21 C    1.254    19 N    1.231    18 C    1.193
    21   6 C    3.929 --    20 C    1.254    22 C    1.254   121 C    1.199
    22   6 C    3.904 --    21 C    1.254    26 N    1.232    23 C    1.193
    23   6 C    3.959 --    24 C    1.633    22 C    1.193    51 H    0.974
    24   6 C    3.958 --    23 C    1.633    25 C    1.184    52 H    0.973
    25   6 C    3.916 --    27 C    1.329    26 N    1.192    24 C    1.184
    26   7 N    3.343 --    22 C    1.232    25 C    1.192     1 Co   0.631
    27   6 C    3.929 --    25 C    1.329    35 C    1.310    28 C    1.040
    28   6 C    3.986 --    34 C    1.377    29 C    1.377    27 C    1.040
    29   6 C    3.985 --    30 C    1.471    28 C    1.377    53 H    0.972
    30   6 C    3.989 --    29 C    1.471    31 C    1.352    54 H    0.972
    31   6 C    3.950 --    30 C    1.352    33 C    1.351    32 N    1.119
    32   7 N    3.135 --    31 C    1.119    56 H    0.933    55 H    0.933
    33   6 C    3.988 --    34 C    1.471    31 C    1.351    57 H    0.972
    34   6 C    3.985 --    33 C    1.471    28 C    1.377    58 H    0.972
    35   6 C    3.918 --    27 C    1.310    39 N    1.216    36 C    1.179
    36   6 C    3.963 --    37 C    1.644    35 C    1.179    59 H    0.973
    37   6 C    3.957 --    36 C    1.644    38 C    1.177    60 H    0.975
    38   6 C    3.926 --     2 C    1.365    39 N    1.198    37 C    1.177
    39   7 N    3.343 --    35 C    1.216    38 C    1.198     1 Co   0.636
    40   1 H    1.000 --     2 C    0.970
    41   1 H    0.998 --     4 C    0.975
    42   1 H    1.005 --     5 C    0.973
    43   1 H    1.006 --    10 C    0.972
    44   1 H    0.998 --    11 C    0.972
    45   1 H    0.960 --    13 N    0.933
    46   1 H    0.960 --    13 N    0.933
    47   1 H    0.998 --    14 C    0.972
    48   1 H    1.006 --    15 C    0.972
    49   1 H    1.005 --    17 C    0.973
    50   1 H    1.001 --    18 C    0.974
    51   1 H    1.001 --    23 C    0.974
    52   1 H    1.005 --    24 C    0.973
    53   1 H    1.006 --    29 C    0.972
    54   1 H    0.998 --    30 C    0.972
    55   1 H    0.960 --    32 N    0.933
    56   1 H    0.960 --    32 N    0.933
    57   1 H    0.998 --    33 C    0.972
    58   1 H    1.006 --    34 C    0.972
    59   1 H    1.005 --    36 C    0.973
    60   1 H    0.998 --    37 C    0.975
    61  27 Co   3.031 --    99 N    0.637    67 N    0.637    79 N    0.633
                            86 N    0.632
    62   6 C    3.926 --    98 C    1.365    63 C    1.364   100 H    0.970
    63   6 C    3.925 --    62 C    1.364    67 N    1.200    64 C    1.177
    64   6 C    3.958 --    65 C    1.645    63 C    1.177   101 H    0.975
    65   6 C    3.963 --    64 C    1.645    66 C    1.179   102 H    0.973
    66   6 C    3.918 --    68 C    1.314    67 N    1.214    65 C    1.179
    67   7 N    3.344 --    66 C    1.214    63 C    1.200    61 Co   0.637
    68   6 C    3.932 --    76 C    1.328    66 C    1.314    69 C    1.038
    69   6 C    3.986 --    75 C    1.378    70 C    1.378    68 C    1.038
    70   6 C    3.986 --    71 C    1.471    69 C    1.378   103 H    0.972
    71   6 C    3.989 --    70 C    1.471    72 C    1.352   104 H    0.972
    72   6 C    3.950 --    71 C    1.352    74 C    1.352    73 N    1.118
    73   7 N    3.135 --    72 C    1.118   106 H    0.933   105 H    0.933
    74   6 C    3.989 --    75 C    1.471    72 C    1.352   107 H    0.972
    75   6 C    3.985 --    74 C    1.471    69 C    1.378   108 H    0.972
    76   6 C    3.916 --    68 C    1.328    79 N    1.194    77 C    1.184
    77   6 C    3.959 --    78 C    1.633    76 C    1.184   109 H    0.973
    78   6 C    3.959 --    77 C    1.633    80 C    1.192   110 H    0.974
    79   7 N    3.346 --    80 C    1.230    76 C    1.194    61 Co   0.633
    80   6 C    3.904 --    81 C    1.257    79 N    1.230    78 C    1.192
    81   6 C    3.932 --    80 C    1.257    82 C    1.256   136 C    1.194
    82   6 C    3.904 --    81 C    1.256    86 N    1.231    83 C    1.193
    83   6 C    3.959 --    84 C    1.633    82 C    1.193   111 H    0.974
    84   6 C    3.959 --    83 C    1.633    85 C    1.184   112 H    0.973
    85   6 C    3.916 --    87 C    1.329    86 N    1.193    84 C    1.184
    86   7 N    3.345 --    82 C    1.231    85 C    1.193    61 Co   0.632
    87   6 C    3.932 --    85 C    1.329    95 C    1.313    88 C    1.038
    88   6 C    3.986 --    94 C    1.378    89 C    1.378    87 C    1.038
    89   6 C    3.986 --    90 C    1.471    88 C    1.378   113 H    0.972
    90   6 C    3.989 --    89 C    1.471    91 C    1.352   114 H    0.972
    91   6 C    3.950 --    90 C    1.352    93 C    1.352    92 N    1.118
    92   7 N    3.135 --    91 C    1.118   116 H    0.933   115 H    0.933
    93   6 C    3.989 --    94 C    1.471    91 C    1.352   117 H    0.972
    94   6 C    3.985 --    93 C    1.471    88 C    1.378   118 H    0.972
    95   6 C    3.918 --    87 C    1.313    99 N    1.215    96 C    1.179
    96   6 C    3.963 --    97 C    1.645    95 C    1.179   119 H    0.973
    97   6 C    3.957 --    96 C    1.645    98 C    1.177   120 H    0.975
    98   6 C    3.925 --    62 C    1.365    99 N    1.198    97 C    1.177
    99   7 N    3.344 --    95 C    1.215    98 C    1.198    61 Co   0.637
   100   1 H    1.000 --    62 C    0.970
   101   1 H    0.998 --    64 C    0.975
   102   1 H    1.005 --    65 C    0.973
   103   1 H    1.005 --    70 C    0.972
   104   1 H    0.998 --    71 C    0.972
   105   1 H    0.960 --    73 N    0.933
   106   1 H    0.960 --    73 N    0.933
   107   1 H    0.998 --    74 C    0.972
   108   1 H    1.006 --    75 C    0.972
   109   1 H    1.005 --    77 C    0.973
   110   1 H    1.001 --    78 C    0.974
   111   1 H    1.001 --    83 C    0.974
   112   1 H    1.005 --    84 C    0.973
   113   1 H    1.005 --    89 C    0.972
   114   1 H    0.998 --    90 C    0.972
   115   1 H    0.960 --    92 N    0.933
   116   1 H    0.960 --    92 N    0.933
   117   1 H    0.998 --    93 C    0.972
   118   1 H    1.005 --    94 C    0.972
   119   1 H    1.005 --    96 C    0.973
   120   1 H    0.998 --    97 C    0.975
   121   6 C    3.868 --   122 C    2.424    21 C    1.199   124 C    0.184
   122   6 C    3.930 --   121 C    2.424   123 C    1.355
   123   6 C    3.885 --   124 C    2.318   122 C    1.355   126 C    0.179
   124   6 C    3.919 --   123 C    2.318   125 C    1.381   121 C    0.184
   125   6 C    3.917 --   126 C    2.317   124 C    1.381   128 C    0.184
   126   6 C    3.886 --   125 C    2.317   127 C    1.357   123 C    0.179
   127   6 C    3.925 --   128 C    2.420   126 C    1.357
   128   6 C    3.870 --   127 C    2.420   138 C    1.203   125 C    0.184
   129   6 C    3.871 --   130 C    2.425   157 C    1.199   132 C    0.184
   130   6 C    3.926 --   129 C    2.425   131 C    1.352
   131   6 C    3.887 --   132 C    2.323   130 C    1.352   134 C    0.180
   132   6 C    3.918 --   131 C    2.323   133 C    1.377   129 C    0.184
   133   6 C    3.921 --   134 C    2.324   132 C    1.377   136 C    0.185
   134   6 C    3.886 --   133 C    2.324   135 C    1.351   131 C    0.180
   135   6 C    3.931 --   136 C    2.430   134 C    1.351
   136   6 C    3.870 --   135 C    2.430    81 C    1.194   133 C    0.185
   137  27 Co   3.008 --   155 N    0.627   175 N    0.626   143 N    0.624
                           162 N    0.624
   138   6 C    3.917 --   139 C    1.252   174 C    1.250   128 C    1.203
   139   6 C    3.904 --   138 C    1.252   143 N    1.235   140 C    1.192
   140   6 C    3.960 --   141 C    1.633   139 C    1.192   176 H    0.974
   141   6 C    3.960 --   140 C    1.633   142 C    1.186   177 H    0.972
   142   6 C    3.912 --   144 C    1.323   143 N    1.197   141 C    1.186
   143   7 N    3.338 --   139 C    1.235   142 C    1.197   137 Co   0.624
   144   6 C    3.923 --   152 C    1.324   142 C    1.323   145 C    1.029
   145   6 C    3.985 --   146 C    1.382   151 C    1.381   144 C    1.029
   146   6 C    3.987 --   147 C    1.468   145 C    1.382   178 H    0.973
   147   6 C    3.988 --   146 C    1.468   148 C    1.353   179 H    0.972
   148   6 C    3.951 --   147 C    1.353   150 C    1.353   149 N    1.118
   149   7 N    3.136 --   148 C    1.118   180 H    0.933   181 H    0.933
   150   6 C    3.988 --   151 C    1.469   148 C    1.353   182 H    0.972
   151   6 C    3.987 --   150 C    1.469   145 C    1.381   183 H    0.973
   152   6 C    3.912 --   144 C    1.324   155 N    1.197   153 C    1.185
   153   6 C    3.959 --   154 C    1.633   152 C    1.185   184 H    0.973
   154   6 C    3.960 --   153 C    1.633   156 C    1.193   185 H    0.974
   155   7 N    3.337 --   156 C    1.235   152 C    1.197   137 Co   0.627
   156   6 C    3.905 --   157 C    1.253   155 N    1.235   154 C    1.193
   157   6 C    3.918 --   156 C    1.253   158 C    1.253   129 C    1.199
   158   6 C    3.905 --   157 C    1.253   162 N    1.232   159 C    1.195
   159   6 C    3.957 --   160 C    1.628   158 C    1.195   186 H    0.974
   160   6 C    3.960 --   159 C    1.628   161 C    1.188   187 H    0.973
   161   6 C    3.912 --   163 C    1.314   162 N    1.201   160 C    1.188
   162   7 N    3.337 --   158 C    1.232   161 C    1.201   137 Co   0.624
   163   6 C    3.924 --   171 C    1.322   161 C    1.314   164 C    1.042
   164   6 C    3.985 --   165 C    1.375   170 C    1.375   163 C    1.042
   165   6 C    3.985 --   166 C    1.472   164 C    1.375   188 H    0.972
   166   6 C    3.988 --   165 C    1.472   167 C    1.350   189 H    0.972
   167   6 C    3.949 --   166 C    1.350   169 C    1.350   168 N    1.121
   168   7 N    3.137 --   167 C    1.121   191 H    0.932   190 H    0.932
   169   6 C    3.988 --   170 C    1.473   167 C    1.350   192 H    0.972
   170   6 C    3.985 --   169 C    1.473   164 C    1.375   193 H    0.972
   171   6 C    3.913 --   163 C    1.322   175 N    1.196   172 C    1.186
   172   6 C    3.960 --   173 C    1.630   171 C    1.186   194 H    0.973
   173   6 C    3.958 --   172 C    1.630   174 C    1.194   195 H    0.974
   174   6 C    3.905 --   138 C    1.250   175 N    1.237   173 C    1.194
   175   7 N    3.336 --   174 C    1.237   171 C    1.196   137 Co   0.626
   176   1 H    1.001 --   140 C    0.974
   177   1 H    1.005 --   141 C    0.972
   178   1 H    1.004 --   146 C    0.973
   179   1 H    0.998 --   147 C    0.972
   180   1 H    0.960 --   149 N    0.933
   181   1 H    0.960 --   149 N    0.933
   182   1 H    0.998 --   150 C    0.972
   183   1 H    1.004 --   151 C    0.973
   184   1 H    1.005 --   153 C    0.973
   185   1 H    1.001 --   154 C    0.974
   186   1 H    1.001 --   159 C    0.974
   187   1 H    1.005 --   160 C    0.973
   188   1 H    1.006 --   165 C    0.972
   189   1 H    0.998 --   166 C    0.972
   190   1 H    0.960 --   168 N    0.932
   191   1 H    0.960 --   168 N    0.932
   192   1 H    0.998 --   169 C    0.972
   193   1 H    1.005 --   170 C    0.972
   194   1 H    1.005 --   172 C    0.973
   195   1 H    1.001 --   173 C    0.974
 ---------------------------------------------------------------------------

           -------------------------------------------------
          | TOTAL ENERGY             -337.904475430980 Eh   |
          | GRADIENT NORM               0.000520204564 Eh/α |
          | HOMO-LUMO GAP               0.001880741169 eV   |
           -------------------------------------------------

 * finished run on 2022/07/30 at 00:47:51.697
