   * xtb version 6.5.1 (b24c23e) compiled by 'conda@728c89f4b128' on 2022-07-12
          program call               : xtb Co_p-CP_C2_2.xyz --gfn 1 --opt -T 48

   ID    Z sym.   atoms
    1   27 Co     1, 63
    2    6 C      2-6, 8-11, 13-24, 27-32, 35-39, 42, 43, 64-68, 70-73,
                  75-86, 89-94, 97-101, 104, 105, 125, 126
    3    7 N      7, 12, 33, 34, 69, 74, 95, 96
    4    8 O      25, 26, 40, 41, 87, 88, 102, 103
    5    1 H      44-62, 106-124
########################################################################
[WARNING] Please study the warnings concerning your input carefully
-1- prog_main_parseArguments: Unknown option '-T' provided
########################################################################

          :  Hamiltonian                  GFN1-xTB          :
 * total energy  :  -238.0184725 Eh     change       -0.2017742E-08 Eh
 * total energy  :  -238.4134446 Eh     change       -0.3949722E+00 Eh
 * total energy  :  -238.5276455 Eh     change       -0.1142009E+00 Eh
 * total energy  :  -238.5817113 Eh     change       -0.5406574E-01 Eh
 * total energy  :  -238.6072857 Eh     change       -0.2557446E-01 Eh
 * total energy  :  -238.6197977 Eh     change       -0.1251199E-01 Eh
 * total energy  :  -238.6272105 Eh     change       -0.7412733E-02 Eh
 * total energy  :  -238.6323204 Eh     change       -0.5109937E-02 Eh
 * total energy  :  -238.6360355 Eh     change       -0.3715145E-02 Eh
 * total energy  :  -238.6386913 Eh     change       -0.2655721E-02 Eh
 * total energy  :  -238.6445664 Eh     change       -0.1684867E-04 Eh
 * total energy  :  -238.6445806 Eh     change       -0.1417503E-04 Eh
 * total energy  :  -238.6445904 Eh     change       -0.9785812E-05 Eh
 * total energy  :  -238.6445980 Eh     change       -0.7608204E-05 Eh
 * total energy  :  -238.6446048 Eh     change       -0.6770121E-05 Eh
 * total energy  :  -238.6446111 Eh     change       -0.6387775E-05 Eh
 * total energy  :  -238.6446185 Eh     change       -0.7352459E-05 Eh
 * total energy  :  -238.6446272 Eh     change       -0.8733791E-05 Eh
 * total energy  :  -238.6446299 Eh     change       -0.2667928E-05 Eh
   *** GEOMETRY OPTIMIZATION CONVERGED AFTER 44 ITERATIONS ***

 final structure:
================
126
 xtb: 6.5.1 (b24c23e)
Co          19.03855670274952       -0.07586298126728        0.04511292693311
C           15.66857299922301       -0.22887080340121        0.07102389118729
C           16.34425936609608       -0.51866542922813        1.23653083832330
C           15.69531338961229       -0.85665544798852        2.46687786899409
C           16.65079100236104       -0.84585183133955        3.42508912126945
C           17.88618407174940       -0.51547737777924        2.77635981811433
N           17.69494337350861       -0.36415050689906        1.42637454869944
C           19.06645766806169       -0.22991728514973        3.44893286657329
C           20.24092178294786        0.07623898938447        2.77825806715738
C           21.49118153471931        0.32905925336189        3.42943778386400
C           22.43852019556226        0.35076696118581        2.46156998443273
N           20.41921521549783       -0.01218520043563        1.41633366429333
C           21.76667959495884        0.10996359391174        1.22415651325955
C           22.43109948790394       -0.08956397210497        0.01256314816434
C           21.74257555764966       -0.26349878429621       -1.18866257281118
C           22.38823743731077       -0.49039242122916       -2.44271660249209
C           21.42643047370155       -0.41799195321443       -3.39395716480608
C           20.19568143770774       -0.14252739046817       -2.71591290820935
C           18.99984798013800        0.14565785566957       -3.35801580331401
C           18.98646612601237        0.25193143591375       -4.83356269337315
C           18.16912384431630       -0.58723048871046       -5.59597557973112
C           18.16471600474843       -0.49251779194147       -6.97525667495449
C           18.97429479524858        0.44534199617189       -7.61885136652764
C           18.93542982234277        0.50742983487963       -9.09984865188875
O           19.76006497062752        1.42863069745453       -9.62037395361279
O           18.23926813812970       -0.19130014734029       -9.79146237543853
C           19.78995785859523        1.28753934019356       -6.86252287534709
C           19.79610155308147        1.18819504319797       -5.48224990732143
C           17.81452128034348        0.31642001175679       -2.65474372013491
C           16.55512177751360        0.63573018233727       -3.26122369812047
C           15.61343932104901        0.50883823897003       -2.29688818793741
C           16.30073453060168        0.13420090835927       -1.09886804692656
N           17.65457973692014        0.07594073889409       -1.31392287526337
N           20.39296054402668       -0.11726995208635       -1.35465035605452
C           19.07684790782323       -0.26071285919406        4.93068718623724
C           18.88628684134582       -1.46326941633926        5.61499461579357
C           18.90431114571938       -1.48796518860184        6.99758663993627
C           19.10908928870048       -0.31083378933302        7.71973121279771
C           19.12210866678613       -0.38870627748094        9.20036665908344
O           19.33977680882231        0.79253274572652        9.79803764403371
O           18.95819205717883       -1.40274220335380        9.82957211683416
C           19.29624306929744        0.89293697426329        7.03980864792555
C           19.28206205145925        0.91497524449655        5.65598571768766
H           14.58584323228507       -0.27038293872994        0.07986139607519
H           14.63896877646187       -1.04832584554854        2.56758082180912
H           16.53954640231905       -1.02437752919304        4.48220922080490
H           21.61991731670597        0.44973322038064        4.49262717274173
H           23.50081651505221        0.50364663787886        2.56278881447666
H           23.44315525130205       -0.67593959165305       -2.56412265333295
H           21.52955450488448       -0.54133790442768       -4.45965060044059
H           17.55172613270057       -1.32718153616679       -5.09954306289459
H           17.53736191016572       -1.14474610109444       -7.57286074050471
H           19.67676307580130        1.40444652713610      -10.58751937033349
H           20.41725869293425        2.01925121690603       -7.35776642341872
H           20.42107836882629        1.85098370839414       -4.89437778553225
H           16.42226828696877        0.91501046647573       -4.29379108792246
H           14.54698192453460        0.65030830308918       -2.37043396858208
H           18.74048347814674       -2.38010416615748        5.05536860317495
H           18.76250737817693       -2.41824776927805        7.53663489928946
H           19.33493492099299        0.65616126135219       10.75939284366388
H           19.45193880646740        1.80933627691838        7.59666420847007
H           19.41759878048299        1.85145812141354        5.12686710219101
Co          29.85388086824991       -0.07014674475215       -0.05355868956652
C           33.22386426618785       -0.21916441200462       -0.09694000721969
C           32.54817741599078       -0.37262811315478       -1.28808866209238
C           33.19712145730579       -0.56649744466548       -2.54920253552232
C           32.24164523009370       -0.44526186602036       -3.49977606369856
C           31.00625471132372       -0.19188818769120       -2.81727761412299
N           31.19749423462551       -0.19724640145934       -1.45884802582678
C           29.82598406441316        0.16933030342203       -3.45243605492282
C           28.65151869494334        0.39610482342011       -2.75093333139109
C           27.40125926684494        0.72233006440800       -3.36861592907153
C           26.45391968833669        0.63228254032271       -2.40470249118999
N           28.47322356347984        0.15121868914863       -1.40829121319804
C           27.12575924271892        0.25039332366477       -1.20331145041876
C           26.46133838190789       -0.08751495898373       -0.02280851559111
C           27.14986140962007       -0.39880274649990        1.15034842720327
C           26.50419896229615       -0.76878763524857        2.36987403512081
C           27.46600570132431       -0.80655901661164        3.32311806291718
C           28.69675500985756       -0.45474736473155        2.68136106163606
C           29.89258915662325       -0.24253064306874        3.35241243523122
C           29.90597168855451       -0.30710949866826        4.83037070981836
C           30.72329503565938       -1.22860410037856        5.49093490960083
C           30.72764170596056       -1.29362548636544        6.87193373441049
C           29.91812683994805       -0.43617543553477        7.61938170300605
C           29.95730892368021       -0.54497061492708        9.09766861173065
O           29.13233564212979        0.30972376290434        9.72094263806341
O           30.65315755766552       -1.31907902269375        9.70407211687869
C           29.10245930727124        0.48761195581081        6.96521113321492
C           29.09633383628101        0.54810653678763        5.58269066045807
C           31.07791671677764        0.00818738269212        2.67352285623557
C           32.33731670727799        0.25543498384173        3.31277617775520
C           33.27899863260357        0.24058768418234        2.34024075718069
C           32.59170332118286        0.00658914940687        1.10701368444196
N           31.23785765522669       -0.07607535451148        1.31391593444813
N           28.49947618262856       -0.27268828844503        1.33209155302435
C           29.81559150132872        0.30960200491714       -4.92785762047367
C           30.00618165630782       -0.80602146824813       -5.74626657278936
C           29.98826196879582       -0.67110834874449       -7.12248336491153
C           29.78336413678162        0.58141912098704       -7.70407542263735
C           29.76974454502595        0.67468756707204       -9.18382930476053
O           29.55270403186735        1.91708272865491       -9.64128818934370
O           29.93422177755479       -0.25995094631954       -9.92576293552711
C           29.59622380324309        1.69875966103281       -6.88988427695857
C           29.61038051905152        1.56108081362256       -5.51274995391135
H           34.30659382295438       -0.25938516411275       -0.11050550210599
H           34.25346452963429       -0.74528605836869       -2.67133602475504
H           32.35288888776249       -0.50069905574582       -4.57043068667995
H           27.27252450282876        0.96480313928901       -4.41079672651527
H           25.39162341747651        0.79581510729269       -2.48761714814391
H           25.44928124269711       -0.96709681552863        2.46907466014118
H           27.36288131270636       -1.05196899571752        4.36747945026672
H           31.34072223150040       -1.90634928669189        4.91249023187327
H           31.35507236741699       -2.01034337872958        7.39034787540398
H           29.21548040630032        0.17401281227804       10.67883783810160
H           28.47517657841378        1.15735276970808        7.54152501306322
H           28.47136010174865        1.27426444228764        5.07516624852012
H           32.47017072572773        0.41378900630828        4.37065908186309
H           34.34545611185381        0.37263365327608        2.42960815253599
H           30.15193375358806       -1.78127939403675       -5.29609480572171
H           30.12992872009464       -1.53304910854713       -7.76520791421922
H           29.55782022546907        1.89253086913479      -10.61196211863093
H           29.44049384309974        2.67325110388937       -7.33735714660776
H           29.47483812959437        2.43030416745595       -4.87917587579249
C           23.83805763319746       -0.09756884513773       -0.00022274536818
C           25.05438027052972       -0.09694186993681       -0.01103169173624

          :  Hamiltonian                  GFN1-xTB          :
         :: total energy            -238.644629891311 Eh    ::
         :: gradient norm              0.000452844994 Eh/a0 ::
         :: HOMO-LUMO gap              0.006510376069 eV    ::
         :: SCC energy              -242.015168347963 Eh    ::
         :: repulsion energy           3.484002837129 Eh    ::

    * Orbital Energies and Occupations

         #    Occupation            Energy/Eh            Energy/eV
      -------------------------------------------------------------
         1        2.0000           -0.8343143             -22.7028
       ...           ...                  ...                  ...
       200        2.0000           -0.4384541             -11.9309
       201        2.0000           -0.4384359             -11.9304
       202        2.0000           -0.4100561             -11.1582
       203        2.0000           -0.4072753             -11.0825
       204        2.0000           -0.4072259             -11.0812
       205        2.0000           -0.4063417             -11.0571
       206        2.0000           -0.4062660             -11.0551
       207        1.9998           -0.4028789             -10.9629
       208        1.9998           -0.4028764             -10.9628
       209        1.9998           -0.4027551             -10.9595
       210        1.9998           -0.4027532             -10.9595
       211        1.8845           -0.3968586             -10.7991
       212        1.1209           -0.3944371             -10.7332 (HOMO)
       213        0.9956           -0.3941978             -10.7267 (LUMO)
       214                         -0.3484527              -9.4819
       215                         -0.3401038              -9.2547
       216                         -0.3400892              -9.2543
       217                         -0.3325910              -9.0503
       218                         -0.3168207              -8.6211
       219                         -0.3151118              -8.5746
       220                         -0.3105475              -8.4504
       221                         -0.3105433              -8.4503
       222                         -0.3046575              -8.2902
       223                         -0.3044733              -8.2851
       ...                                ...                  ...
       438                          1.3334872              36.2860
      -------------------------------------------------------------
                  HL-Gap            0.0002393 Eh            0.0065 eV

Wiberg/Mayer (AO) data.
largest (>0.10) Wiberg bond orders for each atom

     #   Z sym  total        # sym  WBO       # sym  WBO       # sym  WBO
 ---------------------------------------------------------------------------
     1  27 Co   3.046 --     7 N    0.641    33 N    0.638    34 N    0.636
                            12 N    0.633
     2   6 C    3.929 --     3 C    1.367    32 C    1.363    44 H    0.970
     3   6 C    3.923 --     2 C    1.367     7 N    1.200     4 C    1.172
     4   6 C    3.960 --     5 C    1.652     3 C    1.172    45 H    0.975
     5   6 C    3.963 --     4 C    1.652     6 C    1.175    46 H    0.972
     6   6 C    3.920 --     8 C    1.321     7 N    1.212     5 C    1.175
     7   7 N    3.346 --     6 C    1.212     3 C    1.200     1 Co   0.641
     8   6 C    3.931 --     9 C    1.332     6 C    1.321    35 C    1.024
     9   6 C    3.916 --     8 C    1.332    12 N    1.194    10 C    1.181
    10   6 C    3.958 --    11 C    1.638     9 C    1.181    47 H    0.973
    11   6 C    3.962 --    10 C    1.638    13 C    1.189    48 H    0.971
    12   7 N    3.349 --    13 C    1.230     9 C    1.194     1 Co   0.633
    13   6 C    3.909 --    14 C    1.264    12 N    1.230    11 C    1.189
    14   6 C    3.934 --    15 C    1.268    13 C    1.264   125 C    1.175
    15   6 C    3.909 --    14 C    1.268    34 N    1.226    16 C    1.189
    16   6 C    3.962 --    17 C    1.637    15 C    1.189    49 H    0.971
    17   6 C    3.959 --    16 C    1.637    18 C    1.182    50 H    0.973
    18   6 C    3.917 --    19 C    1.327    34 N    1.197    17 C    1.182
    19   6 C    3.931 --    18 C    1.327    29 C    1.318    20 C    1.034
    20   6 C    3.986 --    28 C    1.385    21 C    1.383    19 C    1.034
    21   6 C    3.986 --    22 C    1.464    20 C    1.383    51 H    0.972
                            27 C    0.102
    22   6 C    3.990 --    21 C    1.464    23 C    1.385    52 H    0.968
                            28 C    0.102
    23   6 C    3.982 --    27 C    1.388    22 C    1.385    24 C    1.009
    24   6 C    3.836 --    26 O    1.690    25 O    1.088    23 C    1.009
    25   8 O    2.097 --    24 C    1.088    53 H    0.838    26 O    0.129
    26   8 O    1.958 --    24 C    1.690    25 O    0.129
    27   6 C    3.991 --    28 C    1.462    23 C    1.388    54 H    0.970
                            21 C    0.102
    28   6 C    3.986 --    27 C    1.462    20 C    1.385    55 H    0.972
                            22 C    0.102
    29   6 C    3.920 --    19 C    1.318    33 N    1.212    30 C    1.176
    30   6 C    3.963 --    31 C    1.648    29 C    1.176    56 H    0.973
    31   6 C    3.958 --    30 C    1.648    32 C    1.175    57 H    0.975
    32   6 C    3.923 --     2 C    1.363    33 N    1.201    31 C    1.175
    33   7 N    3.347 --    29 C    1.212    32 C    1.201     1 Co   0.638
    34   7 N    3.347 --    15 C    1.226    18 C    1.197     1 Co   0.636
    35   6 C    3.986 --    43 C    1.389    36 C    1.388     8 C    1.024
    36   6 C    3.987 --    37 C    1.463    35 C    1.388    58 H    0.972
                            42 C    0.103
    37   6 C    3.990 --    36 C    1.463    38 C    1.386    59 H    0.968
                            43 C    0.103
    38   6 C    3.984 --    42 C    1.389    37 C    1.386    39 C    1.009
    39   6 C    3.836 --    41 O    1.691    40 O    1.088    38 C    1.009
    40   8 O    2.097 --    39 C    1.088    60 H    0.838    41 O    0.129
    41   8 O    1.959 --    39 C    1.691    40 O    0.129
    42   6 C    3.991 --    43 C    1.460    38 C    1.389    61 H    0.970
                            36 C    0.103
    43   6 C    3.988 --    42 C    1.460    35 C    1.389    62 H    0.972
                            37 C    0.103
    44   1 H    1.000 --     2 C    0.970
    45   1 H    0.997 --     4 C    0.975
    46   1 H    1.004 --     5 C    0.972
    47   1 H    1.004 --    10 C    0.973
    48   1 H    1.004 --    11 C    0.971
    49   1 H    1.003 --    16 C    0.971
    50   1 H    1.003 --    17 C    0.973
    51   1 H    1.004 --    21 C    0.972
    52   1 H    1.005 --    22 C    0.968
    53   1 H    0.873 --    25 O    0.838
    54   1 H    1.005 --    27 C    0.970
    55   1 H    1.004 --    28 C    0.972
    56   1 H    1.003 --    30 C    0.973
    57   1 H    0.997 --    31 C    0.975
    58   1 H    1.003 --    36 C    0.972
    59   1 H    1.005 --    37 C    0.968
    60   1 H    0.873 --    40 O    0.838
    61   1 H    1.005 --    42 C    0.970
    62   1 H    1.003 --    43 C    0.972
    63  27 Co   3.046 --    69 N    0.641    95 N    0.638    96 N    0.636
                            74 N    0.633
    64   6 C    3.929 --    65 C    1.367    94 C    1.363   106 H    0.970
    65   6 C    3.923 --    64 C    1.367    69 N    1.200    66 C    1.172
    66   6 C    3.960 --    67 C    1.652    65 C    1.172   107 H    0.975
    67   6 C    3.963 --    66 C    1.652    68 C    1.175   108 H    0.972
    68   6 C    3.920 --    70 C    1.321    69 N    1.212    67 C    1.175
    69   7 N    3.346 --    68 C    1.212    65 C    1.200    63 Co   0.641
    70   6 C    3.931 --    71 C    1.332    68 C    1.321    97 C    1.024
    71   6 C    3.916 --    70 C    1.332    74 N    1.194    72 C    1.181
    72   6 C    3.958 --    73 C    1.638    71 C    1.181   109 H    0.973
    73   6 C    3.962 --    72 C    1.638    75 C    1.189   110 H    0.971
    74   7 N    3.349 --    75 C    1.230    71 C    1.194    63 Co   0.633
    75   6 C    3.909 --    76 C    1.264    74 N    1.230    73 C    1.189
    76   6 C    3.934 --    77 C    1.268    75 C    1.264   126 C    1.175
    77   6 C    3.909 --    76 C    1.268    96 N    1.226    78 C    1.189
    78   6 C    3.962 --    79 C    1.637    77 C    1.189   111 H    0.971
    79   6 C    3.959 --    78 C    1.637    80 C    1.182   112 H    0.973
    80   6 C    3.917 --    81 C    1.327    96 N    1.197    79 C    1.182
    81   6 C    3.931 --    80 C    1.327    91 C    1.318    82 C    1.034
    82   6 C    3.986 --    90 C    1.385    83 C    1.383    81 C    1.034
    83   6 C    3.986 --    84 C    1.464    82 C    1.383   113 H    0.972
                            89 C    0.102
    84   6 C    3.990 --    83 C    1.464    85 C    1.385   114 H    0.968
                            90 C    0.102
    85   6 C    3.982 --    89 C    1.388    84 C    1.385    86 C    1.009
    86   6 C    3.836 --    88 O    1.690    87 O    1.088    85 C    1.009
    87   8 O    2.097 --    86 C    1.088   115 H    0.838    88 O    0.129
    88   8 O    1.958 --    86 C    1.690    87 O    0.129
    89   6 C    3.991 --    90 C    1.462    85 C    1.388   116 H    0.970
                            83 C    0.102
    90   6 C    3.986 --    89 C    1.462    82 C    1.385   117 H    0.972
                            84 C    0.102
    91   6 C    3.920 --    81 C    1.318    95 N    1.212    92 C    1.176
    92   6 C    3.963 --    93 C    1.648    91 C    1.176   118 H    0.973
    93   6 C    3.958 --    92 C    1.648    94 C    1.175   119 H    0.975
    94   6 C    3.923 --    64 C    1.363    95 N    1.201    93 C    1.175
    95   7 N    3.347 --    91 C    1.212    94 C    1.201    63 Co   0.638
    96   7 N    3.347 --    77 C    1.226    80 C    1.197    63 Co   0.636
    97   6 C    3.986 --   105 C    1.389    98 C    1.388    70 C    1.024
    98   6 C    3.987 --    99 C    1.463    97 C    1.388   120 H    0.972
                           104 C    0.103
    99   6 C    3.990 --    98 C    1.463   100 C    1.386   121 H    0.968
                           105 C    0.103
   100   6 C    3.984 --   104 C    1.389    99 C    1.386   101 C    1.009
   101   6 C    3.836 --   103 O    1.691   102 O    1.088   100 C    1.009
   102   8 O    2.097 --   101 C    1.088   122 H    0.838   103 O    0.129
   103   8 O    1.959 --   101 C    1.691   102 O    0.129
   104   6 C    3.991 --   105 C    1.460   100 C    1.389   123 H    0.970
                            98 C    0.103
   105   6 C    3.988 --   104 C    1.460    97 C    1.389   124 H    0.972
                            99 C    0.103
   106   1 H    1.000 --    64 C    0.970
   107   1 H    0.997 --    66 C    0.975
   108   1 H    1.004 --    67 C    0.972
   109   1 H    1.004 --    72 C    0.973
   110   1 H    1.004 --    73 C    0.971
   111   1 H    1.003 --    78 C    0.971
   112   1 H    1.003 --    79 C    0.973
   113   1 H    1.004 --    83 C    0.972
   114   1 H    1.005 --    84 C    0.968
   115   1 H    0.873 --    87 O    0.838
   116   1 H    1.005 --    89 C    0.970
   117   1 H    1.004 --    90 C    0.972
   118   1 H    1.003 --    92 C    0.973
   119   1 H    0.997 --    93 C    0.975
   120   1 H    1.003 --    98 C    0.972
   121   1 H    1.005 --    99 C    0.968
   122   1 H    0.873 --   102 O    0.838
   123   1 H    1.005 --   104 C    0.970
   124   1 H    1.003 --   105 C    0.972
   125   6 C    3.930 --   126 C    2.576    14 C    1.175
   126   6 C    3.930 --   125 C    2.576    76 C    1.175
 ---------------------------------------------------------------------------

           -------------------------------------------------
          | TOTAL ENERGY             -238.644629891311 Eh   |
          | GRADIENT NORM               0.000452844994 Eh/α |
          | HOMO-LUMO GAP               0.006510376069 eV   |
           -------------------------------------------------

 * finished run on 2022/07/30 at 02:36:24.931
