   * xtb version 6.5.1 (b24c23e) compiled by 'conda@728c89f4b128' on 2022-07-12
          program call               : xtb Zn_DHP_C8_2.xyz --gfn 1 --opt -T 48

   ID    Z sym.   atoms
    1   30 Zn     1, 59
    2    6 C      2-6, 8-11, 13-17, 19-24, 26-29, 31-36, 60-64, 66-69, 71-75,
                  77-82, 84-87, 89-94, 117-124
    3    7 N      7, 12, 18, 25, 30, 37, 65, 70, 76, 83, 88, 95
    4    1 H      38-58, 96-116
########################################################################
[WARNING] Please study the warnings concerning your input carefully
-1- prog_main_parseArguments: Unknown option '-T' provided
########################################################################

          :  Hamiltonian                  GFN1-xTB          :
 * total energy  :  -205.6654166 Eh     change       -0.2649188E-09 Eh
 * total energy  :  -205.8748581 Eh     change       -0.2094415E+00 Eh
 * total energy  :  -205.9410135 Eh     change       -0.6615543E-01 Eh
 * total energy  :  -205.9615329 Eh     change       -0.2051940E-01 Eh
 * total energy  :  -205.9693336 Eh     change       -0.7800691E-02 Eh
 * total energy  :  -205.9735572 Eh     change       -0.4223609E-02 Eh
 * total energy  :  -205.9751092 Eh     change       -0.1551975E-02 Eh
 * total energy  :  -205.9773463 Eh     change       -0.2237102E-02 Eh
 * total energy  :  -205.9784209 Eh     change       -0.1074660E-02 Eh
 * total energy  :  -205.9798919 Eh     change       -0.1470955E-02 Eh
 * total energy  :  -205.9856039 Eh     change       -0.3112357E-04 Eh
 * total energy  :  -205.9856440 Eh     change       -0.4014006E-04 Eh
 * total energy  :  -205.9856704 Eh     change       -0.2644648E-04 Eh
 * total energy  :  -205.9856868 Eh     change       -0.1636538E-04 Eh
 * total energy  :  -205.9856993 Eh     change       -0.1250865E-04 Eh
 * total energy  :  -205.9857128 Eh     change       -0.1343955E-04 Eh
 * total energy  :  -205.9857235 Eh     change       -0.1071750E-04 Eh
 * total energy  :  -205.9857300 Eh     change       -0.6532880E-05 Eh
 * total energy  :  -205.9857345 Eh     change       -0.4508517E-05 Eh
   *** GEOMETRY OPTIMIZATION CONVERGED AFTER 37 ITERATIONS ***

 final structure:
================
124
 xtb: 6.5.1 (b24c23e)
Zn          11.35163340739516       -0.02257156263726       -0.01257654210765
C            7.94529536135814       -0.05036508693940       -0.14621941554486
C            8.57477121184774       -1.28937032163671       -0.17175001373772
C            7.90061730443831       -2.55633030270000       -0.21747353860963
C            8.85966831509225       -3.51598637405433       -0.23294543492578
C           10.13293357352289       -2.84632946371544       -0.20857690965390
N            9.92391793898171       -1.49857544959598       -0.15971753705700
C           11.38412923241763       -3.47543344918819       -0.21675770919680
C           11.40521806946031       -4.95617548455121       -0.31824726451896
C           10.90330609753490       -5.59631181791939       -1.38480949837685
C           10.90404789108211       -7.09861875462387       -1.50075278804017
N           11.84421379549688       -7.70154276839925       -0.55216668460918
C           12.17166765576151       -7.05007548512573        0.60948168694017
C           12.01098999078622       -5.72380425772617        0.76111736379358
C           12.62075294133828       -2.82512074563935       -0.14239037904040
C           13.90189892303736       -3.47279593235098       -0.19598845131547
C           14.84631839166726       -2.50168243001006       -0.10775686621647
N           12.81192043595690       -1.47283531193583       -0.03426687039556
C           14.15298635321458       -1.25125259664904       -0.00677671812358
C           14.78193369578956        0.00553894593199        0.10716791005143
C           14.12718793796310        1.25171547517288        0.18216634412556
C           14.79115643021675        2.51306792758783        0.33199307291399
C           13.82676356454460        3.46829194788209        0.35680577196340
C           12.56326980394710        2.79982553523253        0.21310845329509
N           12.78386876116509        1.45111066826015        0.11768406170723
C           11.31364988639992        3.42901616152743        0.19673936992406
C           11.29972940597746        4.90977398825935        0.30083964813959
C           10.70624617496002        5.53709848598973        1.32726127095909
C           10.66464905546476        7.03862185248795        1.44483851703449
N           11.64660840149077        7.66732038508128        0.55723199109951
C           12.07696409397146        7.02242880592484       -0.57371900305541
C           11.96547380903063        5.69177198700726       -0.73162545452855
C           10.07727171081881        2.77940001066283        0.09177971231830
C            8.79542389951575        3.42864969237561        0.01670290915850
C            7.85608560935977        2.45405780555108       -0.07660472618808
C            8.55176789185764        1.19803800634637       -0.07041411339786
N            9.89421356208010        1.42860016649920        0.02444312316077
H            6.86043012682745       -0.05848659646612       -0.18977580605248
H            6.82930666535042       -2.68414269141972       -0.22701951541777
H            8.72156670239358       -4.58530504492649       -0.24745236613683
H           10.45607249354977       -5.06054370690913       -2.21404011910764
H           11.20479622399907       -7.39978759102760       -2.51323592742300
H            9.88552531062633       -7.49602518340791       -1.33089245135443
H           11.77428937268871       -8.70723907540780       -0.49369175591258
H           12.64816781086331       -7.67184227302125        1.36077584758190
H           12.32174404440821       -5.21815556775505        1.66439644197764
H           14.05723436445301       -4.53496476374581       -0.29635353338278
H           15.91886148226334       -2.61413409508120       -0.11496558187049
H           15.85874552889629        2.64247554578562        0.41383098526520
H           13.95688013043504        4.53268893914037        0.46895297314766
H           10.20972303863059        4.98997915078238        2.12026678169794
H           10.89418938949401        7.34404702063104        2.47472772309292
H            9.64940070911760        7.41197292935865        1.21268647177916
H           11.55133635771586        8.67028906041842        0.48944426826464
H           12.58874945251847        7.65615895627894       -1.29107916161841
H           12.35581430358886        5.19389882058232       -1.60794459856353
H            8.63929298882419        4.49555422768459        0.02223144402989
H            6.78549258890885        2.56489533160936       -0.15193113137599
Zn          29.95255618687085        0.02152348985844       -0.00709224468538
C           33.35896033942275        0.07775217839574       -0.13229192229209
C           32.72930236291948        1.29402443937523        0.10488688264467
C           33.40323093844068        2.54236143303113        0.32700322535102
C           32.44405962080957        3.48299329111768        0.51714089569163
C           31.17093735095736        2.82254854277805        0.40227302746280
N           31.38017836456356        1.49523381588373        0.16352805814500
C           29.91972688641676        3.43781222530492        0.53278634942479
C           29.89766555279170        4.90585351573349        0.75182237882164
C           30.39171646786562        5.76128268383038       -0.15549476260063
C           30.38818016242224        7.25349622355894        0.05364870935952
N           29.45496597964491        7.63627961548271        1.11662769507588
C           29.13615470398713        6.74959011530728        2.11317135540447
C           29.29879148784404        5.42209639738288        1.97497251562190
C           28.68330365295797        2.78596162627894        0.46968210471416
C           27.40218396481592        3.42946618152123        0.56087345294686
C           26.45776315495836        2.46198817474738        0.43914650154244
N           28.49211720753746        1.44218510225403        0.28366256832860
C           27.15105589550099        1.21959963195626        0.26500340900281
C           26.52206660233102       -0.03192332008664        0.10341470839966
C           27.17680526994257       -1.26472449546659       -0.09354266218682
C           26.51275089975989       -2.52838672986278       -0.22204260069878
C           27.47724018969498       -3.46652577299980       -0.40306177726877
C           28.74089878765584       -2.78315702232512       -0.39555045042050
N           28.52027615799050       -1.44573775393143       -0.19701939237967
C           29.99071611763603       -3.39440411951727       -0.54338576564169
C           30.00475169570880       -4.86301009338244       -0.75998565588043
C           30.59203790553732       -5.69683854874950        0.11123900673571
C           30.63414734677543       -7.18849623993494       -0.09697096957997
N           29.65821843058387       -7.61071732739186       -1.10525596247274
C           29.23459946272014       -6.73729769924276       -2.07365718912319
C           29.34610682934875       -5.40390436794288       -1.94076308958504
C           31.22720762782391       -2.73790335510008       -0.50313933017869
C           32.50937348185153       -3.35675826631146       -0.71133106668997
C           33.44867231269206       -2.38477570849193       -0.59365182829373
C           32.75268481735750       -1.15851581741233       -0.32247754890388
N           31.41014525844033       -1.40378680695462       -0.28086620459855
H           34.44382766619339        0.09501932331649       -0.17305555392316
H           34.47451201627143        2.66990895954083        0.34218030321629
H           32.58191838544948        4.53134318393915        0.72856698375553
H           30.83390819029805        5.41724599042769       -1.08328637238543
H           30.07883440120932        7.76388165392942       -0.86837962976879
H           31.40749859551352        7.60832077770909        0.29698810444331
H           29.52463194621423        8.60604070066034        1.38945043732571
H           28.66457160226140        7.19422370468254        2.98380751983707
H           28.99461057018481        4.73331265696918        2.75034287719155
H           27.24691024056866        4.48812094723622        0.69331376621159
H           25.38523357204270        2.57297458603482        0.45918544626761
H           25.44500106771099       -2.67212722400562       -0.17256899027479
H           27.34714315796756       -4.52983681148957       -0.52515151557653
H           31.08317097837135       -5.33343446846084        1.00647380280609
H           30.39848228836987       -7.70847513642810        0.84151076226254
H           31.65114851733309       -7.50359802888120       -0.39777489017520
H           29.75440934811542       -8.57571952854802       -1.38656489845697
H           28.72789613334939       -7.20147050118329       -2.91385785998370
H           28.96094562865067       -4.72876593738387       -2.69177672432577
H           32.66565524860003       -4.40060856067168       -0.93189701734357
H           34.51944767804599       -2.47735679503177       -0.68848147377056
C           16.18584430071782        0.01344338824337        0.14293624300474
C           17.41053706235283        0.00810363497602        0.16411003330275
C           18.75253861026620       -0.00164213598093        0.17970126220267
C           19.98330507104572       -0.01693214516777        0.18644859987031
C           21.32067601651098       -0.03054280486037        0.18508283368724
C           22.55146111245850       -0.04360780861720        0.17462543759199
C           23.89346168242443       -0.04775295546477        0.15722689020435
C           25.11814976646864       -0.04758754980931        0.13658992506421

          :  Hamiltonian                  GFN1-xTB          :
         :: total energy            -205.985734516976 Eh    ::
         :: gradient norm              0.000284874194 Eh/a0 ::
         :: HOMO-LUMO gap              1.009681188994 eV    ::
         :: SCC energy              -209.326443608337 Eh    ::
         :: repulsion energy           3.446666551826 Eh    ::

    * Orbital Energies and Occupations

         #    Occupation            Energy/Eh            Energy/eV
      -------------------------------------------------------------
         1        2.0000           -0.7777904             -21.1648
       ...           ...                  ...                  ...
       177        2.0000           -0.4120715             -11.2130
       178        2.0000           -0.4120668             -11.2129
       179        2.0000           -0.4117883             -11.2053
       180        2.0000           -0.4030849             -10.9685
       181        2.0000           -0.3954761             -10.7615
       182        2.0000           -0.3847087             -10.4685
       183        2.0000           -0.3847085             -10.4685
       184        2.0000           -0.3781575             -10.2902
       185        2.0000           -0.3708871             -10.0924
       186        2.0000           -0.3678504             -10.0097
       187        2.0000           -0.3678394             -10.0094
       188        2.0000           -0.3666378              -9.9767
       189        2.0000           -0.3648997              -9.9294 (HOMO)
       190                         -0.3277946              -8.9197 (LUMO)
       191                         -0.3176039              -8.6424
       192                         -0.3166912              -8.6176
       193                         -0.3166726              -8.6171
       194                         -0.2907164              -7.9108
       195                         -0.2884353              -7.8487
       196                         -0.2827020              -7.6927
       197                         -0.2657815              -7.2323
       198                         -0.2621231              -7.1327
       199                         -0.2621214              -7.1327
       200                         -0.2608148              -7.0971
       ...                                ...                  ...
       412                          1.6176688              44.0190
      -------------------------------------------------------------
                  HL-Gap            0.0371051 Eh            1.0097 eV

Wiberg/Mayer (AO) data.
largest (>0.10) Wiberg bond orders for each atom

     #   Z sym  total        # sym  WBO       # sym  WBO       # sym  WBO
 ---------------------------------------------------------------------------
     1  30 Zn   2.000 --    37 N    0.460     7 N    0.459    18 N    0.457
                            25 N    0.457
     2   6 C    3.924 --    36 C    1.356     3 C    1.356    38 H    0.972
     3   6 C    3.924 --     2 C    1.356     7 N    1.233     4 C    1.172
     4   6 C    3.960 --     5 C    1.656     3 C    1.172    39 H    0.976
     5   6 C    3.964 --     4 C    1.656     6 C    1.174    40 H    0.974
     6   6 C    3.918 --     8 C    1.313     7 N    1.244     5 C    1.174
     7   7 N    3.293 --     6 C    1.244     3 C    1.233     1 Zn   0.459
     8   6 C    3.934 --    15 C    1.324     6 C    1.313     9 C    1.026
     9   6 C    3.988 --    10 C    1.768    14 C    1.097     8 C    1.026
    10   6 C    3.971 --     9 C    1.768    11 C    1.012    41 H    0.972
    11   6 C    3.961 --    10 C    1.012    42 H    0.976    43 H    0.966
                            12 N    0.949
    12   7 N    3.246 --    13 C    1.159    11 C    0.949    44 H    0.928
                            14 C    0.127
    13   6 C    3.958 --    14 C    1.694    12 N    1.159    45 H    0.971
    14   6 C    3.968 --    13 C    1.694     9 C    1.097    46 H    0.974
                            12 N    0.127
    15   6 C    3.911 --     8 C    1.324    18 N    1.223    16 C    1.180
    16   6 C    3.960 --    17 C    1.645    15 C    1.180    47 H    0.972
    17   6 C    3.962 --    16 C    1.645    19 C    1.187    48 H    0.974
    18   7 N    3.297 --    19 C    1.264    15 C    1.223     1 Zn   0.457
    19   6 C    3.901 --    18 N    1.264    20 C    1.251    17 C    1.187
    20   6 C    3.937 --    21 C    1.252    19 C    1.251   117 C    1.195
    21   6 C    3.901 --    25 N    1.264    20 C    1.252    22 C    1.187
    22   6 C    3.962 --    23 C    1.645    21 C    1.187    49 H    0.974
    23   6 C    3.960 --    22 C    1.645    24 C    1.180    50 H    0.972
    24   6 C    3.912 --    26 C    1.324    25 N    1.224    23 C    1.180
    25   7 N    3.297 --    21 C    1.264    24 C    1.224     1 Zn   0.457
    26   6 C    3.934 --    24 C    1.324    33 C    1.313    27 C    1.026
    27   6 C    3.988 --    28 C    1.768    32 C    1.097    26 C    1.026
    28   6 C    3.971 --    27 C    1.768    29 C    1.013    51 H    0.972
    29   6 C    3.961 --    28 C    1.013    52 H    0.976    53 H    0.967
                            30 N    0.949
    30   7 N    3.247 --    31 C    1.160    29 C    0.949    54 H    0.928
                            32 C    0.127
    31   6 C    3.958 --    32 C    1.693    30 N    1.160    55 H    0.971
    32   6 C    3.968 --    31 C    1.693    27 C    1.097    56 H    0.974
                            30 N    0.127
    33   6 C    3.918 --    26 C    1.313    37 N    1.243    34 C    1.174
    34   6 C    3.964 --    35 C    1.656    33 C    1.174    57 H    0.974
    35   6 C    3.960 --    34 C    1.656    36 C    1.173    58 H    0.976
    36   6 C    3.924 --     2 C    1.356    37 N    1.233    35 C    1.173
    37   7 N    3.293 --    33 C    1.243    36 C    1.233     1 Zn   0.460
    38   1 H    1.002 --     2 C    0.972
    39   1 H    0.999 --     4 C    0.976
    40   1 H    1.007 --     5 C    0.974
    41   1 H    1.004 --    10 C    0.972
    42   1 H    1.019 --    11 C    0.976
    43   1 H    1.008 --    11 C    0.966
    44   1 H    0.964 --    12 N    0.928
    45   1 H    1.001 --    13 C    0.971
    46   1 H    1.003 --    14 C    0.974
    47   1 H    1.006 --    16 C    0.972
    48   1 H    1.002 --    17 C    0.974
    49   1 H    1.002 --    22 C    0.974
    50   1 H    1.006 --    23 C    0.972
    51   1 H    1.004 --    28 C    0.972
    52   1 H    1.019 --    29 C    0.976
    53   1 H    1.008 --    29 C    0.967
    54   1 H    0.964 --    30 N    0.928
    55   1 H    1.001 --    31 C    0.971
    56   1 H    1.003 --    32 C    0.974
    57   1 H    1.007 --    34 C    0.974
    58   1 H    0.999 --    35 C    0.976
    59  30 Zn   2.000 --    95 N    0.460    65 N    0.459    76 N    0.457
                            83 N    0.457
    60   6 C    3.924 --    94 C    1.356    61 C    1.356    96 H    0.972
    61   6 C    3.924 --    60 C    1.356    65 N    1.234    62 C    1.172
    62   6 C    3.960 --    63 C    1.656    61 C    1.172    97 H    0.976
    63   6 C    3.964 --    62 C    1.656    64 C    1.174    98 H    0.974
    64   6 C    3.918 --    66 C    1.313    65 N    1.244    63 C    1.174
    65   7 N    3.293 --    64 C    1.244    61 C    1.234    59 Zn   0.459
    66   6 C    3.934 --    73 C    1.324    64 C    1.313    67 C    1.025
    67   6 C    3.988 --    68 C    1.769    72 C    1.097    66 C    1.025
    68   6 C    3.971 --    67 C    1.769    69 C    1.012    99 H    0.972
    69   6 C    3.961 --    68 C    1.012   100 H    0.976   101 H    0.966
                            70 N    0.949
    70   7 N    3.246 --    71 C    1.159    69 C    0.949   102 H    0.928
                            72 C    0.127
    71   6 C    3.958 --    72 C    1.694    70 N    1.159   103 H    0.971
    72   6 C    3.968 --    71 C    1.694    67 C    1.097   104 H    0.974
                            70 N    0.127
    73   6 C    3.911 --    66 C    1.324    76 N    1.223    74 C    1.180
    74   6 C    3.960 --    75 C    1.645    73 C    1.180   105 H    0.972
    75   6 C    3.962 --    74 C    1.645    77 C    1.187   106 H    0.974
    76   7 N    3.297 --    77 C    1.264    73 C    1.223    59 Zn   0.457
    77   6 C    3.901 --    76 N    1.264    78 C    1.251    75 C    1.187
    78   6 C    3.937 --    79 C    1.252    77 C    1.251   124 C    1.195
    79   6 C    3.901 --    83 N    1.264    78 C    1.252    80 C    1.187
    80   6 C    3.962 --    81 C    1.645    79 C    1.187   107 H    0.974
    81   6 C    3.960 --    80 C    1.645    82 C    1.180   108 H    0.972
    82   6 C    3.912 --    84 C    1.324    83 N    1.224    81 C    1.180
    83   7 N    3.297 --    79 C    1.264    82 C    1.224    59 Zn   0.457
    84   6 C    3.934 --    82 C    1.324    91 C    1.313    85 C    1.025
    85   6 C    3.988 --    86 C    1.768    90 C    1.097    84 C    1.025
    86   6 C    3.971 --    85 C    1.768    87 C    1.013   109 H    0.972
    87   6 C    3.961 --    86 C    1.013   110 H    0.976   111 H    0.967
                            88 N    0.949
    88   7 N    3.247 --    89 C    1.160    87 C    0.949   112 H    0.928
                            90 C    0.127
    89   6 C    3.958 --    90 C    1.693    88 N    1.160   113 H    0.971
    90   6 C    3.968 --    89 C    1.693    85 C    1.097   114 H    0.974
                            88 N    0.127
    91   6 C    3.918 --    84 C    1.313    95 N    1.243    92 C    1.174
    92   6 C    3.964 --    93 C    1.656    91 C    1.174   115 H    0.974
    93   6 C    3.960 --    92 C    1.656    94 C    1.172   116 H    0.976
    94   6 C    3.924 --    60 C    1.356    95 N    1.233    93 C    1.172
    95   7 N    3.293 --    91 C    1.243    94 C    1.233    59 Zn   0.460
    96   1 H    1.002 --    60 C    0.972
    97   1 H    0.999 --    62 C    0.976
    98   1 H    1.007 --    63 C    0.974
    99   1 H    1.003 --    68 C    0.972
   100   1 H    1.019 --    69 C    0.976
   101   1 H    1.008 --    69 C    0.966
   102   1 H    0.964 --    70 N    0.928
   103   1 H    1.001 --    71 C    0.971
   104   1 H    1.003 --    72 C    0.974
   105   1 H    1.006 --    74 C    0.972
   106   1 H    1.002 --    75 C    0.974
   107   1 H    1.002 --    80 C    0.974
   108   1 H    1.006 --    81 C    0.972
   109   1 H    1.003 --    86 C    0.972
   110   1 H    1.019 --    87 C    0.976
   111   1 H    1.008 --    87 C    0.967
   112   1 H    0.964 --    88 N    0.928
   113   1 H    1.001 --    89 C    0.971
   114   1 H    1.003 --    90 C    0.974
   115   1 H    1.007 --    92 C    0.974
   116   1 H    0.999 --    93 C    0.976
   117   6 C    3.876 --   118 C    2.435    20 C    1.195   120 C    0.186
   118   6 C    3.933 --   117 C    2.435   119 C    1.346
   119   6 C    3.892 --   120 C    2.333   118 C    1.346   122 C    0.182
   120   6 C    3.925 --   119 C    2.333   121 C    1.371   117 C    0.186
   121   6 C    3.925 --   122 C    2.333   120 C    1.371   124 C    0.186
   122   6 C    3.892 --   121 C    2.333   123 C    1.346   119 C    0.182
   123   6 C    3.933 --   124 C    2.435   122 C    1.346
   124   6 C    3.876 --   123 C    2.435    78 C    1.195   121 C    0.186
 ---------------------------------------------------------------------------

           -------------------------------------------------
          | TOTAL ENERGY             -205.985734516976 Eh   |
          | GRADIENT NORM               0.000284874194 Eh/α |
          | HOMO-LUMO GAP               1.009681188994 eV   |
           -------------------------------------------------

 * finished run on 2022/07/30 at 08:27:32.874
