   * xtb version 6.5.1 (b24c23e) compiled by 'conda@728c89f4b128' on 2022-07-12
          program call               : xtb Fe_BSA_C4_2.xyz --gfn 1 --opt -T 48

   ID    Z sym.   atoms
    1   26 Fe     1, 65
    2    6 C      2-6, 8-12, 17-21, 23-28, 30-34, 39-44, 66-70, 72-76, 81-85,
                  87-92, 94-98, 103-108, 129-132
    3    7 N      7, 22, 29, 45, 71, 86, 93, 109
    4   16 S      13, 35, 77, 99
    5    8 O      14-16, 36-38, 78-80, 100-102
    6    1 H      46-64, 110-128
########################################################################
[WARNING] Please study the warnings concerning your input carefully
-1- prog_main_parseArguments: Unknown option '-T' provided
########################################################################

          :  Hamiltonian                  GFN1-xTB          :
 * total energy  :  -266.1785933 Eh     change        0.1150340E-08 Eh
 * total energy  :  -266.3362285 Eh     change       -0.1576353E+00 Eh
 * total energy  :  -266.4032710 Eh     change       -0.6704245E-01 Eh
 * total energy  :  -266.4336062 Eh     change       -0.3033522E-01 Eh
 * total energy  :  -266.4485098 Eh     change       -0.1490360E-01 Eh
 * total energy  :  -266.4586961 Eh     change       -0.1018626E-01 Eh
 * total energy  :  -266.4651107 Eh     change       -0.6414622E-02 Eh
 * total energy  :  -266.4706738 Eh     change       -0.5563171E-02 Eh
 * total energy  :  -266.4751754 Eh     change       -0.4501559E-02 Eh
 * total energy  :  -266.4778315 Eh     change       -0.2656096E-02 Eh
 * total energy  :  -266.4857449 Eh     change       -0.1057369E-04 Eh
 * total energy  :  -266.4857532 Eh     change       -0.8319799E-05 Eh
 * total energy  :  -266.4857564 Eh     change       -0.3155312E-05 Eh
 * total energy  :  -266.4857639 Eh     change       -0.7582845E-05 Eh
 * total energy  :  -266.4857677 Eh     change       -0.3767031E-05 Eh
 * total energy  :  -266.4857773 Eh     change       -0.9569256E-05 Eh
 * total energy  :  -266.4857859 Eh     change       -0.8598579E-05 Eh
 * total energy  :  -266.4857969 Eh     change       -0.1101244E-04 Eh
 * total energy  :  -266.4858014 Eh     change       -0.4549951E-05 Eh
   *** GEOMETRY OPTIMIZATION CONVERGED AFTER 52 ITERATIONS ***

 final structure:
================
132
 xtb: 6.5.1 (b24c23e)
Fe          17.02562894883588       -0.00632508643232        0.05141807352447
C           13.63767951234147        0.10005141736511        0.09374955709027
C           14.28483791225792       -0.35003377366239        1.22615788068307
C           13.60721458851056       -0.81433863020595        2.39899761559782
C           14.56156502592851       -1.05633799856071        3.32817997208861
C           15.82088505043000       -0.73001542916388        2.72311493754083
N           15.64049464772417       -0.33446953330829        1.42593221716426
C           17.03967727592167       -0.76375175137984        3.39191066843640
C           17.04447710726873       -1.10755504777099        4.83331071503618
C           16.38573530446290       -0.28967633167738        5.75447277945851
C           16.39202949573125       -0.60443270091699        7.10343784384982
C           17.05621906371150       -1.74804490973853        7.51618019542160
S           17.07647248697228       -2.14801873917043        9.22320064555528
O           16.86269781092387       -0.97806862634782       10.02278173249114
O           15.72612538593517       -3.04891960724482        9.26904465983595
O           18.19021793433942       -2.99493408010627        9.53428323752598
C           17.71752610689951       -2.57879126746428        6.62634658773459
C           17.71060328204642       -2.25106868094727        5.28059665979813
C           18.25136973587720       -0.49514825473733        2.77049534501953
C           19.51406834402450       -0.48176215105321        3.44772894956613
C           20.46286929835721       -0.28879562102145        2.50012747821079
N           18.42763729179697       -0.25847826882598        1.42822350025730
C           19.77710889550273       -0.17337003691985        1.25134141734090
C           20.43642022998581       -0.05806954671514        0.02149464054067
C           19.75606075466057        0.08740785788146       -1.19396523939213
C           20.41714668290986        0.16003629624000       -2.45906658556186
C           19.45921958945085        0.41151381997482       -3.38371649505386
C           18.21629284258930        0.49999443093236       -2.67650799322915
N           18.41146097127068        0.26146158600415       -1.33752240156746
C           17.00621601631926        0.83317593579214       -3.26930600661103
C           16.99626183950252        1.17311900196040       -4.71139460780488
C           16.26969566970488        0.39209783941502       -5.61329678951241
C           16.26118574588848        0.70236091640612       -6.96328134878181
C           16.98258199786212        1.80252455459910       -7.39712995836639
S           16.96867551120038        2.20628351582243       -9.10426089129220
O           17.27276280819347        3.59292389186580       -9.30882970993337
O           18.26967178292065        1.35474895061619       -9.57206627034990
O           15.80611361573997        1.65533699418139       -9.73219452872246
C           17.70670333038073        2.59985730896477       -6.52570101712088
C           17.71267773341310        2.27769112910970       -5.17859373643794
C           15.80235248927467        0.85493972856631       -2.57349151162676
C           14.54539451499559        1.23335532666402       -3.15284435914253
C           13.60011145778897        1.02252814600157       -2.20720813840895
C           14.28145352389120        0.52786883354012       -1.04891196309282
N           15.63287571479998        0.47172422671226       -1.27081193536939
H           12.55381257845335        0.11977570803666        0.10263431578587
H           12.53863533612681       -0.93280577957540        2.48187983883917
H           14.43742564224222       -1.42615682936581        4.33302639222634
H           15.88129813270752        0.60587304720331        5.41099789395285
H           15.89562696789013        0.02841910876933        7.82832301223783
H           15.57531803090473       -3.38095880211406       10.16243965928217
H           18.23078159891304       -3.46221867955239        6.98471842376144
H           18.21397276722420       -2.89144392427823        4.56577689147390
H           19.64726705534866       -0.60214419342967        4.51040864496999
H           21.53246184075287       -0.22887137258088        2.62058064639783
H           21.47759049139524        0.03271522860902       -2.60530138965336
H           19.57322896282365        0.52103890380140       -4.44981834972794
H           15.72083879627767       -0.47044681832653       -5.25382220805199
H           15.70203410207049        0.10402368697465       -7.67154487101720
H           18.64029540940660        1.73296861291431      -10.37918758101138
H           18.24915522779336        3.45992933768881       -6.89780615684291
H           18.26344215583555        2.89418199400287       -4.47784177693661
H           14.41642930365992        1.61268536123509       -4.15347616756206
H           12.53515844037496        1.17952939792036       -2.26986243025103
Fe          30.44384434180107        0.01271106428852       -0.05015231976589
C           33.83172046164171        0.12849418695386       -0.04988496720742
C           33.18464512098298        0.12838709347653       -1.26850239065858
C           33.86233633922713        0.12991674586346       -2.52985633405313
C           32.90806391645318        0.24838629071017       -3.48277094653304
C           31.64870968358925        0.32827293366907       -2.80004354103701
N           31.82900715944457        0.21694708045172       -1.44845962019523
C           30.42989790273868        0.54343070466529       -3.43414506709173
C           30.42514021978592        0.75601461030359       -4.90062617707645
C           31.08414198417753        1.85594335040782       -5.45496492786571
C           31.07774259331279        2.06128439547315       -6.82486430500302
C           30.41312737555127        1.15098998591314       -7.63047131927177
S           30.39246671785488        1.40929831883709       -9.36458749559552
O           30.60607763073938        2.79175797733584       -9.67600810186934
O           31.74275995171905        0.58900937002636       -9.74003203731557
O           29.27859266375500        0.73690256681161       -9.96594778305464
C           29.75162652079907        0.05062383620471       -7.11000693136282
C           29.75874002341795       -0.14153178794814       -5.73833963142353
C           29.21806859308528        0.56258808143704       -2.75765089082106
C           27.95520730801298        0.82360961529431       -3.38239443848828
C           27.00640226953128        0.65220139565565       -2.43068621159341
N           29.04185717568805        0.28699702419381       -1.42282941680954
C           27.69230496383187        0.29922619805454       -1.22735891072716
C           27.03307605404637       -0.04763547137445       -0.04182093229594
C           27.71347884439563       -0.36070122068706        1.14163454020191
C           27.05250271542948       -0.76060544833257        2.34411964182297
C           28.01039208482172       -0.86767539318184        3.29641894110525
C           29.25312089398741       -0.52339231199252        2.67200283694625
N           29.05792789312160       -0.25072257479214        1.33956073618631
C           30.46309194634959       -0.43188838824166        3.34602996852848
C           30.47326337307909       -0.64884667449808        4.81168060198538
C           31.19990269828834       -1.70802101969825        5.36075295338387
C           31.20885567591921       -1.91876768966443        6.72978965131879
C           30.48787259575857       -1.05674527776522        7.53978258309382
S           30.50207488412763       -1.31292560464423        9.27515038450291
O           30.19957832570541       -0.10013249312871        9.97842131685959
O           29.19999558767917       -2.27582478679579        9.39337129791208
O           31.66379850265185       -2.05838374955062        9.65502163330282
C           29.76370183922736        0.00631434038021        7.02507961619608
C           29.75720739597267        0.20487934537297        5.65427047848994
C           31.66688418228714       -0.15432003496670        2.70749030005795
C           32.92379936165880       -0.01649869441987        3.38569885845695
C           33.86915812394533        0.13647580134782        2.42907634320942
C           33.18786553120260        0.10435354193466        1.16995572983614
N           31.83641189862348       -0.02946142938584        1.35536596521693
H           34.91559087815477        0.14991262381177       -0.05076619648225
H           34.93089775783907        0.05017808246923       -2.65060685849733
H           33.03228951585002        0.27571659633702       -4.55315148275515
H           31.58883763773485        2.56137688399905       -4.80528041653135
H           31.57436707442876        2.91683385973397       -7.26506426065115
H           31.89352697253113        0.61044998719587      -10.69289979676065
H           29.23808431633151       -0.63800583638128       -7.76907018831119
H           29.25531277495078       -1.00045283132796       -5.31027414206977
H           27.82185895846984        1.10371266149806       -4.41451515773358
H           25.93669573856407        0.75085073427271       -2.52082842795468
H           25.99220463467744       -0.93391349757125        2.43279004736917
H           27.89652398287156       -1.15971747403616        4.32759095459135
H           31.74845476389904       -2.37663332250071        4.70768600858589
H           31.76801848692797       -2.73663598028897        7.16650239656547
H           28.83840660017609       -2.23695042945151       10.28751347742210
H           29.22155283647964        0.66796427243456        7.68895717678722
H           29.20629067787138        1.03673782981890        5.23123808627949
H           33.05268047063795       -0.03332589104342        4.45569716784303
H           34.93412860242992        0.25906801091428        2.54529320302658
C           23.06135724521165       -0.09054024588728       -0.00845149089541
C           21.83761648042489       -0.08336128059709        0.00577837537917
C           24.40816187901505       -0.08836404208868       -0.02405408681235
C           25.63185022031416       -0.07492713841523       -0.03627168013281

          :  Hamiltonian                  GFN1-xTB          :
         :: total energy            -266.485801448542 Eh    ::
         :: gradient norm              0.000755223725 Eh/a0 ::
         :: HOMO-LUMO gap              0.092046561565 eV    ::
         :: SCC energy              -270.006767707571 Eh    ::
         :: repulsion energy           3.642368526448 Eh    ::

    * Orbital Energies and Occupations

         #    Occupation            Energy/Eh            Energy/eV
      -------------------------------------------------------------
         1        2.0000           -1.0377615             -28.2389
       ...           ...                  ...                  ...
       219        2.0000           -0.4455550             -12.1242
       220        2.0000           -0.4455299             -12.1235
       221        2.0000           -0.4448441             -12.1048
       222        2.0000           -0.4173285             -11.3561
       223        2.0000           -0.4155892             -11.3088
       224        2.0000           -0.4155671             -11.3082
       225        1.9922           -0.4083024             -11.1105
       226        1.9920           -0.4082830             -11.1099
       227        1.9432           -0.4063972             -11.0586
       228        1.9413           -0.4063651             -11.0578
       229        1.9346           -0.4062596             -11.0549
       230        1.9345           -0.4062578             -11.0548
       231        1.7267           -0.4047933             -11.0150 (HOMO)
       232        0.3045           -0.4014106             -10.9229 (LUMO)
       233        0.2312           -0.4011087             -10.9147
       234                         -0.3577959              -9.7361
       235                         -0.3485382              -9.4842
       236                         -0.3485136              -9.4835
       237                         -0.3430647              -9.3353
       238                         -0.3219314              -8.7602
       239                         -0.3200501              -8.7090
       240                         -0.3199840              -8.7072
       241                         -0.3185300              -8.6676
       242                         -0.3110066              -8.4629
       ...                                ...                  ...
       482                          1.4923837              40.6098
      -------------------------------------------------------------
                  HL-Gap            0.0033826 Eh            0.0920 eV

Wiberg/Mayer (AO) data.
largest (>0.10) Wiberg bond orders for each atom

     #   Z sym  total        # sym  WBO       # sym  WBO       # sym  WBO
 ---------------------------------------------------------------------------
     1  26 Fe   3.156 --    45 N    0.674     7 N    0.667    22 N    0.665
                            29 N    0.660
     2   6 C    3.924 --    44 C    1.364     3 C    1.362    46 H    0.970
     3   6 C    3.922 --     2 C    1.362     7 N    1.208     4 C    1.172
     4   6 C    3.959 --     5 C    1.650     3 C    1.172    47 H    0.975
     5   6 C    3.961 --     4 C    1.650     6 C    1.174    48 H    0.973
     6   6 C    3.921 --     8 C    1.313     7 N    1.225     5 C    1.174
     7   7 N    3.380 --     6 C    1.225     3 C    1.208     1 Fe   0.667
     8   6 C    3.925 --    19 C    1.332     6 C    1.313     9 C    1.028
     9   6 C    3.986 --    10 C    1.391    18 C    1.391     8 C    1.028
    10   6 C    3.986 --    11 C    1.450     9 C    1.391    49 H    0.971
                            17 C    0.106
    11   6 C    3.989 --    10 C    1.450    12 C    1.408    50 H    0.967
                            18 C    0.106
    12   6 C    3.931 --    17 C    1.408    11 C    1.408    13 S    0.754
    13  16 S    5.265 --    14 O    1.720    16 O    1.719    15 O    1.013
                            12 C    0.754
    14   8 O    2.079 --    13 S    1.720    16 O    0.139
    15   8 O    2.088 --    13 S    1.013    51 H    0.827
    16   8 O    2.078 --    13 S    1.719    14 O    0.139
    17   6 C    3.989 --    18 C    1.449    12 C    1.408    52 H    0.967
                            10 C    0.106
    18   6 C    3.986 --    17 C    1.449     9 C    1.391    53 H    0.971
                            11 C    0.106
    19   6 C    3.917 --     8 C    1.332    22 N    1.201    20 C    1.179
    20   6 C    3.956 --    21 C    1.638    19 C    1.179    54 H    0.973
    21   6 C    3.960 --    20 C    1.638    23 C    1.188    55 H    0.973
    22   7 N    3.382 --    23 C    1.244    19 C    1.201     1 Fe   0.665
    23   6 C    3.903 --    24 C    1.252    22 N    1.244    21 C    1.188
    24   6 C    3.923 --    23 C    1.252    25 C    1.250   130 C    1.202
    25   6 C    3.903 --    24 C    1.250    29 N    1.244    26 C    1.188
    26   6 C    3.960 --    27 C    1.638    25 C    1.188    56 H    0.973
    27   6 C    3.956 --    26 C    1.638    28 C    1.179    57 H    0.973
    28   6 C    3.917 --    30 C    1.331    29 N    1.201    27 C    1.179
    29   7 N    3.380 --    25 C    1.244    28 C    1.201     1 Fe   0.660
    30   6 C    3.925 --    28 C    1.331    41 C    1.314    31 C    1.029
    31   6 C    3.986 --    32 C    1.391    40 C    1.390    30 C    1.029
    32   6 C    3.986 --    33 C    1.449    31 C    1.391    58 H    0.971
                            39 C    0.106
    33   6 C    3.989 --    32 C    1.449    34 C    1.408    59 H    0.966
                            40 C    0.106
    34   6 C    3.932 --    33 C    1.408    39 C    1.408    35 S    0.753
    35  16 S    5.270 --    38 O    1.731    36 O    1.712    37 O    1.016
                            34 C    0.753
    36   8 O    2.071 --    35 S    1.712    38 O    0.138
    37   8 O    2.090 --    35 S    1.016    60 H    0.827
    38   8 O    2.088 --    35 S    1.731    36 O    0.138
    39   6 C    3.989 --    40 C    1.450    34 C    1.408    61 H    0.967
                            32 C    0.106
    40   6 C    3.986 --    39 C    1.450    31 C    1.390    62 H    0.971
                            33 C    0.106
    41   6 C    3.921 --    30 C    1.314    45 N    1.224    42 C    1.173
    42   6 C    3.961 --    43 C    1.651    41 C    1.173    63 H    0.973
    43   6 C    3.959 --    42 C    1.651    44 C    1.172    64 H    0.974
    44   6 C    3.922 --     2 C    1.364    45 N    1.208    43 C    1.172
    45   7 N    3.383 --    41 C    1.224    44 C    1.208     1 Fe   0.674
    46   1 H    1.000 --     2 C    0.970
    47   1 H    0.997 --     4 C    0.975
    48   1 H    1.003 --     5 C    0.973
    49   1 H    1.002 --    10 C    0.971
    50   1 H    0.999 --    11 C    0.967
    51   1 H    0.854 --    15 O    0.827
    52   1 H    0.999 --    17 C    0.967
    53   1 H    1.003 --    18 C    0.971
    54   1 H    1.003 --    20 C    0.973
    55   1 H    1.001 --    21 C    0.973
    56   1 H    1.001 --    26 C    0.973
    57   1 H    1.003 --    27 C    0.973
    58   1 H    1.002 --    32 C    0.971
    59   1 H    0.999 --    33 C    0.966
    60   1 H    0.854 --    37 O    0.827
    61   1 H    0.999 --    39 C    0.967
    62   1 H    1.002 --    40 C    0.971
    63   1 H    1.003 --    42 C    0.973
    64   1 H    0.997 --    43 C    0.974
    65  26 Fe   3.159 --   109 N    0.674    71 N    0.667    86 N    0.665
                            93 N    0.660
    66   6 C    3.925 --   108 C    1.364    67 C    1.362   110 H    0.970
    67   6 C    3.922 --    66 C    1.362    71 N    1.208    68 C    1.172
    68   6 C    3.959 --    69 C    1.650    67 C    1.172   111 H    0.975
    69   6 C    3.961 --    68 C    1.650    70 C    1.174   112 H    0.973
    70   6 C    3.921 --    72 C    1.313    71 N    1.225    69 C    1.174
    71   7 N    3.380 --    70 C    1.225    67 C    1.208    65 Fe   0.667
    72   6 C    3.925 --    83 C    1.332    70 C    1.313    73 C    1.028
    73   6 C    3.986 --    74 C    1.391    82 C    1.391    72 C    1.028
    74   6 C    3.986 --    75 C    1.450    73 C    1.391   113 H    0.971
                            81 C    0.106
    75   6 C    3.989 --    74 C    1.450    76 C    1.408   114 H    0.967
                            82 C    0.106
    76   6 C    3.931 --    75 C    1.408    81 C    1.408    77 S    0.754
    77  16 S    5.265 --    78 O    1.720    80 O    1.719    79 O    1.013
                            76 C    0.754
    78   8 O    2.079 --    77 S    1.720    80 O    0.139
    79   8 O    2.088 --    77 S    1.013   115 H    0.827
    80   8 O    2.078 --    77 S    1.719    78 O    0.139
    81   6 C    3.989 --    82 C    1.450    76 C    1.408   116 H    0.967
                            74 C    0.106
    82   6 C    3.986 --    81 C    1.450    73 C    1.391   117 H    0.971
                            75 C    0.106
    83   6 C    3.917 --    72 C    1.332    86 N    1.201    84 C    1.179
    84   6 C    3.956 --    85 C    1.638    83 C    1.179   118 H    0.973
    85   6 C    3.960 --    84 C    1.638    87 C    1.188   119 H    0.973
    86   7 N    3.382 --    87 C    1.244    83 C    1.201    65 Fe   0.665
    87   6 C    3.903 --    88 C    1.252    86 N    1.244    85 C    1.188
    88   6 C    3.924 --    87 C    1.252    89 C    1.250   132 C    1.202
    89   6 C    3.903 --    88 C    1.250    93 N    1.244    90 C    1.189
    90   6 C    3.960 --    91 C    1.637    89 C    1.189   120 H    0.973
    91   6 C    3.956 --    90 C    1.637    92 C    1.179   121 H    0.973
    92   6 C    3.917 --    94 C    1.331    93 N    1.201    91 C    1.179
    93   7 N    3.380 --    89 C    1.244    92 C    1.201    65 Fe   0.660
    94   6 C    3.925 --    92 C    1.331   105 C    1.314    95 C    1.029
    95   6 C    3.986 --    96 C    1.391   104 C    1.391    94 C    1.029
    96   6 C    3.986 --    97 C    1.449    95 C    1.391   122 H    0.971
                           103 C    0.106
    97   6 C    3.989 --    96 C    1.449    98 C    1.408   123 H    0.966
                           104 C    0.106
    98   6 C    3.932 --    97 C    1.408   103 C    1.408    99 S    0.753
    99  16 S    5.270 --   102 O    1.730   100 O    1.713   101 O    1.016
                            98 C    0.753
   100   8 O    2.072 --    99 S    1.713   102 O    0.138
   101   8 O    2.090 --    99 S    1.016   124 H    0.827
   102   8 O    2.088 --    99 S    1.730   100 O    0.138
   103   6 C    3.989 --   104 C    1.450    98 C    1.408   125 H    0.967
                            96 C    0.106
   104   6 C    3.986 --   103 C    1.450    95 C    1.391   126 H    0.971
                            97 C    0.106
   105   6 C    3.921 --    94 C    1.314   109 N    1.224   106 C    1.173
   106   6 C    3.961 --   107 C    1.651   105 C    1.173   127 H    0.973
   107   6 C    3.959 --   106 C    1.651   108 C    1.172   128 H    0.974
   108   6 C    3.922 --    66 C    1.364   109 N    1.208   107 C    1.172
   109   7 N    3.383 --   105 C    1.224   108 C    1.208    65 Fe   0.674
   110   1 H    1.000 --    66 C    0.970
   111   1 H    0.997 --    68 C    0.975
   112   1 H    1.003 --    69 C    0.973
   113   1 H    1.002 --    74 C    0.971
   114   1 H    0.999 --    75 C    0.967
   115   1 H    0.854 --    79 O    0.827
   116   1 H    0.999 --    81 C    0.967
   117   1 H    1.003 --    82 C    0.971
   118   1 H    1.003 --    84 C    0.973
   119   1 H    1.001 --    85 C    0.973
   120   1 H    1.001 --    90 C    0.973
   121   1 H    1.003 --    91 C    0.973
   122   1 H    1.002 --    96 C    0.971
   123   1 H    0.999 --    97 C    0.966
   124   1 H    0.854 --   101 O    0.827
   125   1 H    0.999 --   103 C    0.967
   126   1 H    1.002 --   104 C    0.971
   127   1 H    1.003 --   106 C    0.973
   128   1 H    0.997 --   107 C    0.974
   129   6 C    3.922 --   130 C    2.451   131 C    1.324
   130   6 C    3.915 --   129 C    2.451    24 C    1.202   132 C    0.196
   131   6 C    3.922 --   132 C    2.451   129 C    1.324
   132   6 C    3.915 --   131 C    2.451    88 C    1.202   130 C    0.196
 ---------------------------------------------------------------------------

           -------------------------------------------------
          | TOTAL ENERGY             -266.485801448542 Eh   |
          | GRADIENT NORM               0.000755223725 Eh/α |
          | HOMO-LUMO GAP               0.092046561565 eV   |
           -------------------------------------------------

 * finished run on 2022/07/29 at 21:00:26.529
