   * xtb version 6.5.1 (b24c23e) compiled by 'conda@728c89f4b128' on 2022-07-12
          program call               : xtb Cu_m-CP_C8_3.xyz --gfn 1 --opt -T 48

   ID    Z sym.   atoms
    1   29 Cu     1, 63, 141
    2    6 C      2-6, 8-12, 15-20, 22-27, 29-35, 38-42, 64-68, 70-74, 77-82,
                  84-89, 91-97, 100-104, 125-140, 142-146, 148-152, 155-160,
                  162-167, 169-175, 178-182
    3    7 N      7, 21, 28, 43, 69, 83, 90, 105, 147, 161, 168, 183
    4    8 O      13, 14, 36, 37, 75, 76, 98, 99, 153, 154, 176, 177
    5    1 H      44-62, 106-124, 184-201
########################################################################
[WARNING] Please study the warnings concerning your input carefully
-1- prog_main_parseArguments: Unknown option '-T' provided
########################################################################

          :  Hamiltonian                  GFN1-xTB          :
 * total energy  :  -385.7388093 Eh     change        0.2777369E-09 Eh
 * total energy  :  -386.5859291 Eh     change       -0.8471197E+00 Eh
 * total energy  :  -386.8358749 Eh     change       -0.2499459E+00 Eh
 * total energy  :  -386.9586433 Eh     change       -0.1227684E+00 Eh
 * total energy  :  -387.0216390 Eh     change       -0.6299565E-01 Eh
 * total energy  :  -387.0641772 Eh     change       -0.4253820E-01 Eh
 * total energy  :  -387.0974162 Eh     change       -0.3323898E-01 Eh
 * total energy  :  -387.1258701 Eh     change       -0.2845396E-01 Eh
 * total energy  :  -387.1523223 Eh     change       -0.2645221E-01 Eh
 * total energy  :  -387.1754542 Eh     change       -0.2313190E-01 Eh
 * total energy  :  -387.4625613 Eh     change       -0.5816854E-04 Eh
 * total energy  :  -387.4625632 Eh     change       -0.1858144E-05 Eh
 * total energy  :  -387.4625618 Eh     change        0.1390488E-05 Eh
 * total energy  :  -387.4625757 Eh     change       -0.1390285E-04 Eh
 * total energy  :  -387.4625242 Eh     change        0.5148278E-04 Eh
 * total energy  :  -387.4625712 Eh     change       -0.4696643E-04 Eh
 * total energy  :  -387.4625228 Eh     change        0.4834943E-04 Eh
 * total energy  :  -387.4625959 Eh     change       -0.7311314E-04 Eh
 * total energy  :  -387.4625993 Eh     change       -0.3389194E-05 Eh
   *** GEOMETRY OPTIMIZATION CONVERGED AFTER 164 ITERATIONS ***

 final structure:
================
201
 xtb: 6.5.1 (b24c23e)
Cu          27.61120375128206       -0.02786424182471       -0.69368890173544
C           24.25945678355432       -0.21343930726179       -0.11133327106449
C           24.83261616557458        1.04803092800892       -0.05804172774727
C           24.11137471995630        2.26363079599014        0.19148253820112
C           25.01661324201095        3.27250363642878        0.16469581966777
C           26.30168181596030        2.68021275933586       -0.09230099714428
N           26.15797308672551        1.33009502039438       -0.22957049884510
C           27.50299823544748        3.38357700768978       -0.20627473455793
C           27.45954113551187        4.85164120933970        0.01272361717996
C           27.07995299436641        5.36977118281544        1.24742594697090
C           27.04531657055685        6.74809668206191        1.45567216037157
C           26.63869743431401        7.23863315252482        2.79656719051478
O           26.64866488986046        8.57521188253959        2.90415655777676
O           26.32444830604566        6.52552069945111        3.71491646070475
C           27.38734006196360        7.62005515109889        0.42219365004651
C           27.76219726035026        7.10643677283409       -0.80939714070651
C           27.80090129329344        5.73439982936923       -1.01446424721350
C           28.74282452314705        2.81490779935390       -0.50247875905186
C           29.98422766090668        3.53411864535066       -0.55785018217935
C           30.95410907752370        2.63182883542390       -0.85153970372332
N           28.97787114517332        1.48915036244769       -0.75460777353411
C           30.31460767041662        1.35547806923354       -0.97080811574592
C           30.98947574802453        0.15595305357127       -1.26088369474254
C           30.38744324552597       -1.11099754074102       -1.34899504900386
C           31.08555640945491       -2.31396442846808       -1.69072238739737
C           30.17456383038435       -3.31957252193205       -1.66694675739919
C           28.91410968096617       -2.73758371784896       -1.29989615758210
N           29.07484558221895       -1.38900878376691       -1.12223599289465
C           27.71618517183175       -3.44170775577914       -1.16617185782139
C           27.75950457554400       -4.91306993359481       -1.36165669902802
C           28.52372817860083       -5.71877640318323       -0.51491346950486
C           28.55866023184294       -7.09531430055524       -0.69015699697016
C           27.83418900730477       -7.68393865181024       -1.71303577147946
C           27.06806815606327       -6.88915076102064       -2.56713052432810
C           26.30500736602145       -7.55713849323443       -3.65104006694681
O           25.59453680262265       -6.70907625468456       -4.40922120514710
O           26.30592265520280       -8.74499779464979       -3.85021492034317
C           27.03122409354585       -5.50755453953309       -2.38975373637125
C           26.47779228680125       -2.87247754688522       -0.85888412794013
C           25.25449299523220       -3.60450483395387       -0.66906315899612
C           24.28874759609464       -2.69831972505167       -0.37836765443735
C           24.91444615502916       -1.40684671143086       -0.37588893951373
N           26.24185753039737       -1.54179187381979       -0.66827529728783
H           23.19224581314813       -0.27329934176823        0.07570956041990
H           23.04721103831766        2.32333204711886        0.35673983656558
H           24.83647256786420        4.32723864679829        0.29652278396926
H           26.82262394704801        4.70657501725551        2.06606959315624
H           26.37336934845813        8.81394480222347        3.80422433665776
H           27.35832764525570        8.69057067042342        0.58514417579460
H           28.02607723385863        7.77848471272086       -1.61814591175185
H           28.08499932273893        5.33942632744207       -1.98348089445182
H           30.09787988699520        4.59104121067570       -0.37882326763943
H           32.01146914204914        2.80521074989481       -0.97138775186279
H           32.13650413758648       -2.36947869933455       -1.92564939415178
H           30.33495592428344       -4.36188618021661       -1.89044481783066
H           29.08090449061872       -5.26121944649315        0.29494380475538
H           29.15267847593631       -7.70839436111059       -0.02201374838039
H           27.84972159627683       -8.75745849475730       -1.86358808137002
H           25.12829790938357       -7.22139789189399       -5.08965244028946
H           26.44561767407513       -4.89134554627298       -3.06170756822069
H           25.15638735353433       -4.67586345735518       -0.73881406547387
H           23.24502250102366       -2.87548831732674       -0.17196958432763
Cu          63.04044356625622        0.15556903136048       -0.50427080023743
C           66.41041371144962        0.04852462844812       -0.01578767493154
C           65.78872620174509       -1.14531404327664       -0.34787234089577
C           66.46785341182384       -2.39664088065225       -0.52772112600248
C           65.52291499667513       -3.31774400159234       -0.83840699902734
C           64.25579057748035       -2.63810319518950       -0.84322149540774
N           64.44857452256157       -1.31912609988071       -0.54781888022997
C           63.02655213211199       -3.23405213747180       -1.13158069614968
C           63.01966917678450       -4.69739853332308       -1.38330902898479
C           63.40985801675388       -5.58434957222669       -0.38419671474381
C           63.40059695780415       -6.95930542930798       -0.61548135670791
C           63.82237918583914       -7.85321950960134        0.49200619621538
O           63.76281797725941       -9.15644024876595        0.18174289560164
O           64.18850437025358       -7.46958247629473        1.57319977831569
C           63.00337406283973       -7.45655706747649       -1.85660361390566
C           62.61774825585486       -6.57509359291510       -2.85423187831060
C           62.62289085699777       -5.20680964064186       -2.62171877293712
C           61.80394705965102       -2.56326844936299       -1.19499835025909
C           60.53548899912804       -3.18848735992137       -1.43970574078307
C           59.59638038709821       -2.20905508262920       -1.40797500079263
N           61.61676055157001       -1.21882204839545       -1.00909685539782
C           60.28230773040323       -0.98240066691462       -1.13521908520657
C           59.64873006111647        0.26704188194133       -1.01278024401999
C           60.29747126124565        1.47396076711837       -0.69601156785060
C           59.63915788619435        2.74196486798753       -0.60492712762679
C           60.58538929615843        3.65541246033549       -0.26934696363356
C           61.82834141926570        2.94836458728259       -0.14777793704537
N           61.62216743199936        1.62169230106920       -0.42077189716118
C           63.05293315119128        3.53625213797881        0.17436794066440
C           63.05366583967984        4.98792279086023        0.48745176173700
C           62.33951331743511        5.47329177575488        1.58512894204057
C           62.34163640694749        6.82794472394677        1.88746261534974
C           63.05301850112127        7.71467229614029        1.09671764640760
C           63.76888026000969        7.24214271041259       -0.00431347137940
C           64.51753969159564        8.22446197942723       -0.82763867285926
O           65.18155052113130        7.67107855078160       -1.85309371547341
O           64.54333585039252        9.40966628001745       -0.61492776505288
C           63.76936173936286        5.88160118258214       -0.30595782352190
C           64.27599530331049        2.86502644628634        0.23009390397485
C           65.53033354619753        3.45995940849255        0.60436112572368
C           66.46869568145964        2.48320594146995        0.54318921142876
C           65.79482767554036        1.28055655079017        0.14506130250870
N           64.46635011840617        1.53976682678836       -0.03869459055309
H           67.48370019604802        0.01418854514079        0.13984580041025
H           67.53310204247830       -2.53613826046183       -0.43256501139286
H           65.66469755305673       -4.36386944817726       -1.05702002624969
H           63.71038473441740       -5.21595408915705        0.59057802082223
H           64.05176361953978       -9.67028858558673        0.95317961590311
H           62.99871991810728       -8.52491159320489       -2.03549891669986
H           62.31147091718694       -6.95462027095928       -3.82248711775768
H           62.33063259563725       -4.52249826984005       -3.41032466269408
H           60.38417327074278       -4.24373540913330       -1.59961089457416
H           58.53108476350425       -2.30077602564681       -1.54705105627026
H           58.58817116504328        2.90410684713737       -0.78294476313450
H           60.45945206632612        4.71699994410577       -0.13067468523681
H           61.79172470337669        4.77877394802319        2.21223403818946
H           61.78647641392449        7.18926422269626        2.74558404931067
H           63.06523995658426        8.77587344916961        1.31823068101567
H           65.64074385038809        8.37576844476011       -2.33826414360853
H           64.31565071499890        5.51908892580798       -1.16869223251634
H           65.66653795120450        4.49140856713698        0.88699900468849
H           67.52350415744172        2.55390366724899        0.75704946546405
C           32.38053159247043        0.23755300127542       -1.45124260409546
C           33.59289868015320        0.34713185236968       -1.57731187936947
C           34.92589452743650        0.50133669203223       -1.66070916364049
C           36.14084463850338        0.68577533012162       -1.68729599719320
C           37.45984388379586        0.92971542524856       -1.63893172333528
C           38.65733751176470        1.18346408895357       -1.55884437234706
C           39.95706470491455        1.54541923484359       -1.30505495522635
C           40.95077993029103        2.41862247859939       -1.65959109630668
C           49.34904752803723        0.55317484174785       -1.49256053796370
C           50.57157633063764        0.51806769988472       -1.57205325047159
C           51.91150192067354        0.47738859536612       -1.62028472420942
C           53.14248271488362        0.44442506182522       -1.61139690589455
C           54.47811845087763        0.40810326062394       -1.56100435658307
C           55.70589277026505        0.37714616382667       -1.47534895603604
C           57.04170938501293        0.34167733478226       -1.34953658133900
C           58.25707542973255        0.30938519703754       -1.20120254422997
Cu          44.53321495880103        0.75624628046969       -0.90786701110191
C           41.12677013121338        0.92765479535281       -0.73761753865735
C           41.67956651583761       -0.33234294849684       -1.03785619553192
C           40.91486119374862       -1.48999888690378       -1.35186220042070
C           41.81010095165539       -2.48994845468405       -1.59483868136689
C           43.11629016075623       -1.93358944899059       -1.42940773169557
N           43.00429056790601       -0.61607618224069       -1.05307894354591
C           44.31099853967159       -2.59499032170129       -1.73458262203678
C           44.20767496236423       -4.03111444225699       -2.09337262486769
C           43.69876289524703       -4.95031457417375       -1.18027398738035
C           43.60347466963326       -6.30052420172030       -1.51464236794473
C           43.05633292121064       -7.23219309737339       -0.49659473055641
O           43.01315787822998       -8.50840744373353       -0.90618946804204
O           42.68029088289860       -6.89894270352128        0.59803158663694
C           44.01331836650252       -6.73971859946873       -2.77352185923661
C           44.51508397600399       -5.82549468857703       -3.68650405597399
C           44.61423931552363       -4.48254216231153       -3.35145714924203
C           45.58180801197293       -2.02023673070193       -1.76355363324620
C           46.80020561047836       -2.72918193140896       -2.02392770445748
C           47.81319964056227       -1.82786425941153       -1.92967353949902
N           45.87231706975805       -0.70044089857671       -1.51435437019820
C           47.21881241201879       -0.57208121656623       -1.59188499609556
C           47.95769985591565        0.60419621316414       -1.32153415891705
C           47.41436302358479        1.79118142161997       -0.80978601500125
C           48.17897775108783        2.97140144209338       -0.51509859792623
C           47.33124347354438        3.85905436502253        0.05807519971638
C           46.03421839797544        3.23588315510125        0.09390852948677
N           46.11740624650923        1.98087466279648       -0.44318736031365
C           44.87549807009314        3.80824910777315        0.61199600679850
C           44.99762106180407        5.05298315173251        1.39897265298734
C           44.21183453324418        6.16986972891170        1.09583821945841
C           44.32807683386583        7.34005645194192        1.83192656827108
C           45.22830263748851        7.41488170040124        2.88197157152727
C           46.01950344377084        6.30850469161779        3.19610525101463
C           46.97081274566579        6.42568553106839        4.32957581365471
O           47.68426647614501        5.31173480311189        4.54937277529436
O           47.10751963448133        7.41541714382685        5.00222493032268
C           45.90403525355948        5.13405151674257        2.45653194705041
C           43.58820837973215        3.26833234003067        0.42418445661878
C           42.42281736915882        3.69739529525278        1.16820648862093
C           41.36912778262557        3.01552028563025        0.69515734536406
C           41.85115520188633        2.18661218323165       -0.42578703077040
N           43.26091920131003        2.31831545957324       -0.47005994484420
H           39.83818256751362       -1.52820147990491       -1.39480637851872
H           41.59691930939253       -3.50397107770363       -1.89195645217767
H           43.38547057749437       -4.62800379124721       -0.19329887369453
H           42.64639856976765       -9.04979593974483       -0.18840149028587
H           43.93649455301470       -7.78877203258158       -3.03236829172321
H           44.83099513452263       -6.15930816347538       -4.66840556677610
H           44.99502729061595       -3.77073395831999       -4.07530225823498
H           46.87497052066245       -3.78443288175473       -2.23114750497501
H           48.87097396232064       -1.99741800079279       -2.05178656918726
H           49.23166662392402        3.08811176487602       -0.71760592297964
H           47.54450781991122        4.86292383786882        0.38817538034966
H           43.51884661813832        6.12262785236968        0.26309289426603
H           43.71441547375940        8.19760208608926        1.58027314208974
H           45.33128674347474        8.32141798088555        3.46748223473573
H           48.27779694392515        5.46924242092972        5.30145711927900
H           46.50628333050941        4.27153056346485        2.71651489298117
H           42.44340788302584        4.40603642920625        1.98075733003057
H           40.33408468549186        3.05284109516142        0.99284785300667

          :  Hamiltonian                  GFN1-xTB          :
         :: total energy            -387.462599327895 Eh    ::
         :: gradient norm              0.000861132170 Eh/a0 ::
         :: HOMO-LUMO gap              0.004846795738 eV    ::
         :: SCC energy              -393.226283054680 Eh    ::
         :: repulsion energy           5.942877635598 Eh    ::

    * Orbital Energies and Occupations

         #    Occupation            Energy/Eh            Energy/eV
      -------------------------------------------------------------
         1        2.0000           -0.8343007             -22.7025
       ...           ...                  ...                  ...
       335        2.0000           -0.4129874             -11.2380
       336        2.0000           -0.4125594             -11.2263
       337        2.0000           -0.4121175             -11.2143
       338        2.0000           -0.4105881             -11.1727
       339        2.0000           -0.4089523             -11.1282
       340        2.0000           -0.4036468             -10.9838
       341        2.0000           -0.4033017             -10.9744
       342        2.0000           -0.3965650             -10.7911
       343        2.0000           -0.3951736             -10.7532
       344        2.0000           -0.3907807             -10.6337
       345        2.0000           -0.3843235             -10.4580
       346        1.0893           -0.3636996              -9.8968
       347        0.9969           -0.3635014              -9.8914 (HOMO)
       348        0.9138           -0.3633233              -9.8865 (LUMO)
       349                         -0.3449283              -9.3860
       350                         -0.3436186              -9.3503
       351                         -0.3392079              -9.2303
       352                         -0.3365986              -9.1593
       353                         -0.3362607              -9.1501
       354                         -0.3294017              -8.9635
       355                         -0.3151456              -8.5755
       356                         -0.3126516              -8.5077
       357                         -0.3123639              -8.4999
       358                         -0.3116289              -8.4799
       ...                                ...                  ...
       707                          1.6008911              43.5625
      -------------------------------------------------------------
                  HL-Gap            0.0001781 Eh            0.0048 eV

Wiberg/Mayer (AO) data.
largest (>0.10) Wiberg bond orders for each atom

     #   Z sym  total        # sym  WBO       # sym  WBO       # sym  WBO
 ---------------------------------------------------------------------------
     1  29 Cu   2.182 --    43 N    0.505     7 N    0.504    21 N    0.501
                            28 N    0.501
     2   6 C    3.930 --     3 C    1.362    42 C    1.362    44 H    0.971
     3   6 C    3.916 --     2 C    1.362     7 N    1.229     4 C    1.169
     4   6 C    3.955 --     5 C    1.658     3 C    1.169    45 H    0.975
     5   6 C    3.958 --     4 C    1.658     6 C    1.170    46 H    0.973
     6   6 C    3.914 --     8 C    1.320     7 N    1.240     5 C    1.170
     7   7 N    3.245 --     6 C    1.240     3 C    1.229     1 Cu   0.504
     8   6 C    3.934 --    18 C    1.328     6 C    1.320     9 C    1.025
     9   6 C    3.988 --    10 C    1.409    17 C    1.388     8 C    1.025
                            15 C    0.103
    10   6 C    3.984 --     9 C    1.409    11 C    1.396    47 H    0.968
                            16 C    0.104
    11   6 C    3.988 --    10 C    1.396    15 C    1.391    12 C    1.005
                            17 C    0.100
    12   6 C    3.836 --    14 O    1.692    13 O    1.090    11 C    1.005
    13   8 O    2.098 --    12 C    1.090    48 H    0.838    14 O    0.129
    14   8 O    1.961 --    12 C    1.692    13 O    0.129
    15   6 C    3.987 --    16 C    1.448    11 C    1.391    49 H    0.970
                             9 C    0.103
    16   6 C    3.994 --    15 C    1.448    17 C    1.441    50 H    0.972
                            10 C    0.104
    17   6 C    3.987 --    16 C    1.441     9 C    1.388    51 H    0.973
                            11 C    0.100
    18   6 C    3.909 --     8 C    1.328    21 N    1.222    19 C    1.178
    19   6 C    3.954 --    20 C    1.644    18 C    1.178    52 H    0.973
    20   6 C    3.956 --    19 C    1.644    22 C    1.185    53 H    0.974
    21   7 N    3.248 --    22 C    1.257    18 C    1.222     1 Cu   0.501
    22   6 C    3.897 --    23 C    1.259    21 N    1.257    20 C    1.185
    23   6 C    3.940 --    24 C    1.261    22 C    1.259   125 C    1.186
    24   6 C    3.897 --    23 C    1.261    28 N    1.257    25 C    1.185
    25   6 C    3.956 --    26 C    1.644    24 C    1.185    54 H    0.974
    26   6 C    3.954 --    25 C    1.644    27 C    1.178    55 H    0.973
    27   6 C    3.909 --    29 C    1.328    28 N    1.222    26 C    1.178
    28   7 N    3.247 --    24 C    1.257    27 C    1.222     1 Cu   0.501
    29   6 C    3.934 --    27 C    1.328    39 C    1.319    30 C    1.025
    30   6 C    3.988 --    38 C    1.406    31 C    1.390    29 C    1.025
                            33 C    0.103
    31   6 C    3.987 --    32 C    1.439    30 C    1.390    56 H    0.973
                            34 C    0.100
    32   6 C    3.994 --    33 C    1.451    31 C    1.439    57 H    0.972
                            38 C    0.104
    33   6 C    3.986 --    32 C    1.451    34 C    1.388    58 H    0.969
                            30 C    0.103
    34   6 C    3.988 --    38 C    1.399    33 C    1.388    35 C    1.005
                            31 C    0.100
    35   6 C    3.836 --    37 O    1.692    36 O    1.089    34 C    1.005
    36   8 O    2.098 --    35 C    1.089    59 H    0.838    37 O    0.129
    37   8 O    1.961 --    35 C    1.692    36 O    0.129
    38   6 C    3.985 --    30 C    1.406    34 C    1.399    60 H    0.969
                            32 C    0.104
    39   6 C    3.914 --    29 C    1.319    43 N    1.240    40 C    1.171
    40   6 C    3.958 --    41 C    1.657    39 C    1.171    61 H    0.973
    41   6 C    3.955 --    40 C    1.657    42 C    1.170    62 H    0.975
    42   6 C    3.916 --     2 C    1.362    43 N    1.229    41 C    1.170
    43   7 N    3.244 --    39 C    1.240    42 C    1.229     1 Cu   0.505
    44   1 H    1.001 --     2 C    0.971
    45   1 H    0.997 --     4 C    0.975
    46   1 H    1.004 --     5 C    0.973
    47   1 H    1.007 --    10 C    0.968
    48   1 H    0.873 --    13 O    0.838
    49   1 H    1.005 --    15 C    0.970
    50   1 H    1.002 --    16 C    0.972
    51   1 H    1.004 --    17 C    0.973
    52   1 H    1.004 --    19 C    0.973
    53   1 H    1.002 --    20 C    0.974
    54   1 H    1.001 --    25 C    0.974
    55   1 H    1.004 --    26 C    0.973
    56   1 H    1.004 --    31 C    0.973
    57   1 H    1.002 --    32 C    0.972
    58   1 H    1.005 --    33 C    0.969
    59   1 H    0.873 --    36 O    0.838
    60   1 H    1.007 --    38 C    0.969
    61   1 H    1.004 --    40 C    0.973
    62   1 H    0.997 --    41 C    0.975
    63  29 Cu   2.202 --    69 N    0.509   105 N    0.508    90 N    0.505
                            83 N    0.505
    64   6 C    3.929 --    65 C    1.362   104 C    1.361   106 H    0.971
    65   6 C    3.916 --    64 C    1.362    69 N    1.228    66 C    1.169
    66   6 C    3.955 --    67 C    1.657    65 C    1.169   107 H    0.975
    67   6 C    3.958 --    66 C    1.657    68 C    1.171   108 H    0.973
    68   6 C    3.913 --    70 C    1.322    69 N    1.237    67 C    1.171
    69   7 N    3.245 --    68 C    1.237    65 C    1.228    63 Cu   0.509
    70   6 C    3.933 --    80 C    1.326    68 C    1.322    71 C    1.025
    71   6 C    3.988 --    72 C    1.409    79 C    1.389    70 C    1.025
                            77 C    0.103
    72   6 C    3.984 --    71 C    1.409    73 C    1.396   109 H    0.968
                            78 C    0.104
    73   6 C    3.988 --    72 C    1.396    77 C    1.391    74 C    1.005
                            79 C    0.100
    74   6 C    3.836 --    76 O    1.692    75 O    1.090    73 C    1.005
    75   8 O    2.098 --    74 C    1.090   110 H    0.838    76 O    0.129
    76   8 O    1.961 --    74 C    1.692    75 O    0.129
    77   6 C    3.987 --    78 C    1.448    73 C    1.391   111 H    0.971
                            71 C    0.103
    78   6 C    3.994 --    77 C    1.448    79 C    1.441   112 H    0.972
                            72 C    0.104
    79   6 C    3.987 --    78 C    1.441    71 C    1.389   113 H    0.973
                            73 C    0.100
    80   6 C    3.908 --    70 C    1.326    83 N    1.221    81 C    1.180
    81   6 C    3.953 --    82 C    1.641    80 C    1.180   114 H    0.973
    82   6 C    3.956 --    81 C    1.641    84 C    1.188   115 H    0.974
    83   7 N    3.248 --    84 C    1.256    80 C    1.221    63 Cu   0.505
    84   6 C    3.895 --    85 C    1.258    83 N    1.256    82 C    1.188
    85   6 C    3.939 --    84 C    1.258    86 C    1.257   140 C    1.192
    86   6 C    3.895 --    85 C    1.257    90 N    1.256    87 C    1.188
    87   6 C    3.956 --    88 C    1.641    86 C    1.188   116 H    0.974
    88   6 C    3.953 --    87 C    1.641    89 C    1.180   117 H    0.973
    89   6 C    3.908 --    91 C    1.326    90 N    1.221    88 C    1.180
    90   7 N    3.249 --    86 C    1.256    89 C    1.221    63 Cu   0.505
    91   6 C    3.933 --    89 C    1.326   101 C    1.322    92 C    1.025
    92   6 C    3.988 --   100 C    1.407    93 C    1.389    91 C    1.025
                            95 C    0.103
    93   6 C    3.987 --    94 C    1.440    92 C    1.389   118 H    0.973
                            96 C    0.100
    94   6 C    3.994 --    95 C    1.450    93 C    1.440   119 H    0.972
                           100 C    0.104
    95   6 C    3.986 --    94 C    1.450    96 C    1.388   120 H    0.969
                            92 C    0.103
    96   6 C    3.988 --   100 C    1.399    95 C    1.388    97 C    1.005
                            93 C    0.100
    97   6 C    3.836 --    99 O    1.692    98 O    1.089    96 C    1.005
    98   8 O    2.098 --    97 C    1.089   121 H    0.838    99 O    0.129
    99   8 O    1.961 --    97 C    1.692    98 O    0.129
   100   6 C    3.985 --    92 C    1.407    96 C    1.399   122 H    0.969
                            94 C    0.104
   101   6 C    3.914 --    91 C    1.322   105 N    1.237   102 C    1.172
   102   6 C    3.958 --   103 C    1.656   101 C    1.172   123 H    0.973
   103   6 C    3.955 --   102 C    1.656   104 C    1.170   124 H    0.975
   104   6 C    3.916 --    64 C    1.361   105 N    1.229   103 C    1.170
   105   7 N    3.244 --   101 C    1.237   104 C    1.229    63 Cu   0.508
   106   1 H    1.001 --    64 C    0.971
   107   1 H    0.997 --    66 C    0.975
   108   1 H    1.004 --    67 C    0.973
   109   1 H    1.007 --    72 C    0.968
   110   1 H    0.873 --    75 O    0.838
   111   1 H    1.005 --    77 C    0.971
   112   1 H    1.002 --    78 C    0.972
   113   1 H    1.004 --    79 C    0.973
   114   1 H    1.004 --    81 C    0.973
   115   1 H    1.002 --    82 C    0.974
   116   1 H    1.002 --    87 C    0.974
   117   1 H    1.004 --    88 C    0.973
   118   1 H    1.004 --    93 C    0.973
   119   1 H    1.002 --    94 C    0.972
   120   1 H    1.005 --    95 C    0.969
   121   1 H    0.873 --    98 O    0.838
   122   1 H    1.007 --   100 C    0.969
   123   1 H    1.004 --   102 C    0.973
   124   1 H    0.997 --   103 C    0.975
   125   6 C    3.886 --   126 C    2.451    23 C    1.186   128 C    0.190
   126   6 C    3.936 --   125 C    2.451   127 C    1.334
   127   6 C    3.915 --   128 C    2.361   126 C    1.334   130 C    0.188
   128   6 C    3.927 --   127 C    2.361   129 C    1.345   125 C    0.190
   129   6 C    3.959 --   130 C    2.408   128 C    1.345   132 C    0.105
   130   6 C    3.892 --   129 C    2.408   131 C    1.246   127 C    0.188
   131   6 C    3.942 --   132 C    1.472   130 C    1.246   142 C    1.079
   132   6 C    3.022 --   131 C    1.472   182 C    0.793   142 C    0.421
                           129 C    0.105
   133   6 C    3.876 --   134 C    2.427   163 C    1.201   136 C    0.185
   134   6 C    3.927 --   133 C    2.427   135 C    1.351
   135   6 C    3.892 --   136 C    2.327   134 C    1.351   138 C    0.181
   136   6 C    3.921 --   135 C    2.327   137 C    1.374   133 C    0.185
   137   6 C    3.925 --   138 C    2.331   136 C    1.374   140 C    0.186
   138   6 C    3.890 --   137 C    2.331   139 C    1.347   135 C    0.181
   139   6 C    3.935 --   140 C    2.437   138 C    1.347
   140   6 C    3.875 --   139 C    2.437    85 C    1.192   137 C    0.186
   141  29 Cu   2.155 --   183 N    0.493   168 N    0.491   147 N    0.488
                           161 N    0.478
   142   6 C    3.837 --   143 C    1.202   131 C    1.079   182 C    0.939
                           132 C    0.421
   143   6 C    3.900 --   147 N    1.291   144 C    1.220   142 C    1.202
   144   6 C    3.958 --   145 C    1.596   143 C    1.220   184 H    0.975
   145   6 C    3.948 --   144 C    1.596   146 C    1.211   185 H    0.973
   146   6 C    3.921 --   148 C    1.311   145 C    1.211   147 N    1.204
   147   7 N    3.256 --   143 C    1.291   146 C    1.204   141 Cu   0.488
   148   6 C    3.920 --   158 C    1.332   146 C    1.311   149 C    1.029
   149   6 C    3.988 --   150 C    1.407   157 C    1.386   148 C    1.029
                           155 C    0.102
   150   6 C    3.984 --   149 C    1.407   151 C    1.397   186 H    0.968
                           156 C    0.104
   151   6 C    3.988 --   150 C    1.397   155 C    1.391   152 C    1.005
   152   6 C    3.836 --   154 O    1.693   153 O    1.090   151 C    1.005
   153   8 O    2.098 --   152 C    1.090   187 H    0.838   154 O    0.129
   154   8 O    1.962 --   152 C    1.693   153 O    0.129
   155   6 C    3.986 --   156 C    1.448   151 C    1.391   188 H    0.970
                           149 C    0.102
   156   6 C    3.994 --   155 C    1.448   157 C    1.441   189 H    0.972
                           150 C    0.104
   157   6 C    3.987 --   156 C    1.441   149 C    1.386   190 H    0.972
   158   6 C    3.915 --   148 C    1.332   161 N    1.206   159 C    1.189
   159   6 C    3.956 --   160 C    1.628   158 C    1.189   191 H    0.973
   160   6 C    3.949 --   159 C    1.628   162 C    1.197   192 H    0.974
   161   7 N    3.236 --   162 C    1.292   158 C    1.206   141 Cu   0.478
   162   6 C    3.894 --   161 N    1.292   163 C    1.217   160 C    1.197
   163   6 C    3.919 --   164 C    1.279   162 C    1.217   133 C    1.201
   164   6 C    3.896 --   163 C    1.279   168 N    1.254   165 C    1.168
   165   6 C    3.960 --   166 C    1.664   164 C    1.168   193 H    0.974
   166   6 C    3.953 --   165 C    1.664   167 C    1.160   194 H    0.973
   167   6 C    3.912 --   169 C    1.346   168 N    1.228   166 C    1.160
   168   7 N    3.219 --   164 C    1.254   167 C    1.228   141 Cu   0.491
   169   6 C    3.906 --   167 C    1.346   179 C    1.259   170 C    1.047
   170   6 C    3.988 --   178 C    1.396   171 C    1.379   169 C    1.047
   171   6 C    3.979 --   172 C    1.444   170 C    1.379   195 H    0.972
   172   6 C    3.994 --   173 C    1.447   171 C    1.444   196 H    0.972
                           178 C    0.102
   173   6 C    3.979 --   172 C    1.447   174 C    1.385   197 H    0.969
   174   6 C    3.988 --   178 C    1.403   173 C    1.385   175 C    1.005
   175   6 C    3.836 --   177 O    1.692   176 O    1.090   174 C    1.005
   176   8 O    2.099 --   175 C    1.090   198 H    0.838   177 O    0.129
   177   8 O    1.961 --   175 C    1.692   176 O    0.129
   178   6 C    3.979 --   174 C    1.403   170 C    1.396   199 H    0.969
                           172 C    0.102
   179   6 C    3.929 --   183 N    1.354   169 C    1.259   180 C    1.135
   180   6 C    3.974 --   181 C    1.747   179 C    1.135   200 H    0.971
   181   6 C    3.961 --   180 C    1.747   182 C    1.030   201 H    0.973
   182   6 C    3.939 --   183 N    1.054   181 C    1.030   142 C    0.939
                           132 C    0.793
   183   7 N    3.199 --   179 C    1.354   182 C    1.054   141 Cu   0.493
   184   1 H    1.000 --   144 C    0.975
   185   1 H    1.003 --   145 C    0.973
   186   1 H    1.007 --   150 C    0.968
   187   1 H    0.873 --   153 O    0.838
   188   1 H    1.005 --   155 C    0.970
   189   1 H    1.002 --   156 C    0.972
   190   1 H    1.005 --   157 C    0.972
   191   1 H    1.004 --   159 C    0.973
   192   1 H    1.002 --   160 C    0.974
   193   1 H    1.002 --   165 C    0.974
   194   1 H    1.003 --   166 C    0.973
   195   1 H    1.005 --   171 C    0.972
   196   1 H    1.002 --   172 C    0.972
   197   1 H    1.005 --   173 C    0.969
   198   1 H    0.873 --   176 O    0.838
   199   1 H    1.009 --   178 C    0.969
   200   1 H    1.003 --   180 C    0.971
   201   1 H    1.002 --   181 C    0.973
 ---------------------------------------------------------------------------

           -------------------------------------------------
          | TOTAL ENERGY             -387.462599327895 Eh   |
          | GRADIENT NORM               0.000861132170 Eh/α |
          | HOMO-LUMO GAP               0.004846795738 eV   |
           -------------------------------------------------

 * finished run on 2022/07/30 at 08:05:15.061
