   * xtb version 6.5.1 (b24c23e) compiled by 'conda@728c89f4b128' on 2022-07-12
          program call               : xtb Ni_Py_C2_3.xyz --gfn 1 --opt -T 48

   ID    Z sym.   atoms
    1   28 Ni     1, 55, 113
    2    6 C      2-6, 8-11, 13-17, 19-24, 26-29, 31-36, 56-60, 62-65, 67-71,
                  73-78, 80-83, 85-90, 109-112, 114-118, 120-123, 125-129,
                  131-136, 138-141, 143-148
    3    7 N      7, 12, 18, 25, 30, 37, 61, 66, 72, 79, 84, 91, 119, 124,
                  130, 137, 142, 149
    4    1 H      38-54, 92-108, 150-165

          :  Hamiltonian                  GFN1-xTB          :
 * total energy  :  -294.8646861 Eh     change       -0.5536549E-09 Eh
 * total energy  :  -295.0236230 Eh     change       -0.1589368E+00 Eh
 * total energy  :  -295.1336337 Eh     change       -0.1100108E+00 Eh
 * total energy  :  -295.1989300 Eh     change       -0.6529627E-01 Eh
 * total energy  :  -295.2361025 Eh     change       -0.3717250E-01 Eh
 * total energy  :  -295.2580525 Eh     change       -0.2195004E-01 Eh
 * total energy  :  -295.2764211 Eh     change       -0.1836851E-01 Eh
 * total energy  :  -295.2911372 Eh     change       -0.1471617E-01 Eh
 * total energy  :  -295.3037238 Eh     change       -0.1258658E-01 Eh
 * total energy  :  -295.3143510 Eh     change       -0.1062720E-01 Eh
 * total energy  :  -295.3829762 Eh     change       -0.7757694E-04 Eh
 * total energy  :  -295.3830411 Eh     change       -0.6486173E-04 Eh
 * total energy  :  -295.3831104 Eh     change       -0.6935785E-04 Eh
 * total energy  :  -295.3831608 Eh     change       -0.5035025E-04 Eh
 * total energy  :  -295.3832071 Eh     change       -0.4635903E-04 Eh
 * total energy  :  -295.3831765 Eh     change        0.3066942E-04 Eh
 * total energy  :  -295.3832156 Eh     change       -0.3909529E-04 Eh
 * total energy  :  -295.3832292 Eh     change       -0.1362832E-04 Eh
 * total energy  :  -295.3832337 Eh     change       -0.4524914E-05 Eh
   *** GEOMETRY OPTIMIZATION CONVERGED AFTER 44 ITERATIONS ***

 final structure:
================
165
 xtb: 6.5.1 (b24c23e)
Ni          27.31629830745024       -0.03027946225534       -0.01544703684438
C           23.92432704267014       -0.05862027494964       -0.04327458366044
C           24.58202768345255       -1.27094097625570       -0.03266694505291
C           23.90907838834450       -2.53410484884294       -0.02423408373732
C           24.86603607414786       -3.48291255123969        0.09885280225352
C           26.12482954856129       -2.79848056851945        0.15798507406919
N           25.94088521144218       -1.44205739481691        0.05691804666656
C           27.33835663228181       -3.43054970356153        0.39416881710298
C           27.34946974669076       -4.90315204144353        0.56493050650894
C           27.69975810086386       -5.48990747446758        1.77981273910760
C           27.69525389824472       -6.87190728754021        1.88767884456859
N           27.37391186469397       -7.67608670315835        0.87948050628476
C           27.04004428591007       -7.12403725723178       -0.28249054160142
C           27.01088957242499       -5.75334191539149       -0.48664007009458
C           28.54240895917193       -2.74374015293216        0.47302366952387
C           29.80638314727936       -3.37864854804466        0.69503162435138
C           30.75260206654915       -2.41614485346154        0.58449005132022
N           28.71404858627142       -1.39747105309258        0.24362800839613
C           30.06734909189576       -1.19823422495016        0.28753732605258
C           30.72623022635066       -0.00610280205419       -0.01840552100443
C           30.04875196423867        1.17723168341981       -0.31679163199402
C           30.71230507488475        2.39937496356393       -0.64365538581131
C           29.75197447086649        3.34934853599362       -0.74332256541660
C           28.50344512875517        2.70507736221402       -0.46815517139214
N           28.69423082632404        1.36064915739643       -0.24593555919278
C           27.28845722196903        3.37416971977420       -0.39888867297886
C           27.28238639384908        4.84721327637626       -0.55403777498444
C           26.60260710336467        5.46339489467262       -1.60388918760898
C           26.63181827493845        6.84519331996436       -1.70867178199787
N           27.27814001436821        7.62347082430157       -0.84668779919276
C           27.92604694608684        7.04413234675341        0.15893028779474
C           27.95951824802474        5.67102824147255        0.34440722921126
C           26.08132932960989        2.71830253326704       -0.19619037104462
C           24.81509272798957        3.38343081384469       -0.09460645732135
C           23.87117851225923        2.41745215963514       -0.00685058299647
C           24.56195213397698        1.16443461891426       -0.03870346938773
N           25.91824914442660        1.35765848372855       -0.11999132819352
H           22.84062563041513       -0.06768089875169       -0.04737039044171
H           22.83981221476592       -2.65693991093815       -0.09089770419790
H           24.74304816019288       -4.55187782218938        0.16157803590017
H           27.95875570279777       -4.87283156554859        2.63191112183738
H           27.96174408901321       -7.35299064172708        2.82426291237375
H           26.78383596906276       -7.80722963147028       -1.08700173657536
H           26.74286635771199       -5.34732872869108       -1.45475399715452
H           29.94364487361608       -4.42927158266618        0.89165232265337
H           31.82251067632335       -2.51138968915947        0.67560118567320
H           31.77750360961429        2.50339116787347       -0.77268596168773
H           29.86779958646452        4.39322884666541       -0.98482831711734
H           26.07239494964196        4.86784975381610       -2.33746665040673
H           26.11480518367103        7.34778063682713       -2.52092266356715
H           28.44253310349248        7.70661632524647        0.84740316476940
H           28.49262825309588        5.24283413712073        1.18492180601829
H           24.67993220167171        4.45275931992650       -0.09036451714418
H           22.80108616546664        2.52312619575852        0.07444179532768
Ni          49.05062858739920        0.05048827663869       -0.00185444558058
C           52.44569054849831        0.05790238178597       -0.05285806777091
C           51.79098937625434        1.22374285759210       -0.39054627964079
C           52.46888359249441        2.43216141510361       -0.74911074909468
C           51.51469312404679        3.37631288326563       -0.91931893031858
C           50.25303212211227        2.74087327243700       -0.67295525359621
N           50.43231695788889        1.41586195073237       -0.36280905892497
C           49.03874738809376        3.41359066983519       -0.66295301300702
C           49.03256612595414        4.86952802419498       -0.94330330845813
C           48.66902400460292        5.79326417546808        0.03517516565955
C           48.68110104280776        7.14431604369312       -0.27470093796613
N           49.02096709416042        7.60958857001865       -1.47238678131790
C           49.36684974714632        6.73475889082639       -2.41118933829284
C           49.39063390985569        5.36566645357736       -2.19576669654522
C           47.82964891890433        2.78268716418907       -0.40423927386426
C           46.56672157865695        3.45672082658006       -0.41488548560864
C           45.61703706715804        2.50997753882282       -0.22670586782008
N           47.65385292290254        1.43271327452430       -0.19995670001283
C           46.29907931248666        1.26030329937082       -0.11090087850088
C           45.63593010190247        0.03872630330008        0.02043242750532
C           46.31002960635382       -1.17651990636161        0.15401111579591
C           45.64082797566633       -2.43463920141465        0.25097850851226
C           46.59961470209502       -3.37334860477887        0.43408163406856
C           47.85381552413076       -2.68363482398651        0.45422605717713
N           47.66619161363842       -1.33582223775709        0.24799927272437
C           49.07278038199335       -3.31040059426556        0.67587524889055
C           49.08060145765427       -4.76544428237393        0.95412307427457
C           49.71915410880312       -5.66003475634581        0.09610601858245
C           49.69304776068137       -7.01411553210771        0.39063377880280
N           49.08755847272400       -7.50988737158713        1.46493983536929
C           48.47998629193987       -6.66343629884191        2.29010502365332
C           48.44702536101741       -5.29403417282615        2.07798095491166
C           50.28436566112578       -2.63346473819572        0.63463641339648
C           51.55241394386129       -3.24883646632677        0.89797667230466
C           52.49765293330380       -2.30374928461929        0.68652567690183
C           51.80610050423449       -1.10982843959288        0.30643121077469
N           50.44845963215801       -1.31121890770591        0.30565952553251
H           53.52937131559724        0.06149124713731       -0.06460249787379
H           53.53903400838612        2.52782519966418       -0.84120347344821
H           51.64086822198392        4.41576315386152       -1.17492061636128
H           48.39369401810642        5.45939430143001        1.02849678788613
H           48.40377678797068        7.88383502602519        0.47093640892323
H           49.63843063893650        7.14578234547054       -3.37914039686464
H           49.67008993103349        4.68833260364797       -2.99390262119028
H           46.43323143282283        4.51597867344298       -0.56127951866540
H           44.54745367567434        2.63213772200171       -0.17400309629346
H           44.57380692395875       -2.56901009723157        0.17978558298940
H           46.47897017621475       -4.43909563760602        0.53848286368229
H           50.21498708909375       -5.30153893772999       -0.79811065548573
H           50.17795732835031       -7.73083755408177       -0.26574641018776
H           47.99634899128723       -7.09876984118848        3.15970768285470
H           47.94767388853836       -4.64057920758347        2.78338464825244
H           51.68728588157676       -4.27206960193405        1.20869310270379
H           53.56908473166058       -2.38677621915446        0.77599780905283
C           32.13677620740364        0.00332415196136       -0.02304582230228
C           33.35205273668208        0.01217925190211       -0.02400979256853
C           43.00975238354904        0.02239054571084        0.00251300113096
C           44.22541161939806        0.03123363237014        0.01379864634789
Ni          38.18064928262125        0.00212130888479       -0.02983028049500
C           34.76235183566884        0.01041759622665       -0.02710617932408
C           35.43093433386039       -0.79730462885602        0.89436741348129
C           34.75709796926942       -1.58750774423205        1.87492618872516
C           35.71104963111602       -2.29153812247428        2.53006557015330
C           36.96517091825453       -1.93390761671315        1.94051991266751
N           36.78471071392062       -0.98642472250028        0.95905193009089
C           38.17735750583682       -2.50844391652180        2.29769135304607
C           38.17682224411091       -3.58730764852048        3.31307714377769
C           37.51027586515394       -4.79154274264909        3.09109281007930
C           37.53884220527249       -5.76978127702197        4.07259648309003
N           38.17158436335333       -5.61510640246137        5.23111234962228
C           38.80728468248094       -4.46890992108473        5.45152882347721
C           38.84102807743523       -3.43470419995603        4.52945714636617
C           39.39014931883565       -2.11277628528668        1.75026594423438
C           40.64353972123182       -2.72461863194514        2.07043431675056
C           41.59974838991215       -2.01618109922600        1.42349787220076
N           39.57371738887369       -1.06417379921124        0.87806776959528
C           40.92845299772178       -0.98286239294962        0.70148860298206
C           41.59973382571423        0.01385893842280       -0.01003319207055
C           40.92981624961109        0.99863345682517       -0.73905140931981
C           41.60291739755997        2.02399190075777       -1.47094806849973
C           40.65019173169209        2.71226142450622       -2.14416506209939
C           39.39683693436924        2.09956689800650       -1.82557731562209
N           39.57689004793757        1.06629908241166       -0.93479316214436
C           38.18625224686764        2.48922962209584       -2.38175749746299
C           38.19208171784440        3.55573924604274       -3.41067761545000
C           38.83972876202129        3.37701669426409       -4.63222364576539
C           38.81450280546738        4.40142888192820       -5.56554340697240
N           38.20360961922420        5.56201544149681       -5.35046505844809
C           37.58733119730321        5.74157586104711       -4.18670047459028
C           37.55082163089169        4.77451871695999       -3.19440407605886
C           36.97123009922218        1.92754542890569       -2.01490064750787
C           35.71720121250423        2.29280945506527       -2.59998959930127
C           34.76028573014106        1.60398698587005       -1.93311467824092
C           35.43240815144947        0.81293700199325       -0.95195198487525
N           36.78732844271988        0.99056261964680       -1.02396701080709
H           33.69082241704794       -1.59024384302757        2.03324802764712
H           35.58713444250144       -2.98731144713562        3.34361815345348
H           36.98957917027803       -4.96515945789036        2.15693441723651
H           37.03100052518592       -6.71782353276471        3.92149494706269
H           39.31248410508645       -4.37190957715400        6.40804427881390
H           39.36319498418887       -2.51284749591332        4.75633078107632
H           40.76568563826194       -3.58579440228573        2.70667873253304
H           42.66700474180053       -2.16640854436028        1.42975725275437
H           42.66915470658842        2.18136366886345       -1.46713818671155
H           40.77400214061363        3.56089336632224       -2.79674752551257
H           39.34310718249009        2.44348885280373       -4.85374894613781
H           39.30646872665878        4.28437583513444       -6.52669727495550
H           37.10037198334590        6.70119707863330       -4.03999437711431
H           37.04389241637355        4.96768304215217       -2.25652156485926
H           35.59568646270569        2.98430332898787       -3.41756806413326
H           33.69300998883241        1.61656655353898       -2.08418051553448

          :  Hamiltonian                  GFN1-xTB          :
         :: total energy            -295.383233718383 Eh    ::
         :: gradient norm              0.000713846632 Eh/a0 ::
         :: HOMO-LUMO gap              1.088650596774 eV    ::
         :: SCC energy              -299.893610801444 Eh    ::
         :: repulsion energy           4.667845413607 Eh    ::

    * Orbital Energies and Occupations

         #    Occupation            Energy/Eh            Energy/eV
      -------------------------------------------------------------
         1        2.0000           -0.7887251             -21.4623
       ...           ...                  ...                  ...
       261        2.0000           -0.4050432             -11.0218
       262        2.0000           -0.4047180             -11.0129
       263        2.0000           -0.4046573             -11.0113
       264        2.0000           -0.4040521             -10.9948
       265        2.0000           -0.4039891             -10.9931
       266        2.0000           -0.4039557             -10.9922
       267        2.0000           -0.4038788             -10.9901
       268        2.0000           -0.4029174             -10.9639
       269        2.0000           -0.4028387             -10.9618
       270        2.0000           -0.4028345             -10.9617
       271        2.0000           -0.4027635             -10.9598
       272        2.0000           -0.3981842             -10.8351
       273        2.0000           -0.3893429             -10.5946 (HOMO)
       274                         -0.3493357              -9.5059 (LUMO)
       275                         -0.3389457              -9.2232
       276                         -0.3378473              -9.1933
       277                         -0.3371369              -9.1740
       278                         -0.3369840              -9.1698
       279                         -0.3366660              -9.1611
       280                         -0.3352611              -9.1229
       281                         -0.3348319              -9.1112
       282                         -0.3294477              -8.9647
       283                         -0.3081856              -8.3862
       284                         -0.3013301              -8.1996
       ...                                ...                  ...
       575                          1.3385196              36.4230
      -------------------------------------------------------------
                  HL-Gap            0.0400072 Eh            1.0887 eV

Wiberg/Mayer (AO) data.
largest (>0.10) Wiberg bond orders for each atom

     #   Z sym  total        # sym  WBO       # sym  WBO       # sym  WBO
 ---------------------------------------------------------------------------
     1  28 Ni   3.017 --     7 N    0.665    37 N    0.665    18 N    0.662
                            25 N    0.662
     2   6 C    3.936 --     3 C    1.364    36 C    1.364    38 H    0.970
     3   6 C    3.923 --     2 C    1.364     7 N    1.213     4 C    1.174
     4   6 C    3.960 --     5 C    1.651     3 C    1.174    39 H    0.975
     5   6 C    3.963 --     4 C    1.651     6 C    1.175    40 H    0.972
     6   6 C    3.920 --     8 C    1.325     7 N    1.221     5 C    1.175
     7   7 N    3.403 --     6 C    1.221     3 C    1.213     1 Ni   0.665
     8   6 C    3.940 --    15 C    1.328     6 C    1.325     9 C    1.023
     9   6 C    3.986 --    10 C    1.395    14 C    1.394     8 C    1.023
                            12 N    0.107
    10   6 C    3.988 --    11 C    1.441     9 C    1.395    41 H    0.973
                            13 C    0.109
    11   6 C    3.972 --    10 C    1.441    12 N    1.416    42 H    0.972
                            14 C    0.109
    12   7 N    3.031 --    11 C    1.416    13 C    1.416     9 C    0.107
    13   6 C    3.972 --    14 C    1.441    12 N    1.416    43 H    0.972
                            10 C    0.109
    14   6 C    3.988 --    13 C    1.441     9 C    1.394    44 H    0.973
                            11 C    0.109
    15   6 C    3.916 --     8 C    1.328    18 N    1.208    16 C    1.183
    16   6 C    3.960 --    17 C    1.638    15 C    1.183    45 H    0.972
    17   6 C    3.962 --    16 C    1.638    19 C    1.189    46 H    0.971
    18   7 N    3.407 --    19 C    1.235    15 C    1.208     1 Ni   0.662
    19   6 C    3.911 --    20 C    1.272    18 N    1.235    17 C    1.189
    20   6 C    3.945 --    21 C    1.273    19 C    1.272   109 C    1.162
    21   6 C    3.911 --    20 C    1.273    25 N    1.234    22 C    1.190
    22   6 C    3.962 --    23 C    1.637    21 C    1.190    47 H    0.972
    23   6 C    3.960 --    22 C    1.637    24 C    1.183    48 H    0.973
    24   6 C    3.916 --    26 C    1.326    25 N    1.209    23 C    1.183
    25   7 N    3.407 --    21 C    1.234    24 C    1.209     1 Ni   0.662
    26   6 C    3.940 --    24 C    1.326    33 C    1.323    27 C    1.028
    27   6 C    3.986 --    28 C    1.393    32 C    1.393    26 C    1.028
                            30 N    0.107
    28   6 C    3.987 --    29 C    1.442    27 C    1.393    49 H    0.973
                            31 C    0.109
    29   6 C    3.972 --    28 C    1.442    30 N    1.416    50 H    0.972
                            32 C    0.109
    30   7 N    3.030 --    29 C    1.416    31 C    1.416    27 C    0.107
    31   6 C    3.972 --    32 C    1.442    30 N    1.416    51 H    0.972
                            28 C    0.109
    32   6 C    3.987 --    31 C    1.442    27 C    1.393    52 H    0.973
                            29 C    0.109
    33   6 C    3.921 --    26 C    1.323    37 N    1.221    34 C    1.176
    34   6 C    3.963 --    35 C    1.650    33 C    1.176    53 H    0.973
    35   6 C    3.960 --    34 C    1.650    36 C    1.174    54 H    0.975
    36   6 C    3.923 --     2 C    1.364    37 N    1.213    35 C    1.174
    37   7 N    3.403 --    33 C    1.221    36 C    1.213     1 Ni   0.665
    38   1 H    1.000 --     2 C    0.970
    39   1 H    0.997 --     4 C    0.975
    40   1 H    1.004 --     5 C    0.972
    41   1 H    1.003 --    10 C    0.973
    42   1 H    1.013 --    11 C    0.972
    43   1 H    1.013 --    13 C    0.972
    44   1 H    1.003 --    14 C    0.973
    45   1 H    1.004 --    16 C    0.972
    46   1 H    1.004 --    17 C    0.971
    47   1 H    1.004 --    22 C    0.972
    48   1 H    1.004 --    23 C    0.973
    49   1 H    1.004 --    28 C    0.973
    50   1 H    1.013 --    29 C    0.972
    51   1 H    1.013 --    31 C    0.972
    52   1 H    1.004 --    32 C    0.973
    53   1 H    1.004 --    34 C    0.973
    54   1 H    0.997 --    35 C    0.975
    55  28 Ni   3.011 --    61 N    0.664    91 N    0.664    72 N    0.662
                            79 N    0.661
    56   6 C    3.936 --    57 C    1.364    90 C    1.364    92 H    0.970
    57   6 C    3.923 --    56 C    1.364    61 N    1.214    58 C    1.174
    58   6 C    3.960 --    59 C    1.651    57 C    1.174    93 H    0.975
    59   6 C    3.963 --    58 C    1.651    60 C    1.176    94 H    0.972
    60   6 C    3.920 --    62 C    1.325    61 N    1.221    59 C    1.176
    61   7 N    3.403 --    60 C    1.221    57 C    1.214    55 Ni   0.664
    62   6 C    3.939 --    69 C    1.328    60 C    1.325    63 C    1.022
    63   6 C    3.986 --    64 C    1.395    68 C    1.395    62 C    1.022
                            66 N    0.107
    64   6 C    3.988 --    65 C    1.441    63 C    1.395    95 H    0.973
                            67 C    0.109
    65   6 C    3.972 --    64 C    1.441    66 N    1.416    96 H    0.972
                            68 C    0.109
    66   7 N    3.031 --    67 C    1.416    65 C    1.416    63 C    0.107
    67   6 C    3.972 --    68 C    1.441    66 N    1.416    97 H    0.972
                            64 C    0.109
    68   6 C    3.988 --    67 C    1.441    63 C    1.395    98 H    0.973
                            65 C    0.109
    69   6 C    3.916 --    62 C    1.328    72 N    1.207    70 C    1.183
    70   6 C    3.959 --    71 C    1.637    69 C    1.183    99 H    0.972
    71   6 C    3.962 --    70 C    1.637    73 C    1.190   100 H    0.970
    72   7 N    3.407 --    73 C    1.236    69 C    1.207    55 Ni   0.662
    73   6 C    3.910 --    74 C    1.271    72 N    1.236    71 C    1.190
    74   6 C    3.944 --    75 C    1.271    73 C    1.271   112 C    1.165
    75   6 C    3.910 --    74 C    1.271    79 N    1.236    76 C    1.190
    76   6 C    3.962 --    77 C    1.636    75 C    1.190   101 H    0.970
    77   6 C    3.960 --    76 C    1.636    78 C    1.183   102 H    0.972
    78   6 C    3.916 --    80 C    1.326    79 N    1.208    77 C    1.183
    79   7 N    3.406 --    75 C    1.236    78 C    1.208    55 Ni   0.661
    80   6 C    3.940 --    78 C    1.326    87 C    1.323    81 C    1.027
    81   6 C    3.986 --    86 C    1.393    82 C    1.393    80 C    1.027
                            84 N    0.107
    82   6 C    3.987 --    83 C    1.442    81 C    1.393   103 H    0.973
                            85 C    0.109
    83   6 C    3.972 --    82 C    1.442    84 N    1.416   104 H    0.972
                            86 C    0.109
    84   7 N    3.030 --    85 C    1.416    83 C    1.416    81 C    0.107
    85   6 C    3.972 --    86 C    1.442    84 N    1.416   105 H    0.972
                            82 C    0.109
    86   6 C    3.987 --    85 C    1.442    81 C    1.393   106 H    0.973
                            83 C    0.109
    87   6 C    3.921 --    80 C    1.323    91 N    1.221    88 C    1.176
    88   6 C    3.963 --    89 C    1.650    87 C    1.176   107 H    0.973
    89   6 C    3.960 --    88 C    1.650    90 C    1.174   108 H    0.975
    90   6 C    3.923 --    56 C    1.364    91 N    1.213    89 C    1.174
    91   7 N    3.403 --    87 C    1.221    90 C    1.213    55 Ni   0.664
    92   1 H    1.000 --    56 C    0.970
    93   1 H    0.997 --    58 C    0.975
    94   1 H    1.004 --    59 C    0.972
    95   1 H    1.003 --    64 C    0.973
    96   1 H    1.013 --    65 C    0.972
    97   1 H    1.013 --    67 C    0.972
    98   1 H    1.003 --    68 C    0.973
    99   1 H    1.004 --    70 C    0.972
   100   1 H    1.004 --    71 C    0.970
   101   1 H    1.004 --    76 C    0.970
   102   1 H    1.004 --    77 C    0.972
   103   1 H    1.004 --    82 C    0.973
   104   1 H    1.013 --    83 C    0.972
   105   1 H    1.013 --    85 C    0.972
   106   1 H    1.004 --    86 C    0.973
   107   1 H    1.004 --    88 C    0.973
   108   1 H    0.997 --    89 C    0.975
   109   6 C    3.933 --   110 C    2.591    20 C    1.162
   110   6 C    3.936 --   109 C    2.591   114 C    1.163
   111   6 C    3.936 --   112 C    2.590   132 C    1.166
   112   6 C    3.934 --   111 C    2.590    74 C    1.165
   113  28 Ni   3.001 --   137 N    0.661   130 N    0.661   119 N    0.660
                           149 N    0.660
   114   6 C    3.935 --   148 C    1.271   115 C    1.271   110 C    1.163
   115   6 C    3.911 --   114 C    1.271   119 N    1.236   116 C    1.191
   116   6 C    3.960 --   117 C    1.635   115 C    1.191   150 H    0.972
   117   6 C    3.960 --   116 C    1.635   118 C    1.185   151 H    0.973
   118   6 C    3.915 --   120 C    1.325   119 N    1.208   117 C    1.185
   119   7 N    3.400 --   115 C    1.236   118 C    1.208   113 Ni   0.660
   120   6 C    3.935 --   127 C    1.325   118 C    1.325   121 C    1.027
   121   6 C    3.986 --   122 C    1.393   126 C    1.393   120 C    1.027
                           124 N    0.107
   122   6 C    3.987 --   123 C    1.441   121 C    1.393   152 H    0.973
                           125 C    0.109
   123   6 C    3.972 --   122 C    1.441   124 N    1.416   153 H    0.972
                           126 C    0.109
   124   7 N    3.030 --   123 C    1.416   125 C    1.416   121 C    0.107
   125   6 C    3.972 --   126 C    1.442   124 N    1.416   154 H    0.972
                           122 C    0.109
   126   6 C    3.987 --   125 C    1.442   121 C    1.393   155 H    0.973
                           123 C    0.109
   127   6 C    3.915 --   120 C    1.325   130 N    1.207   128 C    1.185
   128   6 C    3.960 --   129 C    1.635   127 C    1.185   156 H    0.973
   129   6 C    3.960 --   128 C    1.635   131 C    1.191   157 H    0.970
   130   7 N    3.401 --   131 C    1.236   127 C    1.207   113 Ni   0.661
   131   6 C    3.910 --   132 C    1.269   130 N    1.236   129 C    1.191
   132   6 C    3.936 --   133 C    1.270   131 C    1.269   111 C    1.166
   133   6 C    3.910 --   132 C    1.270   137 N    1.236   134 C    1.191
   134   6 C    3.960 --   135 C    1.635   133 C    1.191   158 H    0.970
   135   6 C    3.960 --   134 C    1.635   136 C    1.185   159 H    0.973
   136   6 C    3.914 --   138 C    1.325   137 N    1.207   135 C    1.185
   137   7 N    3.401 --   133 C    1.236   136 C    1.207   113 Ni   0.661
   138   6 C    3.935 --   145 C    1.326   136 C    1.325   139 C    1.025
   139   6 C    3.986 --   144 C    1.394   140 C    1.394   138 C    1.025
                           142 N    0.107
   140   6 C    3.987 --   141 C    1.441   139 C    1.394   160 H    0.973
                           143 C    0.109
   141   6 C    3.972 --   140 C    1.441   142 N    1.416   161 H    0.972
                           144 C    0.109
   142   7 N    3.031 --   143 C    1.416   141 C    1.416   139 C    0.107
   143   6 C    3.972 --   144 C    1.441   142 N    1.416   162 H    0.972
                           140 C    0.109
   144   6 C    3.988 --   143 C    1.441   139 C    1.394   163 H    0.973
                           141 C    0.109
   145   6 C    3.915 --   138 C    1.326   149 N    1.207   146 C    1.184
   146   6 C    3.960 --   147 C    1.635   145 C    1.184   164 H    0.973
   147   6 C    3.960 --   146 C    1.635   148 C    1.191   165 H    0.971
   148   6 C    3.911 --   114 C    1.271   149 N    1.236   147 C    1.191
   149   7 N    3.400 --   148 C    1.236   145 C    1.207   113 Ni   0.660
   150   1 H    1.003 --   116 C    0.972
   151   1 H    1.004 --   117 C    0.973
   152   1 H    1.004 --   122 C    0.973
   153   1 H    1.013 --   123 C    0.972
   154   1 H    1.013 --   125 C    0.972
   155   1 H    1.004 --   126 C    0.973
   156   1 H    1.004 --   128 C    0.973
   157   1 H    1.004 --   129 C    0.970
   158   1 H    1.004 --   134 C    0.970
   159   1 H    1.004 --   135 C    0.973
   160   1 H    1.003 --   140 C    0.973
   161   1 H    1.013 --   141 C    0.972
   162   1 H    1.013 --   143 C    0.972
   163   1 H    1.004 --   144 C    0.973
   164   1 H    1.004 --   146 C    0.973
   165   1 H    1.003 --   147 C    0.971
 ---------------------------------------------------------------------------

           -------------------------------------------------
          | TOTAL ENERGY             -295.383233718383 Eh   |
          | GRADIENT NORM               0.000713846632 Eh/α |
          | HOMO-LUMO GAP               1.088650596774 eV   |
           -------------------------------------------------

 * finished run on 2022/07/30 at 02:20:11.495
