   * xtb version 6.5.1 (b24c23e) compiled by 'conda@728c89f4b128' on 2022-07-12
          program call               : xtb Co_m-CP_C6_2.xyz --gfn 1 --opt -T 48

   ID    Z sym.   atoms
    1   27 Co     1, 63
    2    6 C      2-6, 8-12, 15-20, 22-27, 29-35, 38-42, 64-68, 70-74, 77-82,
                  84-89, 91-97, 100-104, 125-130
    3    7 N      7, 21, 28, 43, 69, 83, 90, 105
    4    8 O      13, 14, 36, 37, 75, 76, 98, 99
    5    1 H      44-62, 106-124
########################################################################
[WARNING] Please study the warnings concerning your input carefully
-1- prog_main_parseArguments: Unknown option '-T' provided
########################################################################

          :  Hamiltonian                  GFN1-xTB          :
 * total energy  :  -246.7404232 Eh     change        0.2575746E-08 Eh
 * total energy  :  -246.8806607 Eh     change       -0.1402375E+00 Eh
 * total energy  :  -246.9459091 Eh     change       -0.6524846E-01 Eh
 * total energy  :  -246.9684141 Eh     change       -0.2250493E-01 Eh
 * total energy  :  -246.9782951 Eh     change       -0.9881063E-02 Eh
 * total energy  :  -246.9828823 Eh     change       -0.4587144E-02 Eh
 * total energy  :  -246.9848907 Eh     change       -0.2008431E-02 Eh
 * total energy  :  -246.9855410 Eh     change       -0.6503444E-03 Eh
 * total energy  :  -246.9862013 Eh     change       -0.6602359E-03 Eh
 * total energy  :  -246.9864467 Eh     change       -0.2453839E-03 Eh
 * total energy  :  -246.9887848 Eh     change       -0.6799669E-05 Eh
 * total energy  :  -246.9887930 Eh     change       -0.8248209E-05 Eh
 * total energy  :  -246.9887988 Eh     change       -0.5798789E-05 Eh
 * total energy  :  -246.9888046 Eh     change       -0.5799355E-05 Eh
 * total energy  :  -246.9888111 Eh     change       -0.6519948E-05 Eh
 * total energy  :  -246.9888175 Eh     change       -0.6379362E-05 Eh
 * total energy  :  -246.9888240 Eh     change       -0.6526652E-05 Eh
 * total energy  :  -246.9888303 Eh     change       -0.6262861E-05 Eh
 * total energy  :  -246.9888345 Eh     change       -0.4202201E-05 Eh
   *** GEOMETRY OPTIMIZATION CONVERGED AFTER 56 ITERATIONS ***

 final structure:
================
130
 xtb: 6.5.1 (b24c23e)
Co          14.49710561993026        0.01450252290810        0.09043248590233
C           11.12936123361197       -0.01159492869791        0.24481074229885
C           11.76778098910217        1.20133990385734        0.09910727810617
C           11.08822772117658        2.45550665071297       -0.01999913495274
C           12.03753518257127        3.41866299142316        0.03622376838449
C           13.29498356797927        2.75139960141176        0.21067337234642
N           13.12517600386075        1.39062615670949        0.17209852116862
C           14.48735888434155        3.39530909164785        0.51220904943853
C           14.48525922580171        4.86373568337103        0.70525943840049
C           13.68494910833678        5.44718921630041        1.68358067626864
C           13.68456654523759        6.82946249511671        1.86526764085120
C           12.81012952908378        7.39053423773922        2.92600569120604
O           12.88989222775096        8.72435875299668        3.03644862156022
O           12.08974324842068        6.73203891307939        3.63158743134030
C           14.48691025916263        7.64036886122268        1.06271167721506
C           15.28430718421783        7.06185778267769        0.08762638767296
C           15.28733227414048        5.68564346699349       -0.09025692502940
C           15.67863532742114        2.69933341803371        0.65891588233198
C           16.91778902229503        3.29528393503045        1.05800954971582
C           17.87120192291964        2.34142705726672        0.92446028285937
N           15.86424258605959        1.37352706879652        0.34346063463359
C           17.21160430343791        1.16750279435488        0.44801963471143
C           17.88695451063583        0.02916968268503        0.00063093161412
C           17.20297805684351       -1.10280788164623       -0.45070902065310
C           17.85088337611035       -2.25411336294246       -0.99377534935008
C           16.89321875437412       -3.19915532533035       -1.15458155394417
C           15.66620952139187       -2.62647075313847       -0.68832360209240
N           15.85826503104149       -1.31198863148072       -0.32724307221081
C           14.49312208786498       -3.34148390581229       -0.49945893218146
C           14.48831338612044       -4.80068869770078       -0.75411940943288
C           15.35087645489363       -5.64569532482240       -0.05195596004850
C           15.34664722511051       -7.01354530985476       -0.28671321794558
C           14.48527430831211       -7.55421259210033       -1.22665739856280
C           13.61845818575299       -6.72024301532044       -1.93464021143149
C           12.71116048304628       -7.33857663630506       -2.93417310800762
O           11.90542108385580       -6.45816591605793       -3.54502726070043
O           12.68333117747702       -8.51533477628463       -3.18908262816968
C           13.61946561029178       -5.34751529030083       -1.69621912719947
C           13.32460277973137       -2.73019079020801       -0.06353027993396
C           12.10533820752382       -3.42740415848862        0.22420847933132
C           11.15784303408836       -2.48524689500955        0.44276686945103
C           11.80016897368140       -1.21483239491545        0.29395130644931
N           13.14012545521333       -1.37611478108476        0.04385136737582
H           10.04794216302615       -0.02037788162813        0.31173862618081
H           10.02068909345466        2.56384543844944       -0.12643719815571
H           11.91103583367360        4.48729015892629       -0.02588860682889
H           13.06551735858966        4.83147240174871        2.32653645928019
H           12.29306938611797        9.01092662135716        3.74683122003615
H           14.48322712754634        8.71442431661020        1.20346428689943
H           15.90824923008250        7.68647815387544       -0.54155875140660
H           15.90442752163348        5.24086859403840       -0.86291486305107
H           17.03172510100483        4.31166486021058        1.39828674529524
H           18.92970277986345        2.41342287854438        1.11596066206687
H           18.90426010901471       -2.31631297122523       -1.21465398776755
H           16.99804105417531       -4.19751389535342       -1.54698070206230
H           16.01671603789923       -5.22592435084836        0.69375039477251
H           16.01860674606109       -7.65745575846170        0.26914866819356
H           14.47004924848685       -8.62023325778052       -1.42350862920802
H           11.34909403401828       -6.93799670321324       -4.17997147911878
H           12.95475462805118       -4.70060808765661       -2.25643262560682
H           12.00177821362950       -4.50004868318159        0.25114030219578
H           10.11299605222068       -2.61817102773171        0.67386961306684
Co          30.44567309166767       -0.04391205441570        0.08217898992965
C           33.81336776280030       -0.06886470023764        0.23511870387501
C           33.17527175177685       -1.16789795369419       -0.29877183636052
C           33.85495419901401       -2.31413555863870       -0.82135131917670
C           32.90569780448914       -3.24270790856215       -1.08349712733033
C           31.64825822051342       -2.66928862032325       -0.70029716224707
N           31.81790194673321       -1.37059191486677       -0.29200966233077
C           30.45631103195915       -3.37680706290514       -0.62403569758223
C           30.45832072981307       -4.82781409686181       -0.92112744097972
C           31.25756406464635       -5.69888123627975       -0.18602864761957
C           31.25706054370495       -7.06485683087933       -0.46493753878104
C           32.12909502208286       -7.94187668807192        0.35667032899405
O           32.04788067985788       -9.23890480692158        0.02707261881952
O           32.84889789362398       -7.54974046610925        1.23902022228172
C           30.45550063517464       -7.56906492413929       -1.48898819316111
C           29.65948196652647       -6.70359271432636       -2.22290962417427
C           29.65679945651909       -5.34466478819119       -1.94193195946727
C           29.26539601826855       -2.76758013463003       -0.25590058756929
C           28.02692122387081       -3.46173924009409       -0.07118128270230
C           27.07301232086594       -2.51686385718550        0.11331769834631
N           29.07910885029987       -1.41134306986338       -0.12265403736617
C           27.73179341870930       -1.25143238162092        0.04399964652440
C           27.05588152468239       -0.02976593715742       -0.00896223291624
C           27.73928072696640        1.18790067351409       -0.06536909784326
C           27.09051750851980        2.45312365536666       -0.20162339501215
C           28.04758544829578        3.39938887817474       -0.04468082356043
C           29.27524883661971        2.70649951099829        0.20782767252868
N           29.08398574611823        1.34614394128884        0.11934967451994
C           30.44879847306891        3.32146524064670        0.61746436633714
C           30.45367778317354        4.78395687800626        0.85212345704219
C           29.59030804521916        5.35435938774674        1.79042743997981
C           29.59460734571766        6.72404275088307        2.01418267481449
C           30.45727886889080        7.54121115331035        1.30298431119153
C           31.32511676053792        6.98318909503361        0.36299267876953
C           32.23418141073339        7.89328437159248       -0.37858390795573
O           33.04130759137392        7.25997555410099       -1.24169368362322
O           32.26284507639596        9.08872589641638       -0.23502325111034
C           31.32366068252306        5.60775637003173        0.14072856440644
C           31.61787235271932        2.60179797508860        0.82889628446013
C           32.83725637971678        3.16741859314837        1.32762800972922
C           33.78469839235507        2.20536770459681        1.22778626281298
C           33.14234689832897        1.05258364159975        0.67358027385393
N           31.80240451857536        1.28662443441521        0.48938462037819
H           34.89475953454080       -0.08231520776460        0.30176948037866
H           34.92252572093557       -2.38169191142281       -0.95713595656781
H           33.03213943975347       -4.23226804792639       -1.49168860229369
H           31.87658327507726       -5.32684706843374        0.62303848028705
H           32.64297046354920       -9.74186262192475        0.60661283831873
H           30.45857365241612       -8.63030749466904       -1.70619449183073
H           29.03615704492045       -7.08839772475047       -3.02211007915149
H           29.04033546711967       -4.67180564001559       -2.52747911627209
H           27.91386013157938       -4.53364056245915       -0.07955442216305
H           26.01475166469391       -2.64790533849267        0.27202199381255
H           26.03694788984856        2.58348122108074       -0.38936527683894
H           27.94180522807868        4.47109699539795       -0.08855562882293
H           28.92386177708691        4.71470709918428        2.35815929169620
H           28.92180874827444        7.15185892571387        2.74865244787495
H           30.47276892430153        8.61316909146439        1.46436679233182
H           33.59910666393647        7.92048979844214       -1.68385516358669
H           31.98898266221675        5.17866643337093       -0.59914312215339
H           32.94097662324136        4.17288462885616        1.70217398910530
H           34.82953673869260        2.25580659613121        1.48960216286889
C           23.08579091395411       -0.00436735716611       -0.02217313778139
C           21.85706800011839        0.00766849447905       -0.01840785349604
C           20.51366344015809        0.01809393498898       -0.01253826873304
C           19.28947485406827        0.02509382605678       -0.00809705535208
C           24.42919048027418       -0.01557890817283       -0.02079109884929
C           25.65337826874994       -0.02364264537375       -0.01879285712743

          :  Hamiltonian                  GFN1-xTB          :
         :: total energy            -246.988834514109 Eh    ::
         :: gradient norm              0.000557936792 Eh/a0 ::
         :: HOMO-LUMO gap              0.007860608130 eV    ::
         :: SCC energy              -250.623168465267 Eh    ::
         :: repulsion energy           3.748973504726 Eh    ::

    * Orbital Energies and Occupations

         #    Occupation            Energy/Eh            Energy/eV
      -------------------------------------------------------------
         1        2.0000           -0.8349958             -22.7214
       ...           ...                  ...                  ...
       208        2.0000           -0.4300295             -11.7017
       209        2.0000           -0.4240873             -11.5400
       210        2.0000           -0.4042583             -11.0004
       211        2.0000           -0.4042196             -10.9994
       212        2.0000           -0.4036842             -10.9848
       213        2.0000           -0.4032608             -10.9733
       214        2.0000           -0.4025354             -10.9535
       215        1.9998           -0.3997428             -10.8776
       216        1.9998           -0.3997294             -10.8772
       217        1.9998           -0.3996023             -10.8737
       218        1.9998           -0.3995891             -10.8734
       219        1.9059           -0.3939001             -10.7186
       220        1.1232           -0.3912777             -10.6472 (HOMO)
       221        0.9718           -0.3909888             -10.6393 (LUMO)
       222                         -0.3460892              -9.4176
       223                         -0.3361881              -9.1481
       224                         -0.3361419              -9.1469
       225                         -0.3348472              -9.1117
       226                         -0.3141938              -8.5496
       227                         -0.3136871              -8.5359
       228                         -0.3126550              -8.5078
       229                         -0.3126127              -8.5066
       230                         -0.3069404              -8.3523
       231                         -0.3017150              -8.2101
       ...                                ...                  ...
       454                          1.5700607              42.7235
      -------------------------------------------------------------
                  HL-Gap            0.0002889 Eh            0.0079 eV

Wiberg/Mayer (AO) data.
largest (>0.10) Wiberg bond orders for each atom

     #   Z sym  total        # sym  WBO       # sym  WBO       # sym  WBO
 ---------------------------------------------------------------------------
     1  27 Co   3.056 --     7 N    0.643    43 N    0.638    28 N    0.636
                            21 N    0.633
     2   6 C    3.930 --     3 C    1.365    42 C    1.365    44 H    0.970
     3   6 C    3.923 --     2 C    1.365     7 N    1.200     4 C    1.173
     4   6 C    3.959 --     5 C    1.651     3 C    1.173    45 H    0.975
     5   6 C    3.963 --     4 C    1.651     6 C    1.174    46 H    0.973
     6   6 C    3.921 --     8 C    1.322     7 N    1.210     5 C    1.174
     7   7 N    3.347 --     6 C    1.210     3 C    1.200     1 Co   0.643
     8   6 C    3.933 --    18 C    1.328     6 C    1.322     9 C    1.030
     9   6 C    3.988 --    10 C    1.407    17 C    1.386     8 C    1.030
                            15 C    0.102
    10   6 C    3.983 --     9 C    1.407    11 C    1.397    47 H    0.967
                            16 C    0.104
    11   6 C    3.988 --    10 C    1.397    15 C    1.391    12 C    1.004
    12   6 C    3.836 --    14 O    1.693    13 O    1.090    11 C    1.004
    13   8 O    2.099 --    12 C    1.090    48 H    0.838    14 O    0.129
    14   8 O    1.962 --    12 C    1.693    13 O    0.129
    15   6 C    3.986 --    16 C    1.448    11 C    1.391    49 H    0.970
                             9 C    0.102
    16   6 C    3.994 --    15 C    1.448    17 C    1.442    50 H    0.972
                            10 C    0.104
    17   6 C    3.985 --    16 C    1.442     9 C    1.386    51 H    0.972
    18   6 C    3.917 --     8 C    1.328    21 N    1.196    19 C    1.183
    19   6 C    3.958 --    20 C    1.635    18 C    1.183    52 H    0.973
    20   6 C    3.961 --    19 C    1.635    22 C    1.191    53 H    0.973
    21   7 N    3.349 --    22 C    1.228    18 C    1.196     1 Co   0.633
    22   6 C    3.903 --    23 C    1.260    21 N    1.228    20 C    1.191
    23   6 C    3.935 --    22 C    1.260    24 C    1.258   128 C    1.192
    24   6 C    3.903 --    23 C    1.258    28 N    1.231    25 C    1.191
    25   6 C    3.961 --    26 C    1.636    24 C    1.191    54 H    0.973
    26   6 C    3.958 --    25 C    1.636    27 C    1.181    55 H    0.973
    27   6 C    3.917 --    29 C    1.332    28 N    1.192    26 C    1.181
    28   7 N    3.347 --    24 C    1.231    27 C    1.192     1 Co   0.636
    29   6 C    3.933 --    27 C    1.332    39 C    1.317    30 C    1.029
    30   6 C    3.988 --    38 C    1.405    31 C    1.388    29 C    1.029
                            33 C    0.102
    31   6 C    3.987 --    32 C    1.440    30 C    1.388    56 H    0.972
    32   6 C    3.994 --    33 C    1.450    31 C    1.440    57 H    0.972
                            38 C    0.104
    33   6 C    3.985 --    32 C    1.450    34 C    1.388    58 H    0.969
                            30 C    0.102
    34   6 C    3.988 --    38 C    1.400    33 C    1.388    35 C    1.004
    35   6 C    3.836 --    37 O    1.693    36 O    1.090    34 C    1.004
    36   8 O    2.099 --    35 C    1.090    59 H    0.838    37 O    0.129
    37   8 O    1.961 --    35 C    1.693    36 O    0.129
    38   6 C    3.985 --    30 C    1.405    34 C    1.400    60 H    0.969
                            32 C    0.104
    39   6 C    3.921 --    29 C    1.317    43 N    1.213    40 C    1.176
    40   6 C    3.963 --    41 C    1.649    39 C    1.176    61 H    0.973
    41   6 C    3.960 --    40 C    1.649    42 C    1.174    62 H    0.975
    42   6 C    3.923 --     2 C    1.365    43 N    1.199    41 C    1.174
    43   7 N    3.348 --    39 C    1.213    42 C    1.199     1 Co   0.638
    44   1 H    1.000 --     2 C    0.970
    45   1 H    0.997 --     4 C    0.975
    46   1 H    1.003 --     5 C    0.973
    47   1 H    1.007 --    10 C    0.967
    48   1 H    0.872 --    13 O    0.838
    49   1 H    1.005 --    15 C    0.970
    50   1 H    1.002 --    16 C    0.972
    51   1 H    1.004 --    17 C    0.972
    52   1 H    1.003 --    19 C    0.973
    53   1 H    1.001 --    20 C    0.973
    54   1 H    1.001 --    25 C    0.973
    55   1 H    1.003 --    26 C    0.973
    56   1 H    1.005 --    31 C    0.972
    57   1 H    1.001 --    32 C    0.972
    58   1 H    1.005 --    33 C    0.969
    59   1 H    0.873 --    36 O    0.838
    60   1 H    1.007 --    38 C    0.969
    61   1 H    1.003 --    40 C    0.973
    62   1 H    0.997 --    41 C    0.975
    63  27 Co   3.058 --    69 N    0.643   105 N    0.639    90 N    0.636
                            83 N    0.633
    64   6 C    3.930 --    65 C    1.365   104 C    1.365   106 H    0.970
    65   6 C    3.923 --    64 C    1.365    69 N    1.200    66 C    1.173
    66   6 C    3.959 --    67 C    1.651    65 C    1.173   107 H    0.975
    67   6 C    3.963 --    66 C    1.651    68 C    1.174   108 H    0.973
    68   6 C    3.921 --    70 C    1.322    69 N    1.210    67 C    1.174
    69   7 N    3.347 --    68 C    1.210    65 C    1.200    63 Co   0.643
    70   6 C    3.933 --    80 C    1.328    68 C    1.322    71 C    1.029
    71   6 C    3.988 --    72 C    1.407    79 C    1.387    70 C    1.029
                            77 C    0.102
    72   6 C    3.983 --    71 C    1.407    73 C    1.397   109 H    0.967
                            78 C    0.104
    73   6 C    3.988 --    72 C    1.397    77 C    1.391    74 C    1.004
    74   6 C    3.836 --    76 O    1.693    75 O    1.090    73 C    1.004
    75   8 O    2.099 --    74 C    1.090   110 H    0.838    76 O    0.129
    76   8 O    1.962 --    74 C    1.693    75 O    0.129
    77   6 C    3.986 --    78 C    1.448    73 C    1.391   111 H    0.970
                            71 C    0.102
    78   6 C    3.994 --    77 C    1.448    79 C    1.442   112 H    0.972
                            72 C    0.104
    79   6 C    3.985 --    78 C    1.442    71 C    1.387   113 H    0.972
    80   6 C    3.917 --    70 C    1.328    83 N    1.196    81 C    1.183
    81   6 C    3.958 --    82 C    1.635    80 C    1.183   114 H    0.973
    82   6 C    3.961 --    81 C    1.635    84 C    1.191   115 H    0.973
    83   7 N    3.349 --    84 C    1.228    80 C    1.196    63 Co   0.633
    84   6 C    3.903 --    85 C    1.259    83 N    1.228    82 C    1.191
    85   6 C    3.935 --    84 C    1.259    86 C    1.258   130 C    1.192
    86   6 C    3.903 --    85 C    1.258    90 N    1.231    87 C    1.191
    87   6 C    3.961 --    88 C    1.636    86 C    1.191   116 H    0.973
    88   6 C    3.958 --    87 C    1.636    89 C    1.181   117 H    0.973
    89   6 C    3.917 --    91 C    1.332    90 N    1.192    88 C    1.181
    90   7 N    3.347 --    86 C    1.231    89 C    1.192    63 Co   0.636
    91   6 C    3.933 --    89 C    1.332   101 C    1.317    92 C    1.029
    92   6 C    3.988 --   100 C    1.405    93 C    1.388    91 C    1.029
                            95 C    0.102
    93   6 C    3.987 --    94 C    1.440    92 C    1.388   118 H    0.972
    94   6 C    3.994 --    95 C    1.450    93 C    1.440   119 H    0.972
                           100 C    0.104
    95   6 C    3.985 --    94 C    1.450    96 C    1.388   120 H    0.969
                            92 C    0.102
    96   6 C    3.988 --   100 C    1.400    95 C    1.388    97 C    1.004
    97   6 C    3.836 --    99 O    1.693    98 O    1.090    96 C    1.004
    98   8 O    2.099 --    97 C    1.090   121 H    0.838    99 O    0.129
    99   8 O    1.961 --    97 C    1.693    98 O    0.129
   100   6 C    3.985 --    92 C    1.405    96 C    1.400   122 H    0.969
                            94 C    0.104
   101   6 C    3.921 --    91 C    1.317   105 N    1.214   102 C    1.176
   102   6 C    3.963 --   103 C    1.649   101 C    1.176   123 H    0.973
   103   6 C    3.960 --   102 C    1.649   104 C    1.174   124 H    0.975
   104   6 C    3.923 --    64 C    1.365   105 N    1.199   103 C    1.174
   105   7 N    3.348 --   101 C    1.214   104 C    1.199    63 Co   0.639
   106   1 H    1.000 --    64 C    0.970
   107   1 H    0.997 --    66 C    0.975
   108   1 H    1.003 --    67 C    0.973
   109   1 H    1.007 --    72 C    0.967
   110   1 H    0.872 --    75 O    0.838
   111   1 H    1.005 --    77 C    0.970
   112   1 H    1.002 --    78 C    0.972
   113   1 H    1.004 --    79 C    0.972
   114   1 H    1.003 --    81 C    0.973
   115   1 H    1.001 --    82 C    0.973
   116   1 H    1.001 --    87 C    0.973
   117   1 H    1.003 --    88 C    0.973
   118   1 H    1.005 --    93 C    0.972
   119   1 H    1.001 --    94 C    0.972
   120   1 H    1.005 --    95 C    0.969
   121   1 H    0.873 --    98 O    0.838
   122   1 H    1.007 --   100 C    0.969
   123   1 H    1.003 --   102 C    0.973
   124   1 H    0.997 --   103 C    0.975
   125   6 C    3.921 --   126 C    2.360   129 C    1.339   128 C    0.189
   126   6 C    3.921 --   125 C    2.360   127 C    1.339   130 C    0.189
   127   6 C    3.931 --   128 C    2.443   126 C    1.339
   128   6 C    3.885 --   127 C    2.443    23 C    1.192   125 C    0.189
   129   6 C    3.931 --   130 C    2.443   125 C    1.339
   130   6 C    3.885 --   129 C    2.443    85 C    1.192   126 C    0.189
 ---------------------------------------------------------------------------

           -------------------------------------------------
          | TOTAL ENERGY             -246.988834514109 Eh   |
          | GRADIENT NORM               0.000557936792 Eh/α |
          | HOMO-LUMO GAP               0.007860608130 eV   |
           -------------------------------------------------

 * finished run on 2022/07/29 at 23:57:07.749
