   * xtb version 6.5.1 (b24c23e) compiled by 'conda@728c89f4b128' on 2022-07-12
          program call               : xtb Fe_Ph2OMe_C6_2.xyz --gfn 1 --opt -T 48

   ID    Z sym.   atoms
    1   26 Fe     1, 73
    2    6 C      2-6, 8-11, 13-21, 23-27, 29-33, 36, 37, 39-43, 45, 74-78,
                  80-83, 85-93, 95-99, 101-105, 108, 109, 111-115, 117,
                  145-150
    3    7 N      7, 12, 34, 35, 79, 84, 106, 107
    4    8 O      22, 28, 38, 44, 94, 100, 110, 116
    5    1 H      46-72, 118-144
########################################################################
[WARNING] Please study the warnings concerning your input carefully
-1- prog_main_parseArguments: Unknown option '-T' provided
########################################################################

          :  Hamiltonian                  GFN1-xTB          :
 * total energy  :  -262.0837845 Eh     change       -0.2908615E-07 Eh
 * total energy  :  -262.8110676 Eh     change       -0.7272831E+00 Eh
 * total energy  :  -262.9206756 Eh     change       -0.1096080E+00 Eh
 * total energy  :  -262.9781673 Eh     change       -0.5749165E-01 Eh
 * total energy  :  -263.0032569 Eh     change       -0.2508965E-01 Eh
 * total energy  :  -263.0156754 Eh     change       -0.1241851E-01 Eh
 * total energy  :  -263.0226218 Eh     change       -0.6946397E-02 Eh
 * total energy  :  -263.0269135 Eh     change       -0.4291692E-02 Eh
 * total energy  :  -263.0299695 Eh     change       -0.3055946E-02 Eh
 * total energy  :  -263.0322506 Eh     change       -0.2281155E-02 Eh
 * total energy  :  -263.0390904 Eh     change       -0.1348492E-04 Eh
 * total energy  :  -263.0391042 Eh     change       -0.1382822E-04 Eh
 * total energy  :  -263.0391189 Eh     change       -0.1469633E-04 Eh
 * total energy  :  -263.0391355 Eh     change       -0.1657947E-04 Eh
 * total energy  :  -263.0391538 Eh     change       -0.1833589E-04 Eh
 * total energy  :  -263.0391717 Eh     change       -0.1793075E-04 Eh
 * total energy  :  -263.0391858 Eh     change       -0.1409445E-04 Eh
 * total energy  :  -263.0391962 Eh     change       -0.1031745E-04 Eh
 * total energy  :  -263.0391990 Eh     change       -0.2848709E-05 Eh
   *** GEOMETRY OPTIMIZATION CONVERGED AFTER 94 ITERATIONS ***

 final structure:
================
150
 xtb: 6.5.1 (b24c23e)
Fe          13.19008654206217        0.13679832563491       -0.09393443362413
C            9.81967170643716        0.40295635654632       -0.30602351210104
C           10.46071121226628        1.13759654038135        0.67022481269307
C            9.77590344051516        1.99193929960114        1.59334438515563
C           10.72189976633750        2.52792295406680        2.39953907798856
C           11.98520939477107        2.01751598394077        1.95280129583035
N           11.80947887218083        1.14800436161516        0.91047507337390
C           13.20764629807018        2.39610226412521        2.49365938144344
C           14.42127464057892        1.93194705867922        2.01114229285746
C           15.69190896294795        2.39914257012414        2.47864410506060
C           16.63628924893606        1.76346005906213        1.74498975031387
N           14.59138322704328        1.01098019642841        1.00489953313329
C           15.94006111027263        0.89977020046602        0.84271406760332
C           16.59492497977106        0.02309065155127       -0.03134007404079
C           15.91442950360261       -0.87650431750255       -0.86138825552863
C           16.58320569479926       -1.84931138449483       -1.66844013188271
C           15.61794625459252       -2.55020079555273       -2.30963132230010
C           14.36339037842643       -1.98440176533778       -1.91249566548870
C           13.14067774588775       -2.38151589263396       -2.42926044469686
C           13.11067477689076       -3.47035470952301       -3.44429688273504
C           13.61970987154192       -3.25460306244790       -4.73192140792550
O           14.12277371559774       -2.01525219790190       -4.97061258609208
C           14.65058250654766       -1.68681953019669       -6.23978247705871
C           13.58084490058593       -4.27235412655746       -5.68437799043485
C           13.03652428266008       -5.50156602226984       -5.34418562680451
C           12.52659436710469       -5.73776831748116       -4.07649228548754
C           12.56004226108741       -4.71858395534958       -3.12513024614919
O           12.08939532962397       -4.85203766015780       -1.85770653082923
C           11.51544014830271       -6.07094162073662       -1.43094468570476
C           11.93960973590656       -1.77729698093001       -2.07731394766660
C           10.68044054289844       -2.09572626780447       -2.68479641287482
C            9.75480202913919       -1.29062537658824       -2.11245376745640
C           10.44855468603774       -0.49010355284219       -1.14865495578579
N           11.78579137909591       -0.78975553235599       -1.14342329989038
N           14.56247585395952       -0.97511145463258       -0.99943542145037
C           13.22110411165420        3.38478236534503        3.60668141017352
C           13.60193921948455        2.99407971477414        4.89724552212188
O           13.92804257221508        1.68404815846208        5.04830274216811
C           14.32337057642822        1.18497544643227        6.31010983157419
C           13.62100169758635        3.92288933079592        5.93745075590252
C           13.26644480092549        5.23869005358209        5.68114353895388
C           12.89070727066490        5.64916148438021        4.41097925483526
C           12.86615960798188        4.71994004536481        3.37164706920001
O           12.52150215628485        5.02571080465738        2.09322234855974
C           12.16665068560074        6.34782564698216        1.74231411669026
H            8.74467474127594        0.51304391439399       -0.39726796393164
H            8.70792023182858        2.14264030714068        1.61011317033119
H           10.59191743037751        3.21537962355610        3.21950585648419
H           15.83021114423420        3.12805306113663        3.26051841424466
H           17.70911305851931        1.85452473554089        1.80222192728989
H           17.65315909335409       -1.97328350595754       -1.71820768246479
H           15.73279651237091       -3.36938963414785       -3.00051168871299
H           13.88959348330654       -1.77068346939126       -7.02510014163693
H           14.98196231251400       -0.64906286352237       -6.17093289255609
H           15.50719894896551       -2.32214424603157       -6.49554347435179
H           13.96816988699230       -4.11514306314172       -6.68211896895146
H           13.00804823815682       -6.29343406156998       -6.08463315440903
H           12.10784146135829       -6.70658093751780       -3.83925314346955
H           11.21895832863063       -5.91925616877756       -0.39144070586083
H           10.62934990017236       -6.32725478330058       -2.02437369374111
H           12.23725873059020       -6.89504333614582       -1.48305025807345
H           10.53991452765529       -2.83676945265367       -3.45508317509679
H            8.69529214091602       -1.23279230725707       -2.30657494304886
H           14.52750140043324        0.12247427425179        6.16585508437452
H           13.52714459066081        1.30087454818382        7.05539963570982
H           15.23267260481823        1.68069784020116        6.67113858944438
H           13.90992966462264        3.63111576883206        6.93824238476881
H           13.28440995304132        5.96131604802071        6.48959412657178
H           12.62202326936362        6.68282970607033        4.23909370373446
H           12.99218151174807        7.04665624324376        1.92380503372648
H           11.94167677203047        6.32809625681548        0.67435189673181
H           11.27883410925982        6.68503007119761        2.29096592024288
Fe          29.16473241461748        0.12333826083136       -0.13096035466612
C           32.53170848380436        0.38957319750881       -0.37651719426812
C           31.89297735008233       -0.47912713485440       -1.23746337897956
C           32.57957929231835       -1.27466818210531       -2.21046069465868
C           31.63617793376488       -2.00831581392941       -2.84603295367065
C           30.37212699185272       -1.64053251204509       -2.27765963920664
N           30.54562299153134       -0.72433538759092       -1.27572610909780
C           29.15046946947264       -2.12619124024079       -2.72724828692580
C           27.93617189133976       -1.71183304460738       -2.20257155445869
C           26.66592630845228       -2.10825503643253       -2.73233299915572
C           25.72106255193262       -1.46975394134295       -2.00175750021216
N           27.76524120338263       -0.84357016941342       -1.15068616462175
C           26.41651626908143       -0.69765367762388       -1.01940140846132
C           25.76085004839027        0.04335795761495       -0.02818036760000
C           26.44047131771674        0.73708083230621        0.98094081247889
C           25.77112224401020        1.39625865755202        2.05907238789854
C           26.73600035002929        1.92855772340919        2.84635000084087
C           27.99098582214679        1.61559529997478        2.23091988126558
C           29.21390716343242        2.06719760016102        2.70046618151784
C           29.24382248835805        2.91242230784694        3.92587666789140
C           28.73882051309814        4.21929615623454        3.89872223917081
O           28.24071906371413        4.63787007387517        2.70592467281298
C           27.71697872280659        5.94292200721504        2.56513301342050
C           28.77667074808007        5.01309725268329        5.04455305043196
C           29.31609208118080        4.49577080011975        6.21259857686043
C           29.82260055219664        3.20590873351294        6.26269219814206
C           29.79038333651962        2.41343138181670        5.11553697691287
O           30.25867334560026        1.13915531289696        5.06408848421589
C           30.82715872752669        0.53818408162977        6.20995485656210
C           30.41468588128485        1.80836642546356        2.05045353439977
C           31.67329749601078        2.36576176444850        2.45189336185920
C           32.59695972552835        1.92607925415344        1.56523143997852
C           31.90315912410275        1.08963890355894        0.63244003023101
N           30.56757061463528        1.03293183007488        0.93403654849141
N           27.79240018630484        0.85845703945213        1.09992503457879
C           29.13825148994985       -3.09193841718373       -3.86012618792442
C           28.75022314823378       -4.42242281069609       -3.65361274942328
O           28.41640040862620       -4.75185769260468       -2.37871469294977
C           28.00911537091249       -6.06761521790271       -2.06180871250983
C           28.73230293290954       -5.32413793255623       -4.71741066016581
C           29.09488713501803       -4.89002991341871       -5.98342364502145
C           29.47745006272930       -3.57696518744923       -6.21252657962174
C           29.50081685791983       -2.67617744701643       -5.14845738480001
O           29.85083415227579       -1.36905923605775       -5.27332328587733
C           30.22089952728017       -0.84199762848468       -6.53120398415093
H           33.60543121179488        0.50329638041668       -0.47779311964539
H           33.64707975173894       -1.26483178090348       -2.36513440176598
H           31.76842442916103       -2.72902478557950       -3.63657242357045
H           26.52810172503151       -2.78045263458196       -3.56354243284032
H           24.64835292037302       -1.51278854327056       -2.10149723308661
H           24.70105081397153        1.42885495483771        2.18762311926966
H           26.62060586265621        2.49429473402358        3.75640960923187
H           28.47940971986370        6.70540556226739        2.76562863421646
H           27.38925133407569        6.02777228044529        1.52740572961210
H           26.85864599020952        6.10521626847547        3.22828434863341
H           28.39232112136747        6.02421369339868        5.03339443851523
H           29.34353714668607        5.11266204465727        7.10412195755752
H           30.23779101093928        2.82887582890342        7.18772086896988
H           31.12344691286357       -0.46846823838205        5.90944056865384
H           31.71262239784549        1.08659679455039        6.55376968664212
H           30.10186286894308        0.47055603538571        7.02986139350597
H           31.81471088775319        3.01548220092105        3.30047464903169
H           33.65543428628830        2.13138647459529        1.53277630064651
H           27.79695516373064       -6.07004177852711       -0.99111919796310
H           28.80164019978832       -6.79554630403973       -2.27366464543603
H           27.10178339867795       -6.35001909878053       -2.60944044984001
H           28.43814725409436       -6.35437834143963       -4.56817400401734
H           29.07786103094787       -5.59075579087973       -6.81094561178461
H           29.75202529678008       -3.26491188978888       -7.21124310008582
H           29.40210219576735       -0.92122515250883       -7.25652137726849
H           30.45004547422050        0.21188728514670       -6.36278885149812
H           31.10997508074355       -1.34411017005053       -6.93166748940865
C           21.79299575920850        0.05817697133591       -0.04390125355569
C           20.56270599162876        0.04872541337151       -0.05208559771628
C           19.22128233888872        0.03780828207926       -0.05063522642714
C           17.99566611481517        0.02093536800089       -0.04554770248364
C           23.13443423549255        0.05923299012725       -0.03434934328420
C           24.36009317073613        0.05499379571386       -0.02376916334313

          :  Hamiltonian                  GFN1-xTB          :
         :: total energy            -263.039199002269 Eh    ::
         :: gradient norm              0.000496679569 Eh/a0 ::
         :: HOMO-LUMO gap              0.097603915373 eV    ::
         :: SCC energy              -266.762641784735 Eh    ::
         :: repulsion energy           3.854240451779 Eh    ::

    * Orbital Energies and Occupations

         #    Occupation            Energy/Eh            Energy/eV
      -------------------------------------------------------------
         1        2.0000           -0.8062172             -21.9383
       ...           ...                  ...                  ...
       223        2.0000           -0.4113999             -11.1948
       224        2.0000           -0.4076073             -11.0916
       225        2.0000           -0.4041706             -10.9980
       226        2.0000           -0.3817114             -10.3869
       227        2.0000           -0.3816757             -10.3859
       228        2.0000           -0.3811395             -10.3713
       229        1.9942           -0.3742543             -10.1840
       230        1.9892           -0.3736574             -10.1677
       231        1.9487           -0.3721618             -10.1270
       232        1.9478           -0.3721446             -10.1266
       233        1.9460           -0.3721107             -10.1256
       234        1.9454           -0.3721009             -10.1254
       235        1.7565           -0.3705836             -10.0841 (HOMO)
       236        0.2839           -0.3669967              -9.9865 (LUMO)
       237        0.1884           -0.3665558              -9.9745
       238                         -0.3251234              -8.8471
       239                         -0.3124667              -8.5027
       240                         -0.3120749              -8.4920
       241                         -0.3120269              -8.4907
       242                         -0.2865219              -7.7967
       243                         -0.2863934              -7.7932
       244                         -0.2855788              -7.7710
       245                         -0.2789965              -7.5919
       246                         -0.2756823              -7.5017
       ...                                ...                  ...
       502                          1.5847433              43.1231
      -------------------------------------------------------------
                  HL-Gap            0.0035869 Eh            0.0976 eV

Wiberg/Mayer (AO) data.
largest (>0.10) Wiberg bond orders for each atom

     #   Z sym  total        # sym  WBO       # sym  WBO       # sym  WBO
 ---------------------------------------------------------------------------
     1  26 Fe   3.178 --     7 N    0.671    34 N    0.669    35 N    0.665
                            12 N    0.664
     2   6 C    3.928 --    33 C    1.363     3 C    1.362    46 H    0.971
     3   6 C    3.926 --     2 C    1.362     7 N    1.212     4 C    1.173
     4   6 C    3.959 --     5 C    1.650     3 C    1.173    47 H    0.975
     5   6 C    3.962 --     4 C    1.650     6 C    1.176    48 H    0.974
     6   6 C    3.920 --     8 C    1.317     7 N    1.224     5 C    1.176
     7   7 N    3.384 --     6 C    1.224     3 C    1.212     1 Fe   0.671
     8   6 C    3.929 --     9 C    1.339     6 C    1.317    36 C    1.015
     9   6 C    3.916 --     8 C    1.339    12 N    1.199    10 C    1.179
    10   6 C    3.958 --    11 C    1.640     9 C    1.179    49 H    0.974
    11   6 C    3.960 --    10 C    1.640    13 C    1.187    50 H    0.974
    12   7 N    3.382 --    13 C    1.248     9 C    1.199     1 Fe   0.664
    13   6 C    3.905 --    14 C    1.249    12 N    1.248    11 C    1.187
    14   6 C    3.927 --    13 C    1.249    15 C    1.249   148 C    1.204
    15   6 C    3.906 --    35 N    1.250    14 C    1.249    16 C    1.187
    16   6 C    3.960 --    17 C    1.641    15 C    1.187    51 H    0.974
    17   6 C    3.958 --    16 C    1.641    18 C    1.179    52 H    0.974
    18   6 C    3.917 --    19 C    1.342    35 N    1.196    17 C    1.179
    19   6 C    3.929 --    18 C    1.342    30 C    1.315    20 C    1.015
    20   6 C    3.977 --    27 C    1.342    21 C    1.342    19 C    1.015
                            25 C    0.101
    21   6 C    3.903 --    24 C    1.362    20 C    1.342    22 O    1.032
    22   8 O    2.146 --    21 C    1.032    23 C    0.935
    23   6 C    3.907 --    54 H    0.983    55 H    0.980    53 H    0.980
                            22 O    0.935
    24   6 C    3.983 --    25 C    1.442    21 C    1.362    56 H    0.969
    25   6 C    3.992 --    26 C    1.442    24 C    1.442    57 H    0.974
                            20 C    0.101
    26   6 C    3.983 --    25 C    1.442    27 C    1.361    58 H    0.969
    27   6 C    3.903 --    26 C    1.361    20 C    1.342    28 O    1.033
    28   8 O    2.146 --    27 C    1.033    29 C    0.935
    29   6 C    3.907 --    59 H    0.983    60 H    0.980    61 H    0.980
                            28 O    0.935
    30   6 C    3.919 --    19 C    1.315    34 N    1.226    31 C    1.176
    31   6 C    3.962 --    32 C    1.650    30 C    1.176    62 H    0.974
    32   6 C    3.959 --    31 C    1.650    33 C    1.173    63 H    0.975
    33   6 C    3.926 --     2 C    1.363    34 N    1.210    32 C    1.173
    34   7 N    3.383 --    30 C    1.226    33 C    1.210     1 Fe   0.669
    35   7 N    3.383 --    15 C    1.250    18 C    1.196     1 Fe   0.665
    36   6 C    3.976 --    37 C    1.342    43 C    1.342     8 C    1.015
                            41 C    0.100
    37   6 C    3.903 --    40 C    1.361    36 C    1.342    38 O    1.033
    38   8 O    2.146 --    37 C    1.033    39 C    0.935
    39   6 C    3.907 --    64 H    0.983    66 H    0.980    65 H    0.980
                            38 O    0.935
    40   6 C    3.983 --    41 C    1.443    37 C    1.361    67 H    0.969
    41   6 C    3.992 --    40 C    1.443    42 C    1.442    68 H    0.974
                            36 C    0.100
    42   6 C    3.983 --    41 C    1.442    43 C    1.362    69 H    0.969
    43   6 C    3.903 --    42 C    1.362    36 C    1.342    44 O    1.032
    44   8 O    2.146 --    43 C    1.032    45 C    0.935
    45   6 C    3.907 --    71 H    0.983    72 H    0.980    70 H    0.980
                            44 O    0.935
    46   1 H    1.001 --     2 C    0.971
    47   1 H    0.998 --     4 C    0.975
    48   1 H    1.002 --     5 C    0.974
    49   1 H    1.002 --    10 C    0.974
    50   1 H    1.002 --    11 C    0.974
    51   1 H    1.002 --    16 C    0.974
    52   1 H    1.002 --    17 C    0.974
    53   1 H    1.009 --    23 C    0.980
    54   1 H    1.015 --    23 C    0.983
    55   1 H    1.009 --    23 C    0.980
    56   1 H    1.000 --    24 C    0.969
    57   1 H    1.003 --    25 C    0.974
    58   1 H    1.000 --    26 C    0.969
    59   1 H    1.015 --    29 C    0.983
    60   1 H    1.009 --    29 C    0.980
    61   1 H    1.009 --    29 C    0.980
    62   1 H    1.002 --    31 C    0.974
    63   1 H    0.998 --    32 C    0.975
    64   1 H    1.015 --    39 C    0.983
    65   1 H    1.009 --    39 C    0.980
    66   1 H    1.009 --    39 C    0.980
    67   1 H    1.000 --    40 C    0.969
    68   1 H    1.003 --    41 C    0.974
    69   1 H    1.000 --    42 C    0.969
    70   1 H    1.009 --    45 C    0.980
    71   1 H    1.015 --    45 C    0.983
    72   1 H    1.009 --    45 C    0.980
    73  26 Fe   3.179 --    79 N    0.672   106 N    0.670   107 N    0.665
                            84 N    0.664
    74   6 C    3.928 --   105 C    1.363    75 C    1.362   118 H    0.971
    75   6 C    3.926 --    74 C    1.362    79 N    1.212    76 C    1.173
    76   6 C    3.960 --    77 C    1.650    75 C    1.173   119 H    0.975
    77   6 C    3.962 --    76 C    1.650    78 C    1.175   120 H    0.974
    78   6 C    3.920 --    80 C    1.317    79 N    1.224    77 C    1.175
    79   7 N    3.384 --    78 C    1.224    75 C    1.212    73 Fe   0.672
    80   6 C    3.929 --    81 C    1.339    78 C    1.317   108 C    1.016
    81   6 C    3.916 --    80 C    1.339    84 N    1.199    82 C    1.179
    82   6 C    3.958 --    83 C    1.640    81 C    1.179   121 H    0.974
    83   6 C    3.960 --    82 C    1.640    85 C    1.187   122 H    0.974
    84   7 N    3.382 --    85 C    1.248    81 C    1.199    73 Fe   0.664
    85   6 C    3.905 --    86 C    1.249    84 N    1.248    83 C    1.187
    86   6 C    3.927 --    85 C    1.249    87 C    1.249   150 C    1.204
    87   6 C    3.906 --   107 N    1.250    86 C    1.249    88 C    1.187
    88   6 C    3.960 --    89 C    1.641    87 C    1.187   123 H    0.974
    89   6 C    3.958 --    88 C    1.641    90 C    1.179   124 H    0.974
    90   6 C    3.917 --    91 C    1.342   107 N    1.197    89 C    1.179
    91   6 C    3.929 --    90 C    1.342   102 C    1.315    92 C    1.015
    92   6 C    3.977 --    99 C    1.342    93 C    1.342    91 C    1.015
                            97 C    0.101
    93   6 C    3.903 --    96 C    1.362    92 C    1.342    94 O    1.032
    94   8 O    2.146 --    93 C    1.032    95 C    0.935
    95   6 C    3.907 --   126 H    0.983   127 H    0.980   125 H    0.980
                            94 O    0.935
    96   6 C    3.983 --    97 C    1.442    93 C    1.362   128 H    0.969
    97   6 C    3.993 --    98 C    1.442    96 C    1.442   129 H    0.974
                            92 C    0.101
    98   6 C    3.983 --    97 C    1.442    99 C    1.361   130 H    0.969
    99   6 C    3.903 --    98 C    1.361    92 C    1.342   100 O    1.033
   100   8 O    2.146 --    99 C    1.033   101 C    0.935
   101   6 C    3.907 --   131 H    0.983   132 H    0.980   133 H    0.980
                           100 O    0.935
   102   6 C    3.919 --    91 C    1.315   106 N    1.226   103 C    1.176
   103   6 C    3.962 --   104 C    1.650   102 C    1.176   134 H    0.974
   104   6 C    3.959 --   103 C    1.650   105 C    1.173   135 H    0.975
   105   6 C    3.926 --    74 C    1.363   106 N    1.210   104 C    1.173
   106   7 N    3.383 --   102 C    1.226   105 C    1.210    73 Fe   0.670
   107   7 N    3.383 --    87 C    1.250    90 C    1.197    73 Fe   0.665
   108   6 C    3.976 --   109 C    1.342   115 C    1.341    80 C    1.016
                           113 C    0.100
   109   6 C    3.903 --   112 C    1.361   108 C    1.342   110 O    1.033
   110   8 O    2.146 --   109 C    1.033   111 C    0.935
   111   6 C    3.907 --   136 H    0.983   138 H    0.980   137 H    0.980
                           110 O    0.935
   112   6 C    3.983 --   113 C    1.443   109 C    1.361   139 H    0.969
   113   6 C    3.992 --   112 C    1.443   114 C    1.442   140 H    0.974
                           108 C    0.100
   114   6 C    3.983 --   113 C    1.442   115 C    1.362   141 H    0.969
   115   6 C    3.903 --   114 C    1.362   108 C    1.341   116 O    1.032
   116   8 O    2.146 --   115 C    1.032   117 C    0.935
   117   6 C    3.907 --   143 H    0.983   144 H    0.980   142 H    0.980
                           116 O    0.935
   118   1 H    1.001 --    74 C    0.971
   119   1 H    0.998 --    76 C    0.975
   120   1 H    1.002 --    77 C    0.974
   121   1 H    1.002 --    82 C    0.974
   122   1 H    1.002 --    83 C    0.974
   123   1 H    1.002 --    88 C    0.974
   124   1 H    1.002 --    89 C    0.974
   125   1 H    1.009 --    95 C    0.980
   126   1 H    1.015 --    95 C    0.983
   127   1 H    1.009 --    95 C    0.980
   128   1 H    1.000 --    96 C    0.969
   129   1 H    1.003 --    97 C    0.974
   130   1 H    1.000 --    98 C    0.969
   131   1 H    1.015 --   101 C    0.983
   132   1 H    1.009 --   101 C    0.980
   133   1 H    1.009 --   101 C    0.980
   134   1 H    1.002 --   103 C    0.974
   135   1 H    0.998 --   104 C    0.975
   136   1 H    1.015 --   111 C    0.983
   137   1 H    1.009 --   111 C    0.980
   138   1 H    1.009 --   111 C    0.980
   139   1 H    1.000 --   112 C    0.969
   140   1 H    1.003 --   113 C    0.974
   141   1 H    1.000 --   114 C    0.969
   142   1 H    1.009 --   117 C    0.980
   143   1 H    1.015 --   117 C    0.983
   144   1 H    1.009 --   117 C    0.980
   145   6 C    3.916 --   146 C    2.342   149 C    1.352   148 C    0.187
   146   6 C    3.916 --   145 C    2.342   147 C    1.352   150 C    0.187
   147   6 C    3.923 --   148 C    2.423   146 C    1.352
   148   6 C    3.881 --   147 C    2.423    14 C    1.204   145 C    0.187
   149   6 C    3.923 --   150 C    2.423   145 C    1.352
   150   6 C    3.881 --   149 C    2.423    86 C    1.204   146 C    0.187
 ---------------------------------------------------------------------------

           -------------------------------------------------
          | TOTAL ENERGY             -263.039199002269 Eh   |
          | GRADIENT NORM               0.000496679569 Eh/α |
          | HOMO-LUMO GAP               0.097603915373 eV   |
           -------------------------------------------------

 * finished run on 2022/07/29 at 18:02:00.414
