   * xtb version 6.5.1 (b24c23e) compiled by 'conda@728c89f4b128' on 2022-07-12
          program call               : xtb Fe_PhCN_C6_2.xyz --gfn 1 --opt -T 48

   ID    Z sym.   atoms
    1   26 Fe     1, 59
    2    6 C      2-6, 8-13, 15-19, 21-26, 28-33, 35-40, 60-64, 66-71, 73-77,
                  79-84, 86-91, 93-98, 117-122
    3    7 N      7, 14, 20, 27, 34, 41, 65, 72, 78, 85, 92, 99
    4    1 H      42-58, 100-116
########################################################################
[WARNING] Please study the warnings concerning your input carefully
-1- prog_main_parseArguments: Unknown option '-T' provided
########################################################################

          :  Hamiltonian                  GFN1-xTB          :
 * total energy  :  -217.2937243 Eh     change       -0.1088409E-08 Eh
 * total energy  :  -218.4718701 Eh     change       -0.1178146E+01 Eh
 * total energy  :  -218.6081380 Eh     change       -0.1362679E+00 Eh
 * total energy  :  -218.6708014 Eh     change       -0.6266337E-01 Eh
 * total energy  :  -218.7051023 Eh     change       -0.3430090E-01 Eh
 * total energy  :  -218.7206273 Eh     change       -0.1552500E-01 Eh
 * total energy  :  -218.7307298 Eh     change       -0.1010251E-01 Eh
 * total energy  :  -218.7377354 Eh     change       -0.7005590E-02 Eh
 * total energy  :  -218.7416307 Eh     change       -0.3895278E-02 Eh
 * total energy  :  -218.7456537 Eh     change       -0.4022978E-02 Eh
 * total energy  :  -218.7584142 Eh     change       -0.3299702E-05 Eh
 * total energy  :  -218.7584110 Eh     change        0.3187105E-05 Eh
 * total energy  :  -218.7584172 Eh     change       -0.6154012E-05 Eh
 * total energy  :  -218.7584094 Eh     change        0.7753951E-05 Eh
 * total energy  :  -218.7584191 Eh     change       -0.9720765E-05 Eh
 * total energy  :  -218.7584153 Eh     change        0.3837585E-05 Eh
 * total energy  :  -218.7584214 Eh     change       -0.6154795E-05 Eh
 * total energy  :  -218.7584229 Eh     change       -0.1491485E-05 Eh
 * total energy  :  -218.7584243 Eh     change       -0.1389566E-05 Eh
   *** GEOMETRY OPTIMIZATION CONVERGED AFTER 54 ITERATIONS ***

 final structure:
================
122
 xtb: 6.5.1 (b24c23e)
Fe          15.62482352518243        0.03058348466399       -0.03996950739963
C           12.24034966165355        0.04730716855421        0.12206275052991
C           12.89612549074423        1.26047226676959        0.16432472169726
C           12.22757965320847        2.52515318469948        0.22258516878662
C           13.18982040880889        3.46606609995256        0.37049948662322
C           14.44486717547938        2.77256674234051        0.41280896548948
N           14.25377384185172        1.42764811415531        0.24826318613933
C           15.66914965911892        3.38955718475212        0.64744019324266
C           15.68575070943611        4.84248888256145        0.93384623842031
C           15.01902194231582        5.34900979010952        2.05190216902321
C           15.03657198576960        6.70425916657695        2.32822307225147
C           15.71926467868583        7.58311632435090        1.48199369942696
C           15.73721546989038        8.97887982360863        1.76170167375507
N           15.75327413961064       10.10668849964838        1.99002936947725
C           16.38388403157817        7.08155511189659        0.35895421816207
C           16.36800959057162        5.72424382371588        0.09247763702178
C           16.87515744949762        2.70241268372346        0.62387901569765
C           18.14562678701129        3.30423334975801        0.90059139529336
C           19.08521886105864        2.35551575326809        0.67189215325958
N           17.03779964436534        1.38025683462821        0.28504243421669
C           18.38617777433672        1.17515334466184        0.27068122541588
C           19.03236320080063        0.00085972513122       -0.13242374563440
C           18.34162266735930       -1.16503763843149       -0.48250457332035
C           18.99043640223401       -2.35326842345293       -0.94014606626535
C           18.02471924028647       -3.29328045570469       -1.08048495970351
C           16.78947203973458       -2.67686983821258       -0.69741962964676
N           16.99660607593787       -1.35921978329835       -0.36695023569120
C           15.57574254273256       -3.34718675346199       -0.62476837784150
C           15.55032826726703       -4.80060966940766       -0.90802459980655
C           14.79444987775528       -5.30044142206257       -1.97106487358143
C           14.77078266147187       -6.65667082877301       -2.24199087088967
C           15.50162660910802       -7.54321399718206       -1.44543687757873
C           15.47643663750883       -8.94002697248321       -1.71925006635742
N           15.45583786582936      -10.06899452435239       -1.94076731037516
C           16.25716451967526       -7.04814224083290       -0.37840367819400
C           16.28180301959770       -5.68986945051821       -0.11743663976567
C           14.38077839069201       -2.71116451702175       -0.30550787915951
C           13.12042479554422       -3.38506340930692       -0.18016217570563
C           12.18443891009903       -2.42910929476835        0.02649242542124
C           12.87482211157682       -1.17486513367294        0.03909444445229
N           14.22319103106778       -1.36440524708031       -0.11885159934762
H           11.15680411452047        0.05477060565463        0.15649651900580
H           11.15922203501394        2.65604219177160        0.15676953685483
H           13.07356393817529        4.53544145638783        0.44011299305083
H           14.49844813106431        4.66875742308234        2.71642429623614
H           14.52292433270027        7.08932243021325        3.20131880932685
H           16.91038567616447        7.76062028099084       -0.30139574528063
H           16.87502926862854        5.34003410154923       -0.78537854356557
H           18.29023233553333        4.32033629335354        1.22938737545583
H           20.15657288389043        2.43304791073925        0.76294488532904
H           20.04858462600336       -2.44112379571063       -1.12678658824247
H           18.12875074867465       -4.31108848460657       -1.41935845172881
H           14.23576769814898       -4.61454123268767       -2.59777001770471
H           14.18720804856896       -7.03663172284752       -3.07234143290275
H           16.82205166926544       -7.73299334426024        0.24310677710739
H           16.85975079711707       -5.31047802056487        0.71763604707975
H           12.98291823986695       -4.45243935563356       -0.24063854710585
H           11.12023912909760       -2.54280601095496        0.15839707197853
Fe          31.60606766946828       -0.03388551438296       -0.03960452611237
C           34.99052621844330       -0.04198488651896        0.11863652921138
C           34.33486332165184       -1.25101593715014        0.22821035356233
C           35.00344177358290       -2.51070050732826        0.35485299173890
C           34.04140329544398       -3.44196802923969        0.55575981980117
C           32.78646471039704       -2.74704769235922        0.56182688656555
N           32.97735728673015       -1.41319052259409        0.32340796473852
C           31.56246598149992       -3.34978507532623        0.83208936968689
C           31.54465013344756       -4.78502352776354        1.19687793929583
C           32.21164733838523       -5.23170762545261        2.33994169396855
C           32.19033994424302       -6.56980370158441        2.68992718258203
C           31.50371246403996       -7.49149079741842        1.89395723562342
C           31.48045964912219       -8.86951243914130        2.25062245372807
N           31.46047597982356       -9.98318638294646        2.53949164115508
C           30.83947182128495       -7.05014030653421        0.74568262712938
C           30.85907851898832       -5.70949216535989        0.40546066912292
C           30.35662368662565       -2.66443958730406        0.77291832590523
C           29.08647598773738       -3.24953306227026        1.08478912820515
C           28.14662150139917       -2.31524365590251        0.80375415301062
N           30.19363362691354       -1.36340529332125        0.36057453972867
C           28.84523304244627       -1.15952324680167        0.33570611996251
C           28.19866048286068       -0.01005651406357       -0.13297924206764
C           28.88912350758549        1.13474951732059       -0.54723063458527
C           28.24012999472672        2.29595677795043       -1.06934586547611
C           29.20539995918169        3.22775848971360       -1.25890670914493
C           30.44063614164750        2.63373756152451       -0.84188407514011
N           30.23398242058760        1.33568100902041       -0.44127294281759
C           31.65399073467400        3.30777404564774       -0.80456786933097
C           31.67715970800538        4.74435137261794       -1.16364190121933
C           32.43186967538744        5.18971338409596       -2.25140699447184
C           32.45042695824821        6.52967679877621       -2.59425340263581
C           31.71550340534804        7.45458228254181       -1.84660536790050
C           31.73316698748576        8.83460174974655       -2.19579568278086
N           31.74628139085641        9.95030031642219       -2.47737579767068
C           30.96201496905277        7.01435012285862       -0.75436539315806
C           30.94255923538785        5.67188474389841       -0.42132132258443
C           32.84941146350182        2.68993304513180       -0.45305737710017
C           34.10993101860338        3.36947198192354       -0.36565132801593
C           35.04629610826007        2.42576744100066       -0.11011760565326
C           34.35596334691151        1.17400939290494       -0.02944640782567
N           33.00737053614897        1.35497040300722       -0.19521929422378
H           36.07412910275372       -0.04763073010297        0.15177363338993
H           36.07170164041968       -2.64512865059748        0.29477577144356
H           34.15765324404714       -4.50590995973680        0.68403219206577
H           32.73503428552877       -4.51777438983494        2.96579303049004
H           32.70372298171527       -6.90812450404689        3.58232683428755
H           30.30999454012524       -7.76263980498058        0.12407569660256
H           30.35203457786469       -5.37219178134634       -0.49145487080897
H           28.94223844382514       -4.24529465630743        1.47095868063472
H           27.07537150159315       -2.38740575974489        0.90025593974211
H           27.18215944576164        2.37286214164044       -1.26172345149411
H           29.10103155604027        4.22571490933610       -1.65231103040650
H           32.99319187556489        4.47353508784349       -2.84076562555264
H           33.03271429274397        6.86701939598374       -3.44369579220281
H           30.39421908486363        7.72918936474864       -0.17040932195813
H           30.36578740830368        5.33534007468078        0.43271839235867
H           34.24732814735385        4.43210934133905       -0.48308277349880
H           36.11071761730935        2.54626790834566        0.01373654448076
C           24.23031282874584       -0.00505065211154       -0.22272887982435
C           23.00071396696355       -0.00877988841157       -0.22213737581629
C           21.65837815714758       -0.00879691000524       -0.20656103404731
C           20.43363771869680       -0.00748727338576       -0.17981213388423
C           25.57265912769781       -0.00480719106448       -0.20782849692377
C           26.79739244009579       -0.00498752367648       -0.18059477623560

          :  Hamiltonian                  GFN1-xTB          :
         :: total energy            -218.758424316577 Eh    ::
         :: gradient norm              0.000438110000 Eh/a0 ::
         :: HOMO-LUMO gap              0.103188282409 eV    ::
         :: SCC energy              -222.514711788836 Eh    ::
         :: repulsion energy           3.867542969703 Eh    ::

    * Orbital Energies and Occupations

         #    Occupation            Energy/Eh            Energy/eV
      -------------------------------------------------------------
         1        2.0000           -0.7819132             -21.2769
       ...           ...                  ...                  ...
       191        2.0000           -0.4393791             -11.9561
       192        2.0000           -0.4345625             -11.8250
       193        2.0000           -0.4303976             -11.7117
       194        2.0000           -0.4092873             -11.1373
       195        2.0000           -0.4092833             -11.1372
       196        1.9999           -0.4068306             -11.0704
       197        1.9920           -0.4023975             -10.9498
       198        1.9920           -0.4023962             -10.9498
       199        1.9385           -0.4004376             -10.8965
       200        1.9365           -0.4004067             -10.8956
       201        1.9296           -0.4003044             -10.8928
       202        1.9295           -0.4003038             -10.8928
       203        1.7956           -0.3992241             -10.8634 (HOMO)
       204        0.2793           -0.3954320             -10.7603 (LUMO)
       205        0.2072           -0.3951095             -10.7515
       206                         -0.3507609              -9.5447
       207                         -0.3418132              -9.3012
       208                         -0.3418031              -9.3009
       209                         -0.3410004              -9.2791
       210                         -0.3163943              -8.6095
       211                         -0.3143440              -8.5537
       212                         -0.3139653              -8.5434
       213                         -0.3137597              -8.5378
       214                         -0.3052213              -8.3055
       ...                                ...                  ...
       430                          1.5619320              42.5023
      -------------------------------------------------------------
                  HL-Gap            0.0037921 Eh            0.1032 eV

Wiberg/Mayer (AO) data.
largest (>0.10) Wiberg bond orders for each atom

     #   Z sym  total        # sym  WBO       # sym  WBO       # sym  WBO
 ---------------------------------------------------------------------------
     1  26 Fe   3.189 --    41 N    0.678     7 N    0.671    20 N    0.670
                            27 N    0.664
     2   6 C    3.929 --    40 C    1.364     3 C    1.363    42 H    0.970
     3   6 C    3.923 --     2 C    1.363     7 N    1.208     4 C    1.173
     4   6 C    3.959 --     5 C    1.649     3 C    1.173    43 H    0.975
     5   6 C    3.961 --     4 C    1.649     6 C    1.175    44 H    0.973
     6   6 C    3.920 --     8 C    1.313     7 N    1.224     5 C    1.175
     7   7 N    3.383 --     6 C    1.224     3 C    1.208     1 Fe   0.671
     8   6 C    3.931 --    17 C    1.331     6 C    1.313     9 C    1.031
     9   6 C    3.963 --    16 C    1.385    10 C    1.385     8 C    1.031
    10   6 C    3.987 --    11 C    1.464     9 C    1.385    45 H    0.971
                            15 C    0.102
    11   6 C    3.993 --    10 C    1.464    12 C    1.364    46 H    0.972
                            16 C    0.102
    12   6 C    3.984 --    15 C    1.364    11 C    1.364    13 C    1.098
    13   6 C    3.958 --    14 N    2.820    12 C    1.098
    14   7 N    2.973 --    13 C    2.820
    15   6 C    3.993 --    16 C    1.463    12 C    1.364    47 H    0.972
                            10 C    0.102
    16   6 C    3.987 --    15 C    1.463     9 C    1.385    48 H    0.971
                            11 C    0.102
    17   6 C    3.916 --     8 C    1.331    20 N    1.201    18 C    1.179
    18   6 C    3.957 --    19 C    1.638    17 C    1.179    49 H    0.973
    19   6 C    3.959 --    18 C    1.638    21 C    1.188    50 H    0.973
    20   7 N    3.386 --    21 C    1.242    17 C    1.201     1 Fe   0.670
    21   6 C    3.903 --    22 C    1.254    20 N    1.242    19 C    1.188
    22   6 C    3.931 --    21 C    1.254    23 C    1.253   120 C    1.198
    23   6 C    3.904 --    22 C    1.253    27 N    1.242    24 C    1.189
    24   6 C    3.959 --    25 C    1.637    23 C    1.189    51 H    0.973
    25   6 C    3.957 --    24 C    1.637    26 C    1.180    52 H    0.973
    26   6 C    3.916 --    28 C    1.330    27 N    1.202    25 C    1.180
    27   7 N    3.383 --    23 C    1.242    26 C    1.202     1 Fe   0.664
    28   6 C    3.931 --    26 C    1.330    37 C    1.314    29 C    1.031
    29   6 C    3.963 --    36 C    1.385    30 C    1.385    28 C    1.031
    30   6 C    3.987 --    31 C    1.464    29 C    1.385    53 H    0.971
                            35 C    0.102
    31   6 C    3.993 --    30 C    1.464    32 C    1.364    54 H    0.972
                            36 C    0.102
    32   6 C    3.984 --    35 C    1.364    31 C    1.364    33 C    1.098
    33   6 C    3.958 --    34 N    2.820    32 C    1.098
    34   7 N    2.973 --    33 C    2.820
    35   6 C    3.993 --    36 C    1.463    32 C    1.364    55 H    0.972
                            30 C    0.102
    36   6 C    3.987 --    35 C    1.463    29 C    1.385    56 H    0.971
                            31 C    0.102
    37   6 C    3.920 --    28 C    1.314    41 N    1.224    38 C    1.174
    38   6 C    3.961 --    39 C    1.650    37 C    1.174    57 H    0.973
    39   6 C    3.959 --    38 C    1.650    40 C    1.173    58 H    0.975
    40   6 C    3.923 --     2 C    1.364    41 N    1.207    39 C    1.173
    41   7 N    3.386 --    37 C    1.224    40 C    1.207     1 Fe   0.678
    42   1 H    1.000 --     2 C    0.970
    43   1 H    0.997 --     4 C    0.975
    44   1 H    1.004 --     5 C    0.973
    45   1 H    1.003 --    10 C    0.971
    46   1 H    1.000 --    11 C    0.972
    47   1 H    1.000 --    15 C    0.972
    48   1 H    1.003 --    16 C    0.971
    49   1 H    1.004 --    18 C    0.973
    50   1 H    1.001 --    19 C    0.973
    51   1 H    1.001 --    24 C    0.973
    52   1 H    1.004 --    25 C    0.973
    53   1 H    1.003 --    30 C    0.971
    54   1 H    1.000 --    31 C    0.972
    55   1 H    1.000 --    35 C    0.972
    56   1 H    1.003 --    36 C    0.971
    57   1 H    1.004 --    38 C    0.973
    58   1 H    0.997 --    39 C    0.975
    59  26 Fe   3.190 --    99 N    0.679    65 N    0.671    78 N    0.670
                            85 N    0.664
    60   6 C    3.930 --    98 C    1.364    61 C    1.363   100 H    0.970
    61   6 C    3.923 --    60 C    1.363    65 N    1.208    62 C    1.173
    62   6 C    3.959 --    63 C    1.649    61 C    1.173   101 H    0.975
    63   6 C    3.961 --    62 C    1.649    64 C    1.175   102 H    0.973
    64   6 C    3.920 --    66 C    1.313    65 N    1.224    63 C    1.175
    65   7 N    3.383 --    64 C    1.224    61 C    1.208    59 Fe   0.671
    66   6 C    3.931 --    75 C    1.331    64 C    1.313    67 C    1.031
    67   6 C    3.963 --    68 C    1.385    74 C    1.385    66 C    1.031
    68   6 C    3.987 --    69 C    1.464    67 C    1.385   103 H    0.971
                            73 C    0.102
    69   6 C    3.993 --    68 C    1.464    70 C    1.364   104 H    0.972
                            74 C    0.102
    70   6 C    3.984 --    73 C    1.364    69 C    1.364    71 C    1.098
    71   6 C    3.958 --    72 N    2.820    70 C    1.098
    72   7 N    2.973 --    71 C    2.820
    73   6 C    3.993 --    74 C    1.463    70 C    1.364   105 H    0.972
                            68 C    0.102
    74   6 C    3.987 --    73 C    1.463    67 C    1.385   106 H    0.971
                            69 C    0.102
    75   6 C    3.916 --    66 C    1.331    78 N    1.201    76 C    1.179
    76   6 C    3.957 --    77 C    1.638    75 C    1.179   107 H    0.973
    77   6 C    3.959 --    76 C    1.638    79 C    1.188   108 H    0.973
    78   7 N    3.386 --    79 C    1.242    75 C    1.201    59 Fe   0.670
    79   6 C    3.903 --    80 C    1.254    78 N    1.242    77 C    1.188
    80   6 C    3.931 --    79 C    1.254    81 C    1.253   122 C    1.198
    81   6 C    3.904 --    80 C    1.253    85 N    1.241    82 C    1.189
    82   6 C    3.959 --    83 C    1.637    81 C    1.189   109 H    0.973
    83   6 C    3.957 --    82 C    1.637    84 C    1.180   110 H    0.973
    84   6 C    3.916 --    86 C    1.329    85 N    1.202    83 C    1.180
    85   7 N    3.383 --    81 C    1.241    84 C    1.202    59 Fe   0.664
    86   6 C    3.931 --    84 C    1.329    95 C    1.314    87 C    1.031
    87   6 C    3.963 --    94 C    1.385    88 C    1.385    86 C    1.031
    88   6 C    3.987 --    89 C    1.464    87 C    1.385   111 H    0.971
                            93 C    0.102
    89   6 C    3.993 --    88 C    1.464    90 C    1.364   112 H    0.972
                            94 C    0.102
    90   6 C    3.984 --    93 C    1.364    89 C    1.364    91 C    1.098
    91   6 C    3.958 --    92 N    2.820    90 C    1.098
    92   7 N    2.973 --    91 C    2.820
    93   6 C    3.993 --    94 C    1.463    90 C    1.364   113 H    0.972
                            88 C    0.102
    94   6 C    3.987 --    93 C    1.463    87 C    1.385   114 H    0.971
                            89 C    0.102
    95   6 C    3.920 --    86 C    1.314    99 N    1.224    96 C    1.174
    96   6 C    3.961 --    97 C    1.650    95 C    1.174   115 H    0.973
    97   6 C    3.959 --    96 C    1.650    98 C    1.173   116 H    0.975
    98   6 C    3.923 --    60 C    1.364    99 N    1.207    97 C    1.173
    99   7 N    3.386 --    95 C    1.224    98 C    1.207    59 Fe   0.679
   100   1 H    1.000 --    60 C    0.970
   101   1 H    0.997 --    62 C    0.975
   102   1 H    1.004 --    63 C    0.973
   103   1 H    1.003 --    68 C    0.971
   104   1 H    1.000 --    69 C    0.972
   105   1 H    1.000 --    73 C    0.972
   106   1 H    1.003 --    74 C    0.971
   107   1 H    1.004 --    76 C    0.973
   108   1 H    1.001 --    77 C    0.973
   109   1 H    1.001 --    82 C    0.973
   110   1 H    1.004 --    83 C    0.973
   111   1 H    1.003 --    88 C    0.971
   112   1 H    1.000 --    89 C    0.972
   113   1 H    1.000 --    93 C    0.972
   114   1 H    1.003 --    94 C    0.971
   115   1 H    1.004 --    96 C    0.973
   116   1 H    0.997 --    97 C    0.975
   117   6 C    3.915 --   118 C    2.349   121 C    1.345   120 C    0.187
   118   6 C    3.915 --   117 C    2.349   119 C    1.345   122 C    0.187
   119   6 C    3.924 --   120 C    2.431   118 C    1.345
   120   6 C    3.881 --   119 C    2.431    22 C    1.198   117 C    0.187
   121   6 C    3.924 --   122 C    2.431   117 C    1.345
   122   6 C    3.881 --   121 C    2.431    80 C    1.198   118 C    0.187
 ---------------------------------------------------------------------------

           -------------------------------------------------
          | TOTAL ENERGY             -218.758424316577 Eh   |
          | GRADIENT NORM               0.000438110000 Eh/α |
          | HOMO-LUMO GAP               0.103188282409 eV   |
           -------------------------------------------------

 * finished run on 2022/07/30 at 00:19:22.147
