   * xtb version 6.5.1 (b24c23e) compiled by 'conda@728c89f4b128' on 2022-07-12
          program call               : xtb H_C4_2.xyz --gfn 1 --opt -T 48

   ID    Z sym.   atoms
    1    6 C      1-5, 7-10, 12-17, 19-23, 38-42, 44-47, 49-54, 56-60, 75-78
    2    7 N      6, 11, 18, 24, 43, 48, 55, 61
    3    1 H      25-37, 62-74
########################################################################
[WARNING] Please study the warnings concerning your input carefully
-1- prog_main_parseArguments: Unknown option '-T' provided
########################################################################

          :  Hamiltonian                  GFN1-xTB          :
 * total energy  :  -132.1444760 Eh     change       -0.3046807E-10 Eh
 * total energy  :  -132.2859999 Eh     change       -0.1415239E+00 Eh
 * total energy  :  -132.3474566 Eh     change       -0.6145671E-01 Eh
 * total energy  :  -132.3694989 Eh     change       -0.2204228E-01 Eh
 * total energy  :  -132.3787767 Eh     change       -0.9277740E-02 Eh
 * total energy  :  -132.3804147 Eh     change       -0.1638027E-02 Eh
 * total energy  :  -132.3839745 Eh     change       -0.3559785E-02 Eh
 * total energy  :  -132.3849095 Eh     change       -0.9350161E-03 Eh
 * total energy  :  -132.3861215 Eh     change       -0.1212028E-02 Eh
 * total energy  :  -132.3867154 Eh     change       -0.5938951E-03 Eh
 * total energy  :  -132.3880518 Eh     change       -0.2692260E-03 Eh
 * total energy  :  -132.3882549 Eh     change       -0.2031112E-03 Eh
 * total energy  :  -132.3883675 Eh     change       -0.1125366E-03 Eh
 * total energy  :  -132.3884175 Eh     change       -0.5007042E-04 Eh
 * total energy  :  -132.3884501 Eh     change       -0.3257416E-04 Eh
 * total energy  :  -132.3884678 Eh     change       -0.1767256E-04 Eh
 * total energy  :  -132.3884842 Eh     change       -0.1643725E-04 Eh
 * total energy  :  -132.3884909 Eh     change       -0.6636828E-05 Eh
 * total energy  :  -132.3884926 Eh     change       -0.1721278E-05 Eh
   *** GEOMETRY OPTIMIZATION CONVERGED AFTER 22 ITERATIONS ***

 final structure:
================
78
 xtb: 6.5.1 (b24c23e)
C            4.34808839188116       -0.07954943480759        0.00933395840141
C            4.96545242445215       -1.32198172392606       -0.05877518767345
C            4.34306397798603       -2.60163787690401       -0.12864752591504
C            5.32880886577304       -3.54643641587224       -0.18291376399416
C            6.58445929583074       -2.87439482748552       -0.14657341485656
N            6.31399422635736       -1.53833047352867       -0.07287954226379
C            7.84953754057715       -3.44910907165964       -0.17479017336016
C            9.07221666940777       -2.79414678255047       -0.13420721837575
C           10.34820672252042       -3.48681578142507       -0.16140158331332
C           11.30086629508278       -2.53294602995828       -0.10686627984658
N            9.26950723344274       -1.44964267697986       -0.06509792348125
C           10.60286162869588       -1.26110705490703       -0.04866078228661
C           11.26198209453262       -0.01578941601802        0.00803142512893
C           10.61961789061840        1.23547840896353        0.05920383630239
C           11.23729460348772        2.51415868780229        0.11578630315247
C           10.24801907276931        3.45768148190654        0.15733948991442
C            8.99646388757714        2.78138765306013        0.12808866535266
N            9.27345750326772        1.44229057678273        0.06816577426744
C            7.73211197837076        3.35652779486522        0.15719125139098
C            6.50903822239628        2.69809567764185        0.13249130649324
C            5.22673508266965        3.38413119030224        0.17100486171357
C            4.27997773824361        2.42512897993751        0.13215145223224
C            4.98484559593080        1.15455735136466        0.06850266751923
N            6.32355374908434        1.35839352370398        0.07140574712526
H            3.26322448563270       -0.08169014347477        0.01372036281547
H            3.27671183471773       -2.76261127567329       -0.13613763395797
H            5.21107546628845       -4.61682943891878       -0.24272588110304
H            7.01430461583890       -0.80545869436749       -0.03320048949526
H            7.87519162839019       -4.53256259597823       -0.23309438477083
H           10.46533599686157       -4.55789092593997       -0.21462125560080
H           12.37321776275514       -2.64789855302829       -0.10585992362940
H           12.30298939521628        2.67812095493816        0.12332864910061
H           10.36325254105769        4.52880744655054        0.20491544905650
H            8.57567212009655        0.70635491123921        0.03614427520729
H            7.70751378252393        4.44038318138161        0.20604199932922
H            5.10439858065338        4.45493434835870        0.22101956030415
H            3.20649018189549        2.53243096552445        0.14315960815890
C           24.77887891958818        0.07541929807687       -0.03130099969145
C           24.16144285722049        1.30085440572822       -0.24688161805665
C           24.78369848374805        2.56153217583003       -0.47770539780909
C           23.79792357122300        3.49489778200316       -0.63374115001061
C           22.54237602170052        2.83428036483928       -0.50401312416573
N           22.81293898876948        1.51640661384571       -0.27242130286490
C           21.27730365137091        3.40273331750313       -0.59323469099247
C           20.05470119548418        2.75793387197225       -0.47053356786800
C           18.77863143178003        3.44171710529194       -0.58361933542200
C           17.82607086575722        2.50123918681906       -0.41469981808135
N           19.85755702931169        1.43210493128455       -0.23665487879789
C           18.52422945837826        1.24665211405264       -0.19843200584418
C           17.86492340823744        0.01860825337247        0.01527736364537
C           18.50716943058077       -1.21509563430505        0.23084133450721
C           17.88973041119525       -2.47483084839238        0.45785662243577
C           18.87919981755133       -3.40391242406519        0.62641572268514
C           20.13062527480878       -2.73755675756806        0.50600981796507
N           19.85338686140271       -1.41859852928736        0.26737236420952
C           21.39507082736377       -3.30417372165509        0.60780160997408
C           22.61808896708033       -2.65674060449196        0.48500015135838
C           23.90042225846125       -3.33374719357255        0.60211255958710
C           24.84713078669365       -2.39106101877077        0.42149000108732
C           24.14220512947545       -1.13911732117369        0.19576038201533
N           22.80352540269996       -1.33793444462767        0.24142217823320
H           25.86371082043663        0.07567206167687       -0.04102312202912
H           25.84998781467497        2.71844138979618       -0.51623160538808
H           23.91554605320984        4.55023183699181       -0.82245898099360
H           22.11277998874117        0.79485705490641       -0.13729314589851
H           21.25156296185905        4.47127518442264       -0.78160511450892
H           18.66138864419852        4.49808605969177       -0.76826076924633
H           16.75367996449976        2.61487333584932       -0.42987879730961
H           16.82408549390581       -2.63663733348370        0.48711443156013
H           18.76415973392750       -4.45896043035130        0.81744011781406
H           20.55093823390270       -0.69340068221916        0.13681205583047
H           21.41977980709899       -4.37141938161694        0.80302335755931
H           24.02279846684549       -4.38802565985413        0.79603227048242
H           25.92061550383991       -2.49821895884501        0.43407694112281
C           13.88884027206173       -0.00634628527849        0.01377813569817
C           12.66676349123681       -0.00848167124304        0.01257845584903
C           15.23812981567394        0.00044654213194        0.01578650682486
C           16.46014080112526        0.01155707380533        0.01604336548944

          :  Hamiltonian                  GFN1-xTB          :
         :: total energy            -132.388492583941 Eh    ::
         :: gradient norm              0.000411771080 Eh/a0 ::
         :: HOMO-LUMO gap              1.048208318777 eV    ::
         :: SCC energy              -134.597146117115 Eh    ::
         :: repulsion energy           2.268836954771 Eh    ::

    * Orbital Energies and Occupations

         #    Occupation            Energy/Eh            Energy/eV
      -------------------------------------------------------------
         1        2.0000           -0.8030928             -21.8533
       ...           ...                  ...                  ...
       109        2.0000           -0.4249538             -11.5636
       110        2.0000           -0.4222347             -11.4896
       111        2.0000           -0.4198572             -11.4249
       112        2.0000           -0.4197131             -11.4210
       113        2.0000           -0.4180900             -11.3768
       114        2.0000           -0.4156675             -11.3109
       115        2.0000           -0.4154490             -11.3049
       116        2.0000           -0.4153952             -11.3035
       117        2.0000           -0.4152695             -11.3001
       118        2.0000           -0.3983711             -10.8402
       119        2.0000           -0.3982072             -10.8358
       120        2.0000           -0.3905950             -10.6286
       121        2.0000           -0.3791788             -10.3180 (HOMO)
       122                         -0.3406578              -9.2698 (LUMO)
       123                         -0.3303498              -8.9893
       124                         -0.3301322              -8.9834
       125                         -0.3270755              -8.9002
       126                         -0.2976998              -8.1008
       127                         -0.2897737              -7.8851
       128                         -0.2587640              -7.0413
       129                         -0.2423809              -6.5955
       130                         -0.2296810              -6.2499
       131                         -0.2281057              -6.2071
       132                         -0.2115091              -5.7555
       ...                                ...                  ...
       260                          1.5184612              41.3194
      -------------------------------------------------------------
                  HL-Gap            0.0385209 Eh            1.0482 eV

Wiberg/Mayer (AO) data.
largest (>0.10) Wiberg bond orders for each atom

     #   Z sym  total        # sym  WBO       # sym  WBO       # sym  WBO
 ---------------------------------------------------------------------------
     1   6 C    3.930 --    23 C    1.363     2 C    1.350    25 H    0.972
     2   6 C    3.903 --     1 C    1.350     3 C    1.225     6 N    1.172
     3   6 C    3.954 --     4 C    1.602     2 C    1.225    26 H    0.977
     4   6 C    3.958 --     3 C    1.602     5 C    1.226    27 H    0.977
     5   6 C    3.897 --     7 C    1.343     4 C    1.226     6 N    1.174
     6   7 N    3.471 --     5 C    1.174     2 C    1.172    28 H    0.874
     7   6 C    3.945 --     8 C    1.378     5 C    1.343    29 H    0.971
     8   6 C    3.916 --     7 C    1.378    11 N    1.279     9 C    1.119
     9   6 C    3.965 --    10 C    1.717     8 C    1.119    30 H    0.976
    10   6 C    3.964 --     9 C    1.717    12 C    1.124    31 H    0.975
    11   7 N    3.027 --    12 C    1.352     8 C    1.279
    12   6 C    3.910 --    11 N    1.352    13 C    1.253    10 C    1.124
    13   6 C    3.942 --    14 C    1.254    12 C    1.253    76 C    1.191
    14   6 C    3.886 --    13 C    1.254    15 C    1.245    18 N    1.192
    15   6 C    3.959 --    16 C    1.589    14 C    1.245    32 H    0.975
    16   6 C    3.953 --    15 C    1.589    17 C    1.233    33 H    0.977
    17   6 C    3.899 --    19 C    1.349    16 C    1.233    18 N    1.162
    18   7 N    3.476 --    14 C    1.192    17 C    1.162    34 H    0.873
    19   6 C    3.930 --    20 C    1.365    17 C    1.349    35 H    0.971
    20   6 C    3.930 --    19 C    1.365    24 N    1.308    21 C    1.112
    21   6 C    3.967 --    22 C    1.729    20 C    1.112    36 H    0.976
    22   6 C    3.966 --    21 C    1.729    23 C    1.113    37 H    0.976
    23   6 C    3.929 --     1 C    1.363    24 N    1.309    22 C    1.113
    24   7 N    3.016 --    23 C    1.309    20 C    1.308
    25   1 H    1.002 --     1 C    0.972
    26   1 H    0.998 --     3 C    0.977
    27   1 H    0.998 --     4 C    0.977
    28   1 H    0.986 --     6 N    0.874
    29   1 H    1.002 --     7 C    0.971
    30   1 H    0.998 --     9 C    0.976
    31   1 H    1.003 --    10 C    0.975
    32   1 H    1.002 --    15 C    0.975
    33   1 H    0.998 --    16 C    0.977
    34   1 H    0.987 --    18 N    0.873
    35   1 H    1.002 --    19 C    0.971
    36   1 H    0.998 --    21 C    0.976
    37   1 H    0.998 --    22 C    0.976
    38   6 C    3.930 --    60 C    1.363    39 C    1.350    62 H    0.972
    39   6 C    3.903 --    38 C    1.350    40 C    1.225    43 N    1.172
    40   6 C    3.954 --    41 C    1.602    39 C    1.225    63 H    0.977
    41   6 C    3.958 --    40 C    1.602    42 C    1.226    64 H    0.977
    42   6 C    3.897 --    44 C    1.343    41 C    1.226    43 N    1.174
    43   7 N    3.471 --    42 C    1.174    39 C    1.172    65 H    0.874
    44   6 C    3.945 --    45 C    1.378    42 C    1.343    66 H    0.971
    45   6 C    3.916 --    44 C    1.378    48 N    1.279    46 C    1.119
    46   6 C    3.965 --    47 C    1.717    45 C    1.119    67 H    0.976
    47   6 C    3.964 --    46 C    1.717    49 C    1.124    68 H    0.975
    48   7 N    3.027 --    49 C    1.352    45 C    1.279
    49   6 C    3.910 --    48 N    1.352    50 C    1.253    47 C    1.124
    50   6 C    3.942 --    51 C    1.254    49 C    1.253    78 C    1.191
    51   6 C    3.886 --    50 C    1.254    52 C    1.245    55 N    1.192
    52   6 C    3.959 --    53 C    1.589    51 C    1.245    69 H    0.975
    53   6 C    3.953 --    52 C    1.589    54 C    1.233    70 H    0.977
    54   6 C    3.899 --    56 C    1.349    53 C    1.233    55 N    1.162
    55   7 N    3.476 --    51 C    1.192    54 C    1.162    71 H    0.873
    56   6 C    3.930 --    57 C    1.365    54 C    1.349    72 H    0.971
    57   6 C    3.930 --    56 C    1.365    61 N    1.308    58 C    1.112
    58   6 C    3.967 --    59 C    1.729    57 C    1.112    73 H    0.976
    59   6 C    3.966 --    58 C    1.729    60 C    1.113    74 H    0.976
    60   6 C    3.929 --    38 C    1.363    61 N    1.309    59 C    1.113
    61   7 N    3.016 --    60 C    1.309    57 C    1.308
    62   1 H    1.002 --    38 C    0.972
    63   1 H    0.998 --    40 C    0.977
    64   1 H    0.998 --    41 C    0.977
    65   1 H    0.986 --    43 N    0.874
    66   1 H    1.002 --    44 C    0.971
    67   1 H    0.998 --    46 C    0.976
    68   1 H    1.003 --    47 C    0.975
    69   1 H    1.002 --    52 C    0.975
    70   1 H    0.998 --    53 C    0.977
    71   1 H    0.987 --    55 N    0.873
    72   1 H    1.002 --    56 C    0.971
    73   1 H    0.998 --    58 C    0.976
    74   1 H    0.998 --    59 C    0.976
    75   6 C    3.934 --    76 C    2.475    77 C    1.309
    76   6 C    3.925 --    75 C    2.475    13 C    1.191    78 C    0.199
    77   6 C    3.934 --    78 C    2.475    75 C    1.309
    78   6 C    3.925 --    77 C    2.475    50 C    1.191    76 C    0.199
 ---------------------------------------------------------------------------

           -------------------------------------------------
          | TOTAL ENERGY             -132.388492583941 Eh   |
          | GRADIENT NORM               0.000411771080 Eh/α |
          | HOMO-LUMO GAP               1.048208318777 eV   |
           -------------------------------------------------

 * finished run on 2022/07/26 at 14:18:40.999
