   * xtb version 6.5.1 (b24c23e) compiled by 'conda@728c89f4b128' on 2022-07-12
          program call               : xtb Cu_m-CP_C4_2.xyz --gfn 1 --opt -T 48

   ID    Z sym.   atoms
    1   29 Cu     1, 63
    2    6 C      2-6, 8-12, 15-20, 22-27, 29-35, 38-42, 64-68, 70-74, 77-82,
                  84-89, 91-97, 100-104, 125-128
    3    7 N      7, 21, 28, 43, 69, 83, 90, 105
    4    8 O      13, 14, 36, 37, 75, 76, 98, 99
    5    1 H      44-62, 106-124
########################################################################
[WARNING] Please study the warnings concerning your input carefully
-1- prog_main_parseArguments: Unknown option '-T' provided
########################################################################

          :  Hamiltonian                  GFN1-xTB          :
 * total energy  :  -243.4408051 Eh     change       -0.2675620E-09 Eh
 * total energy  :  -244.5423570 Eh     change       -0.1101552E+01 Eh
 * total energy  :  -244.6754766 Eh     change       -0.1331196E+00 Eh
 * total energy  :  -244.7474103 Eh     change       -0.7193372E-01 Eh
 * total energy  :  -244.7726269 Eh     change       -0.2521661E-01 Eh
 * total energy  :  -244.7851420 Eh     change       -0.1251512E-01 Eh
 * total energy  :  -244.7923173 Eh     change       -0.7175262E-02 Eh
 * total energy  :  -244.7975099 Eh     change       -0.5192562E-02 Eh
 * total energy  :  -244.8014711 Eh     change       -0.3961276E-02 Eh
 * total energy  :  -244.8043088 Eh     change       -0.2837700E-02 Eh
 * total energy  :  -244.8131699 Eh     change       -0.1930550E-04 Eh
 * total energy  :  -244.8131785 Eh     change       -0.8602303E-05 Eh
 * total energy  :  -244.8131876 Eh     change       -0.9076132E-05 Eh
 * total energy  :  -244.8132001 Eh     change       -0.1248731E-04 Eh
 * total energy  :  -244.8132087 Eh     change       -0.8633596E-05 Eh
 * total energy  :  -244.8132200 Eh     change       -0.1126435E-04 Eh
 * total energy  :  -244.8132244 Eh     change       -0.4375018E-05 Eh
 * total energy  :  -244.8132293 Eh     change       -0.4889434E-05 Eh
 * total energy  :  -244.8132340 Eh     change       -0.4767855E-05 Eh
   *** GEOMETRY OPTIMIZATION CONVERGED AFTER 41 ITERATIONS ***

 final structure:
================
128
 xtb: 6.5.1 (b24c23e)
Cu          15.73956447914306        0.02146772371410        0.00795051187654
C           12.33716831136688        0.00968421353238        0.17027629668006
C           12.96369726984612        1.24041000907429        0.29491137835544
C           12.28004444616590        2.49311518312364        0.44735200713735
C           13.23195384089000        3.45435996579220        0.53553153563533
C           14.50746952749667        2.79534396921299        0.44956312952396
N           14.31289102151967        1.45312004041518        0.29552894774428
C           15.74834430802307        3.43481167012691        0.49717473403917
C           15.75191219267399        4.90422645226379        0.70860552265484
C           15.22029392525767        5.45211896490071        1.87252555083125
C           15.22349847029854        6.83239028563042        2.07056573665548
C           14.64428526332139        7.35487388362916        3.33350987192849
O           14.70321360859142        8.69082124278053        3.43813574783365
O           14.16066926958062        6.66690097781685        4.19592184245712
C           15.75886199736094        7.67704173125620        1.09814348291937
C           16.28727534658912        7.13410261062355       -0.06249552973702
C           16.28645986397382        5.76003671489048       -0.25741684672728
C           16.98542165321564        2.80040365872173        0.36570356768484
C           18.25983142605368        3.45111386149680        0.48255146935932
C           19.21067429822165        2.49870867667362        0.30686854952568
N           17.18055050437835        1.46512771591849        0.13234019953784
C           18.52539876941256        1.26028173376626        0.08861045096061
C           19.16642980042617        0.02991118907899       -0.13926653603129
C           18.51408310402703       -1.20231081116322       -0.32099079604660
C           19.18481846456179       -2.43653891177830       -0.59986383598488
C           18.22729597060621       -3.39354287702959       -0.69772841245813
C           16.96423815081486       -2.75047193408339       -0.46893960196959
N           17.17151324850826       -1.41404500323840       -0.25233697747349
C           15.72445341819110       -3.39301341232698       -0.48402204856959
C           15.71563799144656       -4.86344334422040       -0.68891623969795
C           16.34547074799163       -5.71065454174663        0.22549697048168
C           16.33117793350919       -7.08636564870485        0.04143314802790
C           15.68998206015094       -7.63357226553729       -1.05722089496800
C           15.05743766613567       -6.79759925775675       -1.97875324027068
C           14.37813037841049       -7.42236372149561       -3.14116388645792
O           13.78062431626628       -6.53801954164228       -3.95363849495349
O           14.34940056113012       -8.60734645892733       -3.35526802208550
C           15.07107320763286       -5.41659895437774       -1.79335341183971
C           14.48947802970982       -2.76151487430172       -0.31744094580559
C           13.21646381011730       -3.42963617523896       -0.27598317653850
C           12.27078160057378       -2.47470015553090       -0.09676176763119
C           12.95701991403770       -1.21699540617123       -0.01484317622319
N           14.30096784888641       -1.42034668251328       -0.14833066547377
H           11.25336327690204        0.00582474765408        0.22403628805354
H           11.20793960595473        2.60829518601884        0.47297661973503
H           13.08998746347511        4.51797946870174        0.63950523225814
H           14.81144608385794        4.81014908459870        2.64518056042513
H           14.30689271013762        8.95097064751903        4.28553648183792
H           15.75895263911354        8.74918511869406        1.25283397302015
H           16.70210455392444        7.78486760356749       -0.82396532344965
H           16.69013504655142        5.34300461833219       -1.17331315084704
H           18.40518322312213        4.49914665326933        0.68906854165308
H           20.28255914138528        2.61409102724382        0.32830416300989
H           20.25158409104868       -2.54570116186843       -0.71325103473726
H           18.35991369625681       -4.44020172240196       -0.91916311511316
H           16.83545864608994       -5.28533840692588        1.09423513553708
H           16.82068865392372       -7.73141637704786        0.76217492304981
H           15.66789930774032       -8.70583631887316       -1.21570162443587
H           13.36134452156150       -7.02375712681808       -4.68237535986880
H           14.59106714675137       -4.76916607520173       -2.51764147901928
H           13.07231431346530       -4.49465451809088       -0.36127542017621
H           11.20232200660822       -2.59786256365997       -0.01544859391871
Cu          29.19951223410727       -0.02250878791060        0.00046631132968
C           32.60191559537434       -0.06381554993420        0.15904687461240
C           31.97571003891649       -1.26808956086630       -0.12441105821864
C           32.65961976547362       -2.50199261525934       -0.38828145353694
C           31.70793020134418       -3.43950025597715       -0.61907937593530
C           30.43227431650020       -2.78854430531261       -0.48633040916659
N           30.62657010843913       -1.46951029500892       -0.19398959917252
C           29.19152373459827       -3.40852704464609       -0.65114565643940
C           29.18837266766766       -4.86648863994852       -0.93072699426748
C           29.71999652954297       -5.76377188928563       -0.00888872721666
C           29.71712765589945       -7.13317316579622       -0.27155509018660
C           30.29629621338851       -8.03855651466973        0.75226854574167
O           30.23811643024992       -9.33562851557230        0.41571199051499
O           30.78039675409713       -7.66916073372450        1.79133347009991
C           29.18205526893366       -7.61480370916817       -1.46628317691199
C           28.65381601688766       -6.72328237411885       -2.38672728245823
C           28.65436299510363       -5.36071394503467       -2.12315625142695
C           27.95430844166377       -2.76612590945968       -0.56899399020089
C           26.68004623620653       -3.41957213369773       -0.67153767529412
C           25.72894506492444       -2.46234852791558       -0.52605020045253
N           27.75882964766703       -1.42798359246404       -0.35304137873389
C           26.41389345508177       -1.22049382927668       -0.32726552351509
C           25.77262619050672        0.01660491966624       -0.14050041516306
C           26.42460264644301        1.24090147526237        0.08970971871603
C           25.75365716239300        2.49855329056292        0.22808026187721
C           26.71103134533283        3.43549381466190        0.44679339266409
C           27.97423798912373        2.75322218283179        0.45351722561539
N           27.76717830155610        1.41904692083060        0.22328619256491
C           29.21393490086111        3.36585008726352        0.64845591569574
C           29.22227835614121        4.82269331108446        0.93430779074362
C           28.59147067630742        5.32484867356749        2.07474858410521
C           28.60484040140795        6.68530543365362        2.34967769717959
C           29.24607099863469        7.56138000145279        1.49005895868438
C           29.87956506558177        7.07220067453791        0.34656656764468
C           30.55858895381845        8.04256361111304       -0.54805992140177
O           31.15612551624348        7.47228712205738       -1.60488415052880
O           30.58722198373364        9.23248588618907       -0.36320092819368
C           29.86692716937343        5.70626081391935        0.07120387243756
C           30.44901816162910        2.71472391321708        0.60030407691374
C           31.72181600227958        3.33295275306401        0.85802951922713
C           32.66768519098305        2.37187963308544        0.71653529515789
C           31.98176460806583        1.15614355483795        0.38345989773985
N           30.63781929605060        1.39177157957856        0.32278658397734
H           33.68569751462257       -0.07749510301608        0.21165634817833
H           33.73174079134662       -2.61917539161592       -0.40084858992020
H           31.85020569264964       -4.47887194164970       -0.86750307665815
H           30.12828822851702       -5.40862065584560        0.93102782046419
H           30.63505990424551       -9.85759614280362        1.13184519047904
H           29.18242118802285       -8.67881260071491       -1.66963778365885
H           28.23939318301915       -7.09035939812515       -3.31889817341051
H           28.25084279462730       -4.66799836911102       -2.85325981166158
H           26.53500898287209       -4.47752401386643       -0.81931104514065
H           24.65706545562318       -2.57854374410845       -0.54345892242502
H           24.68685110175264        2.63851308024940        0.15679877378930
H           26.57823595779713        4.49725064575395        0.57790268228804
H           28.10144470056706        4.63901635827785        2.75680919891493
H           28.11457114462973        7.05959834660194        3.24115506338329
H           29.26737584900217        8.62669040266846        1.69010233232138
H           31.57531825009281        8.16948962346268       -2.13495840894716
H           30.34771439520037        5.33088586637130       -0.82440896735617
H           31.86565160050812        4.36754863998438        1.12493009228858
H           33.73606625891120        2.46186859112119        0.83422334409996
C           21.79429177997461        0.03662741706374       -0.19396521305084
C           20.57269879359495        0.03087060755578       -0.17689967109022
C           23.14466001185083        0.03268759070882       -0.19332127256275
C           24.36635198755553        0.02809305231696       -0.17727435707262

          :  Hamiltonian                  GFN1-xTB          :
         :: total energy            -244.813234041148 Eh    ::
         :: gradient norm              0.000772522203 Eh/a0 ::
         :: HOMO-LUMO gap              0.002321966636 eV    ::
         :: SCC energy              -248.274984405451 Eh    ::
         :: repulsion energy           3.575752955733 Eh    ::

    * Orbital Energies and Occupations

         #    Occupation            Energy/Eh            Energy/eV
      -------------------------------------------------------------
         1        2.0000           -0.8333205             -22.6758
       ...           ...                  ...                  ...
       206        2.0000           -0.4174203             -11.3586
       207        2.0000           -0.4174084             -11.3583
       208        2.0000           -0.4142861             -11.2733
       209        2.0000           -0.4142798             -11.2731
       210        2.0000           -0.4141603             -11.2699
       211        2.0000           -0.4141042             -11.2683
       212        2.0000           -0.4140920             -11.2680
       213        2.0000           -0.4140578             -11.2671
       214        2.0000           -0.4018950             -10.9361
       215        2.0000           -0.4018913             -10.9360
       216        2.0000           -0.3997664             -10.8782
       217        2.0000           -0.3873529             -10.5404
       218        1.0225           -0.3617876              -9.8447 (HOMO)
       219        0.9775           -0.3617023              -9.8424 (LUMO)
       220                         -0.3442334              -9.3671
       221                         -0.3350403              -9.1169
       222                         -0.3350387              -9.1169
       223                         -0.3302230              -8.9858
       224                         -0.3119876              -8.4896
       225                         -0.3115537              -8.4778
       226                         -0.3108283              -8.4581
       227                         -0.3107884              -8.4570
       228                         -0.3030343              -8.2460
       229                         -0.2963647              -8.0645
       ...                                ...                  ...
       446                          1.5125513              41.1586
      -------------------------------------------------------------
                  HL-Gap            0.0000853 Eh            0.0023 eV

Wiberg/Mayer (AO) data.
largest (>0.10) Wiberg bond orders for each atom

     #   Z sym  total        # sym  WBO       # sym  WBO       # sym  WBO
 ---------------------------------------------------------------------------
     1  29 Cu   2.181 --     7 N    0.505    43 N    0.504    21 N    0.501
                            28 N    0.500
     2   6 C    3.930 --     3 C    1.362    42 C    1.361    44 H    0.971
     3   6 C    3.916 --     2 C    1.362     7 N    1.229     4 C    1.169
     4   6 C    3.955 --     5 C    1.658     3 C    1.169    45 H    0.975
     5   6 C    3.958 --     4 C    1.658     6 C    1.170    46 H    0.973
     6   6 C    3.914 --     8 C    1.321     7 N    1.239     5 C    1.170
     7   7 N    3.244 --     6 C    1.239     3 C    1.229     1 Cu   0.505
     8   6 C    3.933 --    18 C    1.325     6 C    1.321     9 C    1.026
     9   6 C    3.988 --    10 C    1.408    17 C    1.388     8 C    1.026
                            15 C    0.102
    10   6 C    3.984 --     9 C    1.408    11 C    1.396    47 H    0.968
                            16 C    0.104
    11   6 C    3.988 --    10 C    1.396    15 C    1.391    12 C    1.005
    12   6 C    3.836 --    14 O    1.692    13 O    1.089    11 C    1.005
    13   8 O    2.098 --    12 C    1.089    48 H    0.838    14 O    0.129
    14   8 O    1.961 --    12 C    1.692    13 O    0.129
    15   6 C    3.987 --    16 C    1.448    11 C    1.391    49 H    0.971
                             9 C    0.102
    16   6 C    3.994 --    15 C    1.448    17 C    1.441    50 H    0.972
                            10 C    0.104
    17   6 C    3.987 --    16 C    1.441     9 C    1.388    51 H    0.973
    18   6 C    3.909 --     8 C    1.325    21 N    1.224    19 C    1.179
    19   6 C    3.954 --    20 C    1.643    18 C    1.179    52 H    0.973
    20   6 C    3.956 --    19 C    1.643    22 C    1.187    53 H    0.974
    21   7 N    3.247 --    22 C    1.256    18 C    1.224     1 Cu   0.501
    22   6 C    3.898 --    23 C    1.261    21 N    1.256    20 C    1.187
    23   6 C    3.939 --    22 C    1.261    24 C    1.260   126 C    1.185
    24   6 C    3.898 --    23 C    1.260    28 N    1.257    25 C    1.187
    25   6 C    3.956 --    26 C    1.642    24 C    1.187    54 H    0.974
    26   6 C    3.954 --    25 C    1.642    27 C    1.179    55 H    0.973
    27   6 C    3.909 --    29 C    1.326    28 N    1.223    26 C    1.179
    28   7 N    3.247 --    24 C    1.257    27 C    1.223     1 Cu   0.500
    29   6 C    3.933 --    27 C    1.326    39 C    1.320    30 C    1.027
    30   6 C    3.988 --    38 C    1.406    31 C    1.389    29 C    1.027
                            33 C    0.102
    31   6 C    3.987 --    32 C    1.439    30 C    1.389    56 H    0.973
    32   6 C    3.994 --    33 C    1.451    31 C    1.439    57 H    0.972
                            38 C    0.104
    33   6 C    3.986 --    32 C    1.451    34 C    1.387    58 H    0.969
                            30 C    0.102
    34   6 C    3.988 --    38 C    1.399    33 C    1.387    35 C    1.005
    35   6 C    3.836 --    37 O    1.692    36 O    1.089    34 C    1.005
    36   8 O    2.098 --    35 C    1.089    59 H    0.838    37 O    0.129
    37   8 O    1.961 --    35 C    1.692    36 O    0.129
    38   6 C    3.985 --    30 C    1.406    34 C    1.399    60 H    0.969
                            32 C    0.104
    39   6 C    3.914 --    29 C    1.320    43 N    1.240    40 C    1.171
    40   6 C    3.958 --    41 C    1.657    39 C    1.171    61 H    0.973
    41   6 C    3.955 --    40 C    1.657    42 C    1.170    62 H    0.975
    42   6 C    3.916 --     2 C    1.361    43 N    1.230    41 C    1.170
    43   7 N    3.243 --    39 C    1.240    42 C    1.230     1 Cu   0.504
    44   1 H    1.001 --     2 C    0.971
    45   1 H    0.997 --     4 C    0.975
    46   1 H    1.004 --     5 C    0.973
    47   1 H    1.007 --    10 C    0.968
    48   1 H    0.873 --    13 O    0.838
    49   1 H    1.005 --    15 C    0.971
    50   1 H    1.002 --    16 C    0.972
    51   1 H    1.005 --    17 C    0.973
    52   1 H    1.004 --    19 C    0.973
    53   1 H    1.002 --    20 C    0.974
    54   1 H    1.002 --    25 C    0.974
    55   1 H    1.004 --    26 C    0.973
    56   1 H    1.005 --    31 C    0.973
    57   1 H    1.002 --    32 C    0.972
    58   1 H    1.005 --    33 C    0.969
    59   1 H    0.873 --    36 O    0.838
    60   1 H    1.008 --    38 C    0.969
    61   1 H    1.004 --    40 C    0.973
    62   1 H    0.997 --    41 C    0.975
    63  29 Cu   2.181 --    69 N    0.505   105 N    0.504    83 N    0.501
                            90 N    0.500
    64   6 C    3.930 --    65 C    1.362   104 C    1.361   106 H    0.971
    65   6 C    3.916 --    64 C    1.362    69 N    1.229    66 C    1.169
    66   6 C    3.955 --    67 C    1.658    65 C    1.169   107 H    0.975
    67   6 C    3.958 --    66 C    1.658    68 C    1.170   108 H    0.973
    68   6 C    3.914 --    70 C    1.321    69 N    1.240    67 C    1.170
    69   7 N    3.244 --    68 C    1.240    65 C    1.229    63 Cu   0.505
    70   6 C    3.933 --    80 C    1.325    68 C    1.321    71 C    1.026
    71   6 C    3.988 --    72 C    1.408    79 C    1.388    70 C    1.026
                            77 C    0.102
    72   6 C    3.984 --    71 C    1.408    73 C    1.396   109 H    0.968
                            78 C    0.104
    73   6 C    3.988 --    72 C    1.396    77 C    1.391    74 C    1.005
    74   6 C    3.836 --    76 O    1.692    75 O    1.089    73 C    1.005
    75   8 O    2.098 --    74 C    1.089   110 H    0.838    76 O    0.129
    76   8 O    1.961 --    74 C    1.692    75 O    0.129
    77   6 C    3.987 --    78 C    1.448    73 C    1.391   111 H    0.971
                            71 C    0.102
    78   6 C    3.994 --    77 C    1.448    79 C    1.441   112 H    0.972
                            72 C    0.104
    79   6 C    3.987 --    78 C    1.441    71 C    1.388   113 H    0.973
    80   6 C    3.909 --    70 C    1.325    83 N    1.224    81 C    1.179
    81   6 C    3.954 --    82 C    1.643    80 C    1.179   114 H    0.973
    82   6 C    3.956 --    81 C    1.643    84 C    1.187   115 H    0.974
    83   7 N    3.247 --    84 C    1.256    80 C    1.224    63 Cu   0.501
    84   6 C    3.898 --    85 C    1.261    83 N    1.256    82 C    1.187
    85   6 C    3.939 --    84 C    1.261    86 C    1.260   128 C    1.185
    86   6 C    3.898 --    85 C    1.260    90 N    1.257    87 C    1.187
    87   6 C    3.956 --    88 C    1.642    86 C    1.187   116 H    0.974
    88   6 C    3.954 --    87 C    1.642    89 C    1.179   117 H    0.973
    89   6 C    3.909 --    91 C    1.326    90 N    1.223    88 C    1.179
    90   7 N    3.247 --    86 C    1.257    89 C    1.223    63 Cu   0.500
    91   6 C    3.933 --    89 C    1.326   101 C    1.320    92 C    1.027
    92   6 C    3.988 --   100 C    1.406    93 C    1.389    91 C    1.027
                            95 C    0.102
    93   6 C    3.987 --    94 C    1.439    92 C    1.389   118 H    0.973
    94   6 C    3.994 --    95 C    1.451    93 C    1.439   119 H    0.972
                           100 C    0.104
    95   6 C    3.986 --    94 C    1.451    96 C    1.387   120 H    0.969
                            92 C    0.102
    96   6 C    3.988 --   100 C    1.399    95 C    1.387    97 C    1.005
    97   6 C    3.836 --    99 O    1.692    98 O    1.089    96 C    1.005
    98   8 O    2.098 --    97 C    1.089   121 H    0.838    99 O    0.129
    99   8 O    1.961 --    97 C    1.692    98 O    0.129
   100   6 C    3.985 --    92 C    1.406    96 C    1.399   122 H    0.969
                            94 C    0.104
   101   6 C    3.914 --    91 C    1.320   105 N    1.240   102 C    1.171
   102   6 C    3.958 --   103 C    1.657   101 C    1.171   123 H    0.973
   103   6 C    3.955 --   102 C    1.657   104 C    1.170   124 H    0.975
   104   6 C    3.916 --    64 C    1.361   105 N    1.230   103 C    1.170
   105   7 N    3.243 --   101 C    1.240   104 C    1.230    63 Cu   0.504
   106   1 H    1.001 --    64 C    0.971
   107   1 H    0.997 --    66 C    0.975
   108   1 H    1.004 --    67 C    0.973
   109   1 H    1.007 --    72 C    0.968
   110   1 H    0.873 --    75 O    0.838
   111   1 H    1.005 --    77 C    0.971
   112   1 H    1.002 --    78 C    0.972
   113   1 H    1.005 --    79 C    0.973
   114   1 H    1.004 --    81 C    0.973
   115   1 H    1.002 --    82 C    0.974
   116   1 H    1.002 --    87 C    0.974
   117   1 H    1.004 --    88 C    0.973
   118   1 H    1.005 --    93 C    0.973
   119   1 H    1.002 --    94 C    0.972
   120   1 H    1.005 --    95 C    0.969
   121   1 H    0.873 --    98 O    0.838
   122   1 H    1.008 --   100 C    0.969
   123   1 H    1.004 --   102 C    0.973
   124   1 H    0.997 --   103 C    0.975
   125   6 C    3.936 --   126 C    2.481   127 C    1.305
   126   6 C    3.927 --   125 C    2.481    23 C    1.185   128 C    0.200
   127   6 C    3.936 --   128 C    2.481   125 C    1.305
   128   6 C    3.927 --   127 C    2.481    85 C    1.185   126 C    0.200
 ---------------------------------------------------------------------------

           -------------------------------------------------
          | TOTAL ENERGY             -244.813234041148 Eh   |
          | GRADIENT NORM               0.000772522203 Eh/α |
          | HOMO-LUMO GAP               0.002321966636 eV   |
           -------------------------------------------------

 * finished run on 2022/07/30 at 07:17:02.507
