   * xtb version 6.5.1 (b24c23e) compiled by 'conda@728c89f4b128' on 2022-07-12
          program call               : xtb Zn_Ph2OMe_C6_3.xyz --gfn 1 --opt -T 48

   ID    Z sym.   atoms
    1   30 Zn     1, 73, 157
    2    6 C      2-6, 8-11, 13-21, 23-27, 29-33, 36, 37, 39-43, 45, 74-78,
                  80-83, 85-93, 95-99, 101-105, 108, 109, 111-115, 117,
                  145-156, 158-162, 164-167, 169-177, 179-183, 185-189, 192,
                  193, 195-199, 201
    3    7 N      7, 12, 34, 35, 79, 84, 106, 107, 163, 168, 190, 191
    4    8 O      22, 28, 38, 44, 94, 100, 110, 116, 178, 184, 194, 200
    5    1 H      46-72, 118-144, 202-227

          :  Hamiltonian                  GFN1-xTB          :
 * total energy  :  -392.7808485 Eh     change       -0.2800675E-09 Eh
 * total energy  :  -393.1664300 Eh     change       -0.3855816E+00 Eh
 * total energy  :  -393.3052340 Eh     change       -0.1388040E+00 Eh
 * total energy  :  -393.4076976 Eh     change       -0.1024635E+00 Eh
 * total energy  :  -393.4866648 Eh     change       -0.7896720E-01 Eh
 * total energy  :  -393.5369081 Eh     change       -0.5024331E-01 Eh
 * total energy  :  -393.5653333 Eh     change       -0.2842517E-01 Eh
 * total energy  :  -393.5841341 Eh     change       -0.1880083E-01 Eh
 * total energy  :  -393.5930782 Eh     change       -0.8944085E-02 Eh
 * total energy  :  -393.6013947 Eh     change       -0.8316501E-02 Eh
 * total energy  :  -393.6531882 Eh     change       -0.1507606E-04 Eh
 * total energy  :  -393.6532034 Eh     change       -0.1523109E-04 Eh
 * total energy  :  -393.6532091 Eh     change       -0.5648014E-05 Eh
 * total energy  :  -393.6531825 Eh     change        0.2661534E-04 Eh
 * total energy  :  -393.6532149 Eh     change       -0.3243272E-04 Eh
 * total energy  :  -393.6531868 Eh     change        0.2808725E-04 Eh
 * total energy  :  -393.6532196 Eh     change       -0.3274662E-04 Eh
 * total energy  :  -393.6532234 Eh     change       -0.3844142E-05 Eh
 * total energy  :  -393.6532265 Eh     change       -0.3050824E-05 Eh
   *** GEOMETRY OPTIMIZATION CONVERGED AFTER 100 ITERATIONS ***

 final structure:
================
227
 xtb: 6.5.1 (b24c23e)
Zn          28.56556028217595        0.08339373363937       -0.03854904630438
C           25.15226542190997        0.16777663149026       -0.08550124832313
C           25.78146633123486        1.02374444324307        0.81094622862100
C           25.10857552986795        1.91827330808796        1.71194195877829
C           26.06854822969060        2.56783721315992        2.41671919854721
C           27.33980964158168        2.08119106883680        1.95158615146129
N           27.13024811523450        1.14604764527801        0.98091281017126
C           28.58837235736306        2.48473588707909        2.43482640380756
C           29.82673070258215        2.00309505388784        2.00482825932968
C           31.10315813216519        2.44657765302926        2.49250169722415
C           32.05343732969190        1.75633563303074        1.81225636111869
N           30.02598160544654        1.05549324027426        1.03620811141807
C           31.36788927768560        0.88714719413155        0.90003924772571
C           32.00219306641048        0.00678451921485        0.00020328331778
C           31.34951333560526       -0.84823310710395       -0.91080644086677
C           32.01655223544920       -1.75249189222264       -1.80229310383126
C           31.05243820931312       -2.40515126411989       -2.49986423624334
C           29.78589239509932       -1.90133022067949       -2.04598952162540
C           28.53712619281093       -2.32688735410417       -2.50528319207416
C           28.52321204577513       -3.37557644563244       -3.56581433125639
C           28.94618718028283       -3.07653315792555       -4.86746627251731
O           29.34575955424385       -1.79449999715024       -5.08241457141255
C           29.81757204695744       -1.39616637024755       -6.35332934266131
C           28.93104333976456       -4.05828423035887       -5.85781960061584
C           28.49649729783022       -5.33657858307529       -5.54156919956260
C           28.07447266236519       -5.65670217549003       -4.26000898490405
C           28.08597595979554       -4.67359878919813       -3.27109494489742
O           27.69932444210995       -4.89229655134536       -1.98551269851799
C           27.23342430739426       -6.16475333327916       -1.58550581265645
C           27.29721014467273       -1.85891385361963       -2.05797329931650
C           26.01626439822871       -2.28114427362459       -2.55843748025153
C           25.07107569954525       -1.58140254328502       -1.88240570178129
C           25.76285812570242       -0.71991684351549       -0.96378106400458
N           27.10799965028004       -0.91082285101540       -1.09570724823706
N           30.00485951033869       -0.95784701240288       -1.07743844638184
C           28.59795418213512        3.52374516984395        3.50535756067656
C           28.93669015701803        3.18236149760601        4.82090317998897
O           29.23470972666210        1.87309566706485        5.03590962366674
C           29.60080895295392        1.42559690107360        6.32510728345505
C           28.94452362255388        4.15319029903012        5.82205379777206
C           28.61702881349524        5.46211729139635        5.50196011738811
C           28.27982400961636        5.82387926864267        4.20639531017838
C           28.26838750920077        4.85182932716894        3.20648416789513
O           27.95841470102368        5.10822955131694        1.90725190265767
C           27.62148805314719        6.41789256103000        1.49796280413775
H           24.06687672667691        0.19496661405535       -0.10089700809508
H           24.03738581988489        2.02399768189107        1.78838204211346
H           25.93574451120045        3.31143780051633        3.18651705564857
H           31.24833957528691        3.19342433880792        3.25665097699250
H           33.12532792684055        1.82554047706242        1.91048522516507
H           33.08628532254735       -1.86982571843397       -1.87513102392969
H           31.18276856091757       -3.16292521174531       -3.25578245696810
H           29.04107118562882       -1.49892848704884       -7.12124294464111
H           30.09140052861639       -0.34358515108999       -6.25978281986897
H           30.70140464056957       -1.97265872933901       -6.65252672562295
H           29.25191115458671       -3.83614135190502       -6.86679039148903
H           28.48625945391225       -6.10054937763411       -6.31125755158236
H           27.74248930740221       -6.66278576429340       -4.04109350346378
H           26.98135144141116       -6.07727647882247       -0.52694958366393
H           26.33727498672945       -6.45905510536309       -2.14540666419982
H           28.00624202870532       -6.93329524164857       -1.70890036317575
H           25.86681913419991       -3.01878695595547       -3.33084368505252
H           23.99850769473403       -1.63269612852750       -1.98931404706228
H           29.79659323159402        0.35575687399647        6.23135727003396
H           28.79202664999924        1.58108587657899        7.04958686388821
H           30.50831172981229        1.92754260876366        6.68211871676487
H           29.20132145535755        3.89939673638759        6.84184770631781
H           28.62455585553468        6.21757851687889        6.28005146142973
H           28.03025877937826        6.85306485257201        3.98544901997464
H           28.44773732570303        7.11825235996479        1.67091809080151
H           27.42006454651714        6.35933800243709        0.42667111219355
H           26.72422362932832        6.78207227889061        2.01316948316478
Zn          60.67857924005469        0.01617992306526       -0.09415141483907
C           64.09101423931975        0.08910762088438       -0.16607129132257
C           63.46599377364664       -0.66273966157378       -1.15410109357714
C           64.14347869035244       -1.41153854249517       -2.17628858965619
C           63.18683530229680       -2.00274503088836       -2.93485018823131
C           61.91292271997050       -1.61705659878620       -2.38919654441538
N           62.11782855770982       -0.80946559818757       -1.30910023594194
C           60.66573700588385       -2.01979455946452       -2.87737185905724
C           59.42503941218974       -1.66501282147152       -2.34269072088329
C           58.15001200771395       -2.05725269454067       -2.87580326045701
C           57.19713194126573       -1.50143394214421       -2.08502107549558
N           59.22230070618903       -0.87397018845579       -1.24308371789992
C           57.87970202484858       -0.76229818345028       -1.06275461320614
C           57.24233515338923       -0.04378743120299       -0.03090192743979
C           57.89209917776179        0.69137551016960        0.98143454590040
C           57.22198252748141        1.39617895679504        2.03562883752757
C           58.18314044065478        1.97694254538959        2.79784519212533
C           59.45077056661235        1.63821976163714        2.21279464966412
C           60.69713137771062        2.03858105776750        2.70080183897189
C           60.70568538298300        2.91182257145674        3.90964476787919
C           60.24376640736518        4.23258625933342        3.83487186227151
O           59.81374775733758        4.64335570534976        2.61188147802908
C           59.28996033347001        5.94404572627207        2.43735156305872
C           60.25359177474259        5.04933260055069        4.96515288399190
C           60.72177235946792        4.54113411298890        6.16738708458406
C           61.18223442916260        3.23687650490590        6.26653268994266
C           61.17592271087467        2.42173000013289        5.13513308176152
O           61.59812910756592        1.12868680571295        5.13525878615171
C           62.10774380350923        0.54288379211855        6.31563304924743
C           61.93847372774503        1.69346682826175        2.15594882806595
C           63.21694148576178        2.13406663474957        2.64678666005600
C           64.16455795687646        1.58846627491999        1.84407700542865
C           63.47666989083210        0.81264412975962        0.84941261934332
N           62.13136417731051        0.89968859736005        1.06347844631078
N           59.23563185573850        0.84994956153517        1.11342021832010
C           60.66036288178915       -2.90899307587943       -4.07487510054457
C           60.28452462215294       -4.25339565430568       -3.95604798372465
O           59.94735622304558       -4.66696188906231       -2.70528802130861
C           59.53284403433135       -5.99873806080243       -2.47948422910077
C           60.28207946226492       -5.08715863886923       -5.07388178406143
C           60.65178443322279       -4.57180278813751       -6.30702739367951
C           61.02564626975887       -3.24403770624280       -6.44956002729221
C           61.03180245426617       -2.41172231884668       -5.33064599946956
O           61.37493677238726       -1.09613644883462       -5.37040782918379
C           61.76891541530974       -0.49659629991091       -6.58756128236795
H           65.17634233174448        0.11292249115790       -0.18933316497411
H           65.21521502927416       -1.47238091197563       -2.28647117361536
H           63.32399276383966       -2.64513171076742       -3.79018214986931
H           58.00717193108176       -2.67743335604167       -3.74625810744703
H           56.12539234364289       -1.57848513702769       -2.17901216181102
H           56.15244876365547        1.43346994078361        2.17009472247725
H           58.04992727428516        2.58170165095358        3.68051414720437
H           60.04225937856977        6.71312996783125        2.65120641089708
H           58.99418434164213        6.01442808269152        1.38890923928425
H           58.41064609047495        6.11118916080585        3.07128293183745
H           59.90305597018103        6.07160756988752        4.91611715387435
H           60.72809478701708        5.17577350666644        7.04679390520903
H           61.53949031612137        2.86593303920828        7.21790218867858
H           62.38817401375393       -0.47856480043740        6.05152315987708
H           62.99447529135039        1.07671921866111        6.67885827926285
H           61.35160058332261        0.51436572967829        7.10973847427958
H           63.36344112419302        2.78005840840704        3.49780042729649
H           65.23633069883809        1.69683598734602        1.90744031379404
H           59.30643551334676       -6.07005345263242       -1.41394148619394
H           60.32616181163436       -6.71457586890894       -2.72728965819644
H           58.63203380155181       -6.24241533383073       -3.05581624886250
H           59.99744333378570       -6.12761742842263       -4.99170485141042
H           60.64867648728470       -5.21969779444865       -7.17674556523992
H           61.30728643525580       -2.86866154476244       -7.42429133321442
H           60.96417637213492       -0.53121740143159       -7.33207061507894
H           61.99579052115904        0.54532358575782       -6.35383611410897
H           62.66503567682134       -0.97588277757136       -7.00035695608081
C           37.20510449969770       -0.06483573936575        0.03959124624156
C           35.97679670800481       -0.05321051644175        0.03177016463212
C           34.63177212588440       -0.03691973834160        0.02267854739676
C           33.40794955144652       -0.01957919900053        0.01232474856918
C           38.55009395320770       -0.07454566835073        0.04599579982705
C           39.77419521709030       -0.08022612138339        0.05100925976687
C           53.26831688283313       -0.08219041046890        0.02638954548044
C           52.03989427096170       -0.08767455663749        0.03990550479476
C           50.69520878940924       -0.09380929527128        0.04956303098120
C           49.47099806248508       -0.09758953296970        0.05647149089364
C           54.61302803891993       -0.07299265582136        0.01027246250312
C           55.83694320382762       -0.06190031916303       -0.00911227769956
Zn          44.62285668465951       -0.08691914032763        0.05597973751536
C           41.17971965992709       -0.08403453476386        0.05276442524417
C           41.82371799373453       -0.06468004919880        1.30655604553099
C           41.14728451019551       -0.06159414628612        2.57067325349357
C           42.10507922060435       -0.04090779352335        3.53258625752852
C           43.37581285400722       -0.02629465441336        2.86424357410998
N           43.16755363292854       -0.04675278197104        1.51111406715977
C           44.62058839652718       -0.01128337363070        3.49897811186808
C           45.86648166223824       -0.02620578432032        2.86660459465441
C           47.13633443280111        0.01700888529961        3.53527117460358
C           48.09534228908025       -0.00496869274684        2.57450761283138
N           46.07643711000136       -0.06561825881113        1.51408950316825
C           47.42047862134220       -0.05641945012155        1.31063249879257
C           48.06580903171930       -0.09536887186566        0.05783197387430
C           47.42140682314081       -0.12992058725903       -1.19573328216851
C           48.09788754929299       -0.17956916875473       -2.45881433955979
C           47.14028997999407       -0.18944531170253       -3.42110024449975
C           45.86967663376718       -0.14188227492143       -2.75419237443603
C           44.62493939067696       -0.14375701625580       -3.38938376499832
C           44.62678477188902       -0.15650601960664       -4.88090627896976
C           44.20292650398601       -1.29274453264698       -5.58236762360495
O           43.81523687920345       -2.35059783635674       -4.82086820895055
C           43.33906887252594       -3.53352956474594       -5.42960497623553
C           44.20590946784068       -1.30332974973544       -6.97687600814335
C           44.62844863173752       -0.17574380975521       -7.66453965417068
C           45.05045596451328        0.96122070546839       -6.99214602444653
C           45.05182032569273        0.96992295717978       -5.59767246277265
O           45.43858464695511        2.03817989081735       -4.85049295014671
C           45.90787125574358        3.21573368700695       -5.47487267471707
C           43.37907405579493       -0.13221374535741       -2.75660746691893
C           42.10904285700631       -0.11054208917583       -3.42613962819844
C           41.15024941648058       -0.09649548419329       -2.46517533372660
C           41.82535712362264       -0.10257280237708       -1.20030792984517
N           43.16929741029352       -0.12187764960635       -1.40351677900707
N           46.07776923977877       -0.11250328978259       -1.40116600456116
C           44.61805377022998        0.02843420374843        4.99018472569970
C           45.02185260209164       -1.08934091737309        5.73176795131227
O           45.39418953977843       -2.17898923613948        5.00854632207376
C           45.83340549030439       -3.35351708732238        5.65997169427914
C           45.01546711560928       -1.05089214929154        7.12583332415943
C           44.60938684717269        0.10671977147420        7.77231358166008
C           44.20765720102248        1.22629947286501        7.05946815277494
C           44.21005888565750        1.18611626965904        5.66556012040894
O           43.84249769133172        2.23307541083724        4.87952183104778
C           43.38950473995700        3.43909613481872        5.45993073848833
H           40.07625002043081       -0.07715005851127        2.69707050969383
H           41.96747592188241       -0.03796559939294        4.60201454717929
H           47.27267381439906        0.05974016598021        4.60400173866022
H           49.16624798931507        0.01470792349357        2.70150188568472
H           49.16876326385569       -0.20556439931093       -2.58471989030025
H           47.27834269460472       -0.22742014303791       -4.48977236452157
H           42.44896915018118       -3.34038630441485       -6.04068715177284
H           43.07405148599408       -4.20942975786618       -4.61439455977742
H           44.11011988231019       -4.00472795578071       -6.05134655216692
H           43.88482765686935       -2.17742991127584       -7.52747229740283
H           44.62889289306161       -0.18321364053463       -8.74902375308955
H           45.37230483916620        1.82758188360674       -7.55440893082456
H           46.16810166574510        3.90418340778130       -4.66866101764960
H           45.13429956129806        3.67369344484276       -6.10333112231477
H           46.79961245086526        3.02003083228088       -6.08275442431332
H           41.97217163615580       -0.10559877817368       -4.49561007593462
H           40.07939931749283       -0.07903141266450       -2.59279118124235
H           45.04587625339739       -3.78112892131519        6.29247553445131
H           46.08327806033398       -4.06405250599367        4.86982042759896
H           46.72542394770584       -3.16514371214989        6.26974728792132
H           45.32142881156030       -1.91000336293598        7.70774875230541
H           44.60592496821456        0.13708609188048        8.85640313794789
H           43.89829527411253        2.11680729958240        7.59013628263599
H           44.16848391823925        3.90781853166376        6.07361403064051
H           42.49364402593842        3.27860750161354        6.07204274318151
H           43.14134713979611        4.10188320223435        4.62878405778019

          :  Hamiltonian                  GFN1-xTB          :
         :: total energy            -393.653226478407 Eh    ::
         :: gradient norm              0.000416355360 Eh/a0 ::
         :: HOMO-LUMO gap              0.986139706552 eV    ::
         :: SCC energy              -399.351697539944 Eh    ::
         :: repulsion energy           5.896465481735 Eh    ::

    * Orbital Energies and Occupations

         #    Occupation            Energy/Eh            Energy/eV
      -------------------------------------------------------------
         1        2.0000           -0.8035772             -21.8664
       ...           ...                  ...                  ...
       337        2.0000           -0.4042350             -10.9998
       338        2.0000           -0.4038430             -10.9891
       339        2.0000           -0.4036915             -10.9850
       340        2.0000           -0.4023661             -10.9489
       341        2.0000           -0.3973851             -10.8134
       342        2.0000           -0.3964644             -10.7883
       343        2.0000           -0.3937232             -10.7138
       344        2.0000           -0.3772100             -10.2644
       345        2.0000           -0.3766678             -10.2497
       346        2.0000           -0.3765883             -10.2475
       347        2.0000           -0.3694295             -10.0527
       348        2.0000           -0.3649048              -9.9296
       349        2.0000           -0.3589214              -9.7667 (HOMO)
       350                         -0.3226814              -8.7806 (LUMO)
       351                         -0.3148422              -8.5673
       352                         -0.3101499              -8.4396
       353                         -0.3091513              -8.4124
       354                         -0.3087946              -8.4027
       355                         -0.3087575              -8.4017
       356                         -0.2863043              -7.7907
       357                         -0.2782422              -7.5714
       358                         -0.2768733              -7.5341
       359                         -0.2639541              -7.1826
       360                         -0.2613233              -7.1110
       ...                                ...                  ...
       748                          1.5950922              43.4047
      -------------------------------------------------------------
                  HL-Gap            0.0362400 Eh            0.9861 eV

Wiberg/Mayer (AO) data.
largest (>0.10) Wiberg bond orders for each atom

     #   Z sym  total        # sym  WBO       # sym  WBO       # sym  WBO
 ---------------------------------------------------------------------------
     1  30 Zn   1.999 --     7 N    0.460    34 N    0.460    12 N    0.457
                            35 N    0.457
     2   6 C    3.928 --    33 C    1.357     3 C    1.357    46 H    0.972
     3   6 C    3.924 --     2 C    1.357     7 N    1.235     4 C    1.170
     4   6 C    3.960 --     5 C    1.660     3 C    1.170    47 H    0.976
     5   6 C    3.964 --     4 C    1.660     6 C    1.172    48 H    0.975
     6   6 C    3.917 --     8 C    1.319     7 N    1.242     5 C    1.172
     7   7 N    3.296 --     6 C    1.242     3 C    1.235     1 Zn   0.460
     8   6 C    3.934 --     9 C    1.333     6 C    1.319    36 C    1.011
     9   6 C    3.913 --     8 C    1.333    12 N    1.222    10 C    1.178
    10   6 C    3.961 --    11 C    1.650     9 C    1.178    49 H    0.975
    11   6 C    3.962 --    10 C    1.650    13 C    1.184    50 H    0.974
    12   7 N    3.299 --    13 C    1.266     9 C    1.222     1 Zn   0.457
    13   6 C    3.904 --    12 N    1.266    14 C    1.254    11 C    1.184
    14   6 C    3.939 --    15 C    1.254    13 C    1.254   148 C    1.189
    15   6 C    3.904 --    35 N    1.265    14 C    1.254    16 C    1.184
    16   6 C    3.962 --    17 C    1.650    15 C    1.184    51 H    0.974
    17   6 C    3.961 --    16 C    1.650    18 C    1.178    52 H    0.975
    18   6 C    3.913 --    19 C    1.332    35 N    1.222    17 C    1.178
    19   6 C    3.934 --    18 C    1.332    30 C    1.318    20 C    1.013
    20   6 C    3.978 --    21 C    1.344    27 C    1.344    19 C    1.013
                            25 C    0.101
    21   6 C    3.903 --    24 C    1.362    20 C    1.344    22 O    1.030
    22   8 O    2.143 --    21 C    1.030    23 C    0.936
    23   6 C    3.908 --    54 H    0.983    55 H    0.980    53 H    0.980
                            22 O    0.936
    24   6 C    3.983 --    25 C    1.442    21 C    1.362    56 H    0.969
    25   6 C    3.993 --    24 C    1.442    26 C    1.442    57 H    0.974
                            20 C    0.101
    26   6 C    3.983 --    25 C    1.442    27 C    1.362    58 H    0.969
    27   6 C    3.903 --    26 C    1.362    20 C    1.344    28 O    1.029
    28   8 O    2.143 --    27 C    1.029    29 C    0.936
    29   6 C    3.908 --    59 H    0.983    60 H    0.980    61 H    0.980
                            28 O    0.936
    30   6 C    3.917 --    19 C    1.318    34 N    1.243    31 C    1.172
    31   6 C    3.964 --    32 C    1.660    30 C    1.172    62 H    0.975
    32   6 C    3.960 --    31 C    1.660    33 C    1.170    63 H    0.976
    33   6 C    3.924 --     2 C    1.357    34 N    1.235    32 C    1.170
    34   7 N    3.296 --    30 C    1.243    33 C    1.235     1 Zn   0.460
    35   7 N    3.299 --    15 C    1.265    18 C    1.222     1 Zn   0.457
    36   6 C    3.978 --    43 C    1.345    37 C    1.345     8 C    1.011
                            41 C    0.101
    37   6 C    3.903 --    40 C    1.362    36 C    1.345    38 O    1.030
    38   8 O    2.143 --    37 C    1.030    39 C    0.936
    39   6 C    3.908 --    64 H    0.983    66 H    0.980    65 H    0.980
                            38 O    0.936
    40   6 C    3.983 --    41 C    1.442    37 C    1.362    67 H    0.969
    41   6 C    3.993 --    40 C    1.442    42 C    1.442    68 H    0.974
                            36 C    0.101
    42   6 C    3.983 --    41 C    1.442    43 C    1.362    69 H    0.969
    43   6 C    3.903 --    42 C    1.362    36 C    1.345    44 O    1.029
    44   8 O    2.143 --    43 C    1.029    45 C    0.936
    45   6 C    3.908 --    71 H    0.983    72 H    0.980    70 H    0.980
                            44 O    0.936
    46   1 H    1.002 --     2 C    0.972
    47   1 H    0.999 --     4 C    0.976
    48   1 H    1.002 --     5 C    0.975
    49   1 H    1.002 --    10 C    0.975
    50   1 H    1.003 --    11 C    0.974
    51   1 H    1.003 --    16 C    0.974
    52   1 H    1.002 --    17 C    0.975
    53   1 H    1.009 --    23 C    0.980
    54   1 H    1.016 --    23 C    0.983
    55   1 H    1.009 --    23 C    0.980
    56   1 H    1.000 --    24 C    0.969
    57   1 H    1.003 --    25 C    0.974
    58   1 H    1.000 --    26 C    0.969
    59   1 H    1.016 --    29 C    0.983
    60   1 H    1.009 --    29 C    0.980
    61   1 H    1.009 --    29 C    0.980
    62   1 H    1.003 --    31 C    0.975
    63   1 H    0.999 --    32 C    0.976
    64   1 H    1.016 --    39 C    0.983
    65   1 H    1.009 --    39 C    0.980
    66   1 H    1.009 --    39 C    0.980
    67   1 H    1.000 --    40 C    0.969
    68   1 H    1.003 --    41 C    0.974
    69   1 H    1.000 --    42 C    0.969
    70   1 H    1.009 --    45 C    0.980
    71   1 H    1.016 --    45 C    0.983
    72   1 H    1.009 --    45 C    0.980
    73  30 Zn   1.999 --    79 N    0.460   106 N    0.460    84 N    0.457
                           107 N    0.457
    74   6 C    3.927 --   105 C    1.357    75 C    1.357   118 H    0.972
    75   6 C    3.924 --    74 C    1.357    79 N    1.235    76 C    1.170
    76   6 C    3.960 --    77 C    1.660    75 C    1.170   119 H    0.976
    77   6 C    3.964 --    76 C    1.660    78 C    1.173   120 H    0.975
    78   6 C    3.917 --    80 C    1.319    79 N    1.243    77 C    1.173
    79   7 N    3.295 --    78 C    1.243    75 C    1.235    73 Zn   0.460
    80   6 C    3.934 --    81 C    1.332    78 C    1.319   108 C    1.013
    81   6 C    3.913 --    80 C    1.332    84 N    1.222    82 C    1.178
    82   6 C    3.960 --    83 C    1.649    81 C    1.178   121 H    0.975
    83   6 C    3.962 --    82 C    1.649    85 C    1.184   122 H    0.974
    84   7 N    3.299 --    85 C    1.266    81 C    1.222    73 Zn   0.457
    85   6 C    3.904 --    84 N    1.266    86 C    1.253    83 C    1.184
    86   6 C    3.939 --    85 C    1.253    87 C    1.253   156 C    1.191
    87   6 C    3.904 --   107 N    1.266    86 C    1.253    88 C    1.184
    88   6 C    3.962 --    89 C    1.649    87 C    1.184   123 H    0.974
    89   6 C    3.961 --    88 C    1.649    90 C    1.178   124 H    0.975
    90   6 C    3.913 --    91 C    1.332   107 N    1.222    89 C    1.178
    91   6 C    3.934 --    90 C    1.332   102 C    1.318    92 C    1.015
    92   6 C    3.978 --    99 C    1.344    93 C    1.344    91 C    1.015
                            97 C    0.101
    93   6 C    3.903 --    96 C    1.362    92 C    1.344    94 O    1.030
    94   8 O    2.143 --    93 C    1.030    95 C    0.936
    95   6 C    3.908 --   126 H    0.983   127 H    0.980   125 H    0.980
                            94 O    0.936
    96   6 C    3.983 --    97 C    1.442    93 C    1.362   128 H    0.969
    97   6 C    3.992 --    96 C    1.442    98 C    1.442   129 H    0.974
                            92 C    0.101
    98   6 C    3.983 --    97 C    1.442    99 C    1.362   130 H    0.969
    99   6 C    3.902 --    98 C    1.362    92 C    1.344   100 O    1.029
   100   8 O    2.143 --    99 C    1.029   101 C    0.936
   101   6 C    3.908 --   131 H    0.983   132 H    0.980   133 H    0.980
                           100 O    0.936
   102   6 C    3.917 --    91 C    1.318   106 N    1.243   103 C    1.173
   103   6 C    3.964 --   104 C    1.660   102 C    1.173   134 H    0.975
   104   6 C    3.960 --   103 C    1.660   105 C    1.170   135 H    0.976
   105   6 C    3.924 --    74 C    1.357   106 N    1.235   104 C    1.170
   106   7 N    3.295 --   102 C    1.243   105 C    1.235    73 Zn   0.460
   107   7 N    3.298 --    87 C    1.266    90 C    1.222    73 Zn   0.457
   108   6 C    3.978 --   115 C    1.345   109 C    1.344    80 C    1.013
                           113 C    0.101
   109   6 C    3.903 --   112 C    1.362   108 C    1.344   110 O    1.030
   110   8 O    2.143 --   109 C    1.030   111 C    0.936
   111   6 C    3.908 --   136 H    0.983   138 H    0.980   137 H    0.980
                           110 O    0.936
   112   6 C    3.983 --   113 C    1.442   109 C    1.362   139 H    0.969
   113   6 C    3.993 --   112 C    1.442   114 C    1.442   140 H    0.974
                           108 C    0.101
   114   6 C    3.983 --   113 C    1.442   115 C    1.362   141 H    0.969
   115   6 C    3.903 --   114 C    1.362   108 C    1.345   116 O    1.029
   116   8 O    2.143 --   115 C    1.029   117 C    0.936
   117   6 C    3.908 --   143 H    0.983   144 H    0.980   142 H    0.980
                           116 O    0.936
   118   1 H    1.002 --    74 C    0.972
   119   1 H    0.999 --    76 C    0.976
   120   1 H    1.003 --    77 C    0.975
   121   1 H    1.002 --    82 C    0.975
   122   1 H    1.003 --    83 C    0.974
   123   1 H    1.003 --    88 C    0.974
   124   1 H    1.003 --    89 C    0.975
   125   1 H    1.009 --    95 C    0.980
   126   1 H    1.016 --    95 C    0.983
   127   1 H    1.009 --    95 C    0.980
   128   1 H    1.000 --    96 C    0.969
   129   1 H    1.003 --    97 C    0.974
   130   1 H    1.000 --    98 C    0.969
   131   1 H    1.016 --   101 C    0.983
   132   1 H    1.009 --   101 C    0.980
   133   1 H    1.009 --   101 C    0.980
   134   1 H    1.003 --   103 C    0.975
   135   1 H    0.999 --   104 C    0.976
   136   1 H    1.016 --   111 C    0.983
   137   1 H    1.009 --   111 C    0.980
   138   1 H    1.009 --   111 C    0.980
   139   1 H    1.000 --   112 C    0.969
   140   1 H    1.003 --   113 C    0.974
   141   1 H    1.000 --   114 C    0.969
   142   1 H    1.009 --   117 C    0.980
   143   1 H    1.016 --   117 C    0.983
   144   1 H    1.009 --   117 C    0.980
   145   6 C    3.924 --   146 C    2.370   149 C    1.333   148 C    0.190
   146   6 C    3.923 --   145 C    2.370   147 C    1.332   150 C    0.189
   147   6 C    3.934 --   148 C    2.450   146 C    1.332
   148   6 C    3.888 --   147 C    2.450    14 C    1.189   145 C    0.190
   149   6 C    3.931 --   150 C    2.449   145 C    1.333
   150   6 C    3.889 --   149 C    2.449   158 C    1.191   146 C    0.189
   151   6 C    3.923 --   152 C    2.368   155 C    1.334   154 C    0.190
   152   6 C    3.925 --   151 C    2.368   153 C    1.334   156 C    0.190
   153   6 C    3.931 --   154 C    2.447   152 C    1.334
   154   6 C    3.889 --   153 C    2.447   170 C    1.193   151 C    0.190
   155   6 C    3.933 --   156 C    2.449   151 C    1.334
   156   6 C    3.889 --   155 C    2.449    86 C    1.191   152 C    0.190
   157  30 Zn   1.995 --   163 N    0.457   168 N    0.457   191 N    0.457
                           190 N    0.456
   158   6 C    3.927 --   159 C    1.252   189 C    1.252   150 C    1.191
   159   6 C    3.904 --   163 N    1.265   158 C    1.252   160 C    1.186
   160   6 C    3.960 --   161 C    1.646   159 C    1.186   202 H    0.974
   161   6 C    3.961 --   160 C    1.646   162 C    1.181   203 H    0.975
   162   6 C    3.910 --   164 C    1.326   163 N    1.223   161 C    1.181
   163   7 N    3.293 --   159 C    1.265   162 C    1.223   157 Zn   0.457
   164   6 C    3.929 --   165 C    1.326   162 C    1.326   192 C    1.013
   165   6 C    3.910 --   164 C    1.326   168 N    1.222   166 C    1.181
   166   6 C    3.961 --   167 C    1.646   165 C    1.181   204 H    0.975
   167   6 C    3.960 --   166 C    1.646   169 C    1.186   205 H    0.974
   168   7 N    3.293 --   169 C    1.265   165 C    1.222   157 Zn   0.457
   169   6 C    3.904 --   168 N    1.265   170 C    1.252   167 C    1.186
   170   6 C    3.927 --   169 C    1.252   171 C    1.251   154 C    1.193
   171   6 C    3.904 --   191 N    1.265   170 C    1.251   172 C    1.186
   172   6 C    3.960 --   173 C    1.646   171 C    1.186   206 H    0.974
   173   6 C    3.961 --   172 C    1.646   174 C    1.181   207 H    0.975
   174   6 C    3.910 --   175 C    1.326   191 N    1.223   173 C    1.181
   175   6 C    3.929 --   186 C    1.326   174 C    1.326   176 C    1.014
   176   6 C    3.977 --   177 C    1.344   183 C    1.343   175 C    1.014
                           181 C    0.101
   177   6 C    3.903 --   180 C    1.362   176 C    1.344   178 O    1.030
   178   8 O    2.143 --   177 C    1.030   179 C    0.936
   179   6 C    3.908 --   209 H    0.983   208 H    0.980   210 H    0.980
                           178 O    0.936
   180   6 C    3.983 --   181 C    1.442   177 C    1.362   211 H    0.969
   181   6 C    3.993 --   180 C    1.442   182 C    1.442   212 H    0.974
                           176 C    0.101
   182   6 C    3.983 --   181 C    1.442   183 C    1.362   213 H    0.969
   183   6 C    3.903 --   182 C    1.362   176 C    1.343   184 O    1.030
   184   8 O    2.144 --   183 C    1.030   185 C    0.936
   185   6 C    3.908 --   214 H    0.983   216 H    0.980   215 H    0.980
                           184 O    0.936
   186   6 C    3.910 --   175 C    1.326   190 N    1.223   187 C    1.181
   187   6 C    3.961 --   188 C    1.646   186 C    1.181   217 H    0.975
   188   6 C    3.960 --   187 C    1.646   189 C    1.186   218 H    0.974
   189   6 C    3.904 --   190 N    1.265   158 C    1.252   188 C    1.186
   190   7 N    3.293 --   189 C    1.265   186 C    1.223   157 Zn   0.456
   191   7 N    3.293 --   171 C    1.265   174 C    1.223   157 Zn   0.457
   192   6 C    3.978 --   193 C    1.344   199 C    1.344   164 C    1.013
                           197 C    0.101
   193   6 C    3.903 --   196 C    1.362   192 C    1.344   194 O    1.030
   194   8 O    2.143 --   193 C    1.030   195 C    0.936
   195   6 C    3.908 --   220 H    0.983   221 H    0.980   219 H    0.980
                           194 O    0.936
   196   6 C    3.983 --   197 C    1.442   193 C    1.362   222 H    0.969
   197   6 C    3.993 --   196 C    1.442   198 C    1.442   223 H    0.974
                           192 C    0.101
   198   6 C    3.983 --   197 C    1.442   199 C    1.362   224 H    0.969
   199   6 C    3.903 --   198 C    1.362   192 C    1.344   200 O    1.030
   200   8 O    2.143 --   199 C    1.030   201 C    0.936
   201   6 C    3.908 --   227 H    0.983   226 H    0.980   225 H    0.980
                           200 O    0.936
   202   1 H    1.003 --   160 C    0.974
   203   1 H    1.002 --   161 C    0.975
   204   1 H    1.002 --   166 C    0.975
   205   1 H    1.003 --   167 C    0.974
   206   1 H    1.003 --   172 C    0.974
   207   1 H    1.002 --   173 C    0.975
   208   1 H    1.009 --   179 C    0.980
   209   1 H    1.016 --   179 C    0.983
   210   1 H    1.009 --   179 C    0.980
   211   1 H    1.000 --   180 C    0.969
   212   1 H    1.003 --   181 C    0.974
   213   1 H    1.000 --   182 C    0.969
   214   1 H    1.016 --   185 C    0.983
   215   1 H    1.009 --   185 C    0.980
   216   1 H    1.009 --   185 C    0.980
   217   1 H    1.003 --   187 C    0.975
   218   1 H    1.003 --   188 C    0.974
   219   1 H    1.009 --   195 C    0.980
   220   1 H    1.016 --   195 C    0.983
   221   1 H    1.009 --   195 C    0.980
   222   1 H    1.000 --   196 C    0.969
   223   1 H    1.003 --   197 C    0.974
   224   1 H    1.000 --   198 C    0.969
   225   1 H    1.009 --   201 C    0.980
   226   1 H    1.009 --   201 C    0.980
   227   1 H    1.016 --   201 C    0.983
 ---------------------------------------------------------------------------

           -------------------------------------------------
          | TOTAL ENERGY             -393.653226478407 Eh   |
          | GRADIENT NORM               0.000416355360 Eh/α |
          | HOMO-LUMO GAP               0.986139706552 eV   |
           -------------------------------------------------

 * finished run on 2022/07/30 at 15:16:37.913
