   * xtb version 6.5.1 (b24c23e) compiled by 'conda@728c89f4b128' on 2022-07-12
          program call               : xtb Co_Ph_C8_2.xyz --gfn 1 --opt -T 48

   ID    Z sym.   atoms
    1   27 Co     1, 57
    2    6 C      2-6, 8-11, 13-29, 32-37, 58-62, 64-67, 69-85, 88-93, 113-120
    3    7 N      7, 12, 30, 31, 63, 68, 86, 87
    4    1 H      38-56, 94-112
########################################################################
[WARNING] Please study the warnings concerning your input carefully
-1- prog_main_parseArguments: Unknown option '-T' provided
########################################################################

          :  Hamiltonian                  GFN1-xTB          :
 * total energy  :  -204.7245802 Eh     change        0.1765642E-08 Eh
 * total energy  :  -204.9167659 Eh     change       -0.1921856E+00 Eh
 * total energy  :  -204.9752484 Eh     change       -0.5848256E-01 Eh
 * total energy  :  -204.9983144 Eh     change       -0.2306597E-01 Eh
 * total energy  :  -205.0086986 Eh     change       -0.1038422E-01 Eh
 * total energy  :  -205.0137199 Eh     change       -0.5021311E-02 Eh
 * total energy  :  -205.0143341 Eh     change       -0.6142306E-03 Eh
 * total energy  :  -205.0174551 Eh     change       -0.3120907E-02 Eh
 * total energy  :  -205.0180415 Eh     change       -0.5864785E-03 Eh
 * total energy  :  -205.0188257 Eh     change       -0.7841682E-03 Eh
 * total energy  :  -205.0210019 Eh     change       -0.6484672E-05 Eh
 * total energy  :  -205.0210091 Eh     change       -0.7203212E-05 Eh
 * total energy  :  -205.0210153 Eh     change       -0.6166527E-05 Eh
 * total energy  :  -205.0210212 Eh     change       -0.5961319E-05 Eh
 * total energy  :  -205.0210289 Eh     change       -0.7642789E-05 Eh
 * total energy  :  -205.0210379 Eh     change       -0.9064735E-05 Eh
 * total energy  :  -205.0210463 Eh     change       -0.8384453E-05 Eh
 * total energy  :  -205.0210522 Eh     change       -0.5929645E-05 Eh
 * total energy  :  -205.0210567 Eh     change       -0.4464044E-05 Eh
   *** GEOMETRY OPTIMIZATION CONVERGED AFTER 43 ITERATIONS ***

 final structure:
================
120
 xtb: 6.5.1 (b24c23e)
Co          11.51438287763306       -0.03229352994073       -0.04918614288114
C            8.13931489706442       -0.05420778956726       -0.07733878022288
C            8.80576506453728       -1.22205387557000       -0.37991870571275
C            8.14670453841887       -2.44893910797174       -0.70974722530750
C            9.10197681098052       -3.40744989286710       -0.73582960444125
C           10.34584728475499       -2.76278405892199       -0.43157311326651
N           10.15867510799554       -1.41546590303108       -0.25496852773018
C           11.53266781913329       -3.44074992662927       -0.18794879856604
C           12.71320911762979       -2.77554422823787        0.10202412687631
C           13.96677764169295       -3.43389012563325        0.31708746802165
C           14.91592583505266       -2.46831258401911        0.34620118060998
N           12.89107562882765       -1.41072967670312        0.04785689542438
C           14.24081516225068       -1.22483054877413        0.14880757033892
C           14.90868837674292       -0.01198329628620       -0.04031275867767
C           14.22053095257641        1.19311418873669       -0.20411095293170
C           14.87077826186635        2.44539887701858       -0.42526732776464
C           13.91140231780868        3.39919375187988       -0.34989483229893
C           12.67886084805006        2.72438442002828       -0.07577498350123
C           11.48675687307050        3.37097515040099        0.21399197976301
C           11.47626303904516        4.84902354499946        0.31115997131132
C           10.67522307124865        5.60756974592032       -0.54379554094879
C           10.67198482923867        6.99147007040126       -0.45701471404005
C           11.46245083792687        7.63371994534995        0.48641501207407
C           12.25982611431854        6.88595968086862        1.34223920980477
C           12.27060427062508        5.50205374976521        1.25468969388621
C           10.30119269505793        2.67210534893024        0.39776538397058
C            9.04730096917099        3.28730042635364        0.72164860183000
C            8.10186978033919        2.32331807673946        0.62402319291711
C            8.78140380648606        1.11814381925555        0.25814128787205
N           10.13565589133552        1.32744873089532        0.18243033297509
N           12.87395211384323        1.36226561783449       -0.04512760235185
C           11.54015540331453       -4.92322048109783       -0.24762245493113
C           11.32788257139083       -5.58207266980784       -1.45855522609396
C           11.33990775937029       -6.96795721498604       -1.51209155771812
C           11.55913424295803       -7.70933600645435       -0.35908564303789
C           11.76902340220530       -7.05957701130411        0.84959932497643
C           11.76231077941486       -5.67382487382036        0.90685427604120
H            7.05579696601079       -0.06117789057620       -0.09345488590662
H            7.08556539230403       -2.54674025785208       -0.87528530102478
H            8.98592315605423       -4.46256549050639       -0.92319388612360
H           14.09508448109057       -4.50026429518942        0.40616015400515
H           15.98159076535162       -2.57293259417597        0.47152623611918
H           15.92712179911988        2.56277598604059       -0.60590454759400
H           14.01688027065528        4.46512906872410       -0.46942405950859
H           10.06777239336797        5.10808848600359       -1.29033627027302
H           10.05034267361603        7.57110278233836       -1.13042855465509
H           11.45745342958878        8.71569750376732        0.55412039041321
H           12.87697758393069        7.38293205138547        2.08250975103625
H           12.88527965899079        4.91893201027467        1.93138574399609
H            8.92080373037740        4.32525606639025        0.98363994322761
H            7.03720431873064        2.40192713430909        0.77676201767623
H           11.16859661929894       -5.00359890843118       -2.36171459919946
H           11.17868013682718       -7.47100598324690       -2.45909447272900
H           11.56682434109848       -8.79254592745843       -0.40253355244283
H           11.93855699601492       -7.63446922383204        1.75327526953675
H           11.91621208323571       -5.16694689997441        1.85294723502679
Co          30.03759864280832        0.03068224749735       -0.04881487263562
C           33.41146630629907        0.05484913953785       -0.07915531357284
C           32.74407447051124        1.23284952072322       -0.33760030392256
C           33.40070574845070        2.47202065405223       -0.62357292896340
C           32.44499389157293        3.43041540731592       -0.60652509464786
C           31.20320345821550        2.77386869689407       -0.31971765814206
N           31.39180200862006        1.42075312034685       -0.19830239859201
C           30.01838327259358        3.44032277377731       -0.03719894114207
C           28.84039284980683        2.76249216758199        0.23323880541468
C           27.58824768478490        3.40917044725701        0.48832133553834
C           26.63920739285772        2.44304200497444        0.47608309661696
N           28.66213944333023        1.40170633516568        0.11567389185524
C           27.31295457501320        1.21076078300320        0.21401142795094
C           26.64456728079110        0.00915471502657       -0.03618920606898
C           27.33298768970826       -1.18599005822573       -0.26130171231986
C           26.68475532268141       -2.42628423483124       -0.54647265700433
C           27.64458471615170       -3.38223943433406       -0.51345567036713
C           28.87541960378422       -2.72111048611747       -0.20110595491558
C           30.06626531796276       -3.37925690896579        0.06798734431233
C           30.07781831785078       -4.85995545161103        0.10092497548050
C           30.89061264469381       -5.57995522113483       -0.77607129180548
C           30.89539728230347       -6.96629002395504       -0.74898083346959
C           30.09463090028161       -7.64969896680256        0.15606693414994
C           29.28536072832165       -6.94059140287324        1.03338001991471
C           29.27311791974163       -5.55422977852910        1.00549341862407
C           31.24990299389833       -2.68784092370994        0.28940766077736
C           32.50290454457220       -3.31422410805443        0.59491129970640
C           33.44828094173293       -2.34690288753017        0.53708288943573
C           32.76962523013358       -1.12896087596781        0.21437372430841
N           31.41559867790652       -1.33567987746761        0.12780495581852
N           28.67915812447721       -1.36221112891416       -0.10642768670846
C           30.01053926274469        4.92398643381929       -0.03275724004259
C           30.20866141287180        5.63422095410585       -1.21671253345797
C           30.19692707610644        7.02112078527490       -1.21040561177751
C           29.99235168658607        7.71217190849763       -0.02393457449639
C           29.79649091804586        7.01104007153465        1.15810940143417
C           29.80267637756511        5.62410084019226        1.15555542481215
H           34.49494716433448        0.06250589142853       -0.09662284660369
H           34.46079267242094        2.57691615815220       -0.79152278587013
H           32.55957686315243        4.49211731329175       -0.75330661515273
H           27.46065641868930        4.46992472546937        0.63015881216717
H           25.57436048488306        2.54118867890529        0.61309079143162
H           25.62924489690043       -2.53538800921168       -0.73698929084576
H           27.54033028465746       -4.44110233959159       -0.68545968117821
H           31.50613245242209       -5.04803428432050       -1.49300702066975
H           31.52641309716021       -7.51550227639366       -1.43898751136465
H           30.10090693188603       -8.73357785260470        0.17719116666094
H           28.66009754870467       -7.46984513072178        1.74387297735286
H           28.64931551959232       -5.00169672423842        1.69929387511061
H           32.62898003290535       -4.36119688029841        0.81835746690860
H           34.51242677121454       -2.43095374114669        0.69055923298234
H           30.35671782927722        5.09504702780350       -2.14573135226320
H           30.34700599532536        7.56445678884960       -2.13676000922654
H           29.98524227506231        8.79624913031227       -0.02056190299998
H           29.63846590532389        7.54654168314533        2.08770151213672
H           29.65963496373094        5.07691280291602        2.08066778142447
C           16.31052555689768       -0.00365968872188       -0.05915119752995
C           17.53573392596854        0.00101032473605       -0.07134707384154
C           18.87695647177195        0.00355357543019       -0.07970153469787
C           20.10845262367943        0.00454502339019       -0.08674099305936
C           21.44487813675827        0.00423762663631       -0.08700162879981
C           22.67641915181872        0.00307574846619       -0.07804334746080
C           24.01762759696188        0.00260856235203       -0.06891551845180
C           25.24280092363578        0.00309166651999       -0.05569205607463

          :  Hamiltonian                  GFN1-xTB          :
         :: total energy            -205.021056707935 Eh    ::
         :: gradient norm              0.000437857784 Eh/a0 ::
         :: HOMO-LUMO gap              0.007624767758 eV    ::
         :: SCC energy              -208.520587072807 Eh    ::
         :: repulsion energy           3.604914790851 Eh    ::

    * Orbital Energies and Occupations

         #    Occupation            Energy/Eh            Energy/eV
      -------------------------------------------------------------
         1        2.0000           -0.7715586             -20.9952
       ...           ...                  ...                  ...
       180        2.0000           -0.4186297             -11.3915
       181        2.0000           -0.4107320             -11.1766
       182        2.0000           -0.3972166             -10.8088
       183        2.0000           -0.3971929             -10.8082
       184        2.0000           -0.3958790             -10.7724
       185        2.0000           -0.3958081             -10.7705
       186        2.0000           -0.3944631             -10.7339
       187        1.9998           -0.3924169             -10.6782
       188        1.9998           -0.3924021             -10.6778
       189        1.9998           -0.3923540             -10.6765
       190        1.9998           -0.3923387             -10.6761
       191        1.8915           -0.3863364             -10.5127
       192        1.1280           -0.3838651             -10.4455 (HOMO)
       193        0.9813           -0.3835849             -10.4379 (LUMO)
       194                         -0.3397476              -9.2450
       195                         -0.3295002              -8.9662
       196                         -0.3279304              -8.9234
       197                         -0.3278903              -8.9223
       198                         -0.3034163              -8.2564
       199                         -0.3033228              -8.2538
       200                         -0.2946153              -8.0169
       201                         -0.2943084              -8.0085
       202                         -0.2934843              -7.9861
       203                         -0.2776031              -7.5540
       ...                                ...                  ...
       414                          1.6022928              43.6006
      -------------------------------------------------------------
                  HL-Gap            0.0002802 Eh            0.0076 eV

Wiberg/Mayer (AO) data.
largest (>0.10) Wiberg bond orders for each atom

     #   Z sym  total        # sym  WBO       # sym  WBO       # sym  WBO
 ---------------------------------------------------------------------------
     1  27 Co   3.045 --    30 N    0.640     7 N    0.638    12 N    0.635
                            31 N    0.633
     2   6 C    3.929 --     3 C    1.365    29 C    1.365    38 H    0.970
     3   6 C    3.925 --     2 C    1.365     7 N    1.201     4 C    1.174
     4   6 C    3.960 --     5 C    1.649     3 C    1.174    39 H    0.975
     5   6 C    3.963 --     4 C    1.649     6 C    1.177    40 H    0.973
     6   6 C    3.919 --     8 C    1.319     7 N    1.213     5 C    1.177
     7   7 N    3.348 --     6 C    1.213     3 C    1.201     1 Co   0.638
     8   6 C    3.933 --     9 C    1.337     6 C    1.319    32 C    1.020
     9   6 C    3.916 --     8 C    1.337    12 N    1.191    10 C    1.180
    10   6 C    3.958 --    11 C    1.639     9 C    1.180    41 H    0.973
    11   6 C    3.962 --    10 C    1.639    13 C    1.189    42 H    0.973
    12   7 N    3.347 --    13 C    1.233     9 C    1.191     1 Co   0.635
    13   6 C    3.903 --    14 C    1.257    12 N    1.233    11 C    1.189
    14   6 C    3.934 --    13 C    1.257    15 C    1.257   113 C    1.195
    15   6 C    3.903 --    14 C    1.257    31 N    1.231    16 C    1.191
    16   6 C    3.961 --    17 C    1.635    15 C    1.191    43 H    0.973
    17   6 C    3.958 --    16 C    1.635    18 C    1.183    44 H    0.973
    18   6 C    3.917 --    19 C    1.330    31 N    1.194    17 C    1.183
    19   6 C    3.933 --    18 C    1.330    26 C    1.319    20 C    1.029
    20   6 C    3.988 --    25 C    1.394    21 C    1.394    19 C    1.029
                            23 C    0.107
    21   6 C    3.987 --    22 C    1.448    20 C    1.394    45 H    0.973
                            24 C    0.109
    22   6 C    3.995 --    21 C    1.448    23 C    1.437    46 H    0.973
                            25 C    0.109
    23   6 C    3.989 --    24 C    1.437    22 C    1.437    47 H    0.974
                            20 C    0.107
    24   6 C    3.995 --    25 C    1.448    23 C    1.437    48 H    0.973
                            21 C    0.109
    25   6 C    3.988 --    24 C    1.448    20 C    1.394    49 H    0.973
                            22 C    0.109
    26   6 C    3.920 --    19 C    1.319    30 N    1.212    27 C    1.177
    27   6 C    3.963 --    28 C    1.648    26 C    1.177    50 H    0.973
    28   6 C    3.960 --    27 C    1.648    29 C    1.175    51 H    0.975
    29   6 C    3.925 --     2 C    1.365    30 N    1.201    28 C    1.175
    30   7 N    3.345 --    26 C    1.212    29 C    1.201     1 Co   0.640
    31   7 N    3.349 --    15 C    1.231    18 C    1.194     1 Co   0.633
    32   6 C    3.988 --    33 C    1.398    37 C    1.398     8 C    1.020
                            35 C    0.109
    33   6 C    3.988 --    34 C    1.446    32 C    1.398    52 H    0.973
                            36 C    0.110
    34   6 C    3.995 --    33 C    1.446    35 C    1.438    53 H    0.973
                            37 C    0.110
    35   6 C    3.991 --    34 C    1.438    36 C    1.438    54 H    0.974
                            32 C    0.109
    36   6 C    3.995 --    37 C    1.446    35 C    1.438    55 H    0.973
                            33 C    0.110
    37   6 C    3.988 --    36 C    1.446    32 C    1.398    56 H    0.973
                            34 C    0.110
    38   1 H    1.000 --     2 C    0.970
    39   1 H    0.998 --     4 C    0.975
    40   1 H    1.005 --     5 C    0.973
    41   1 H    1.004 --    10 C    0.973
    42   1 H    1.001 --    11 C    0.973
    43   1 H    1.001 --    16 C    0.973
    44   1 H    1.004 --    17 C    0.973
    45   1 H    1.005 --    21 C    0.973
    46   1 H    1.003 --    22 C    0.973
    47   1 H    1.003 --    23 C    0.974
    48   1 H    1.003 --    24 C    0.973
    49   1 H    1.005 --    25 C    0.973
    50   1 H    1.004 --    27 C    0.973
    51   1 H    0.998 --    28 C    0.975
    52   1 H    1.004 --    33 C    0.973
    53   1 H    1.002 --    34 C    0.973
    54   1 H    1.003 --    35 C    0.974
    55   1 H    1.003 --    36 C    0.973
    56   1 H    1.004 --    37 C    0.973
    57  27 Co   3.050 --    86 N    0.641    63 N    0.638    68 N    0.636
                            87 N    0.633
    58   6 C    3.929 --    59 C    1.365    85 C    1.365    94 H    0.970
    59   6 C    3.925 --    58 C    1.365    63 N    1.201    60 C    1.174
    60   6 C    3.960 --    61 C    1.649    59 C    1.174    95 H    0.975
    61   6 C    3.963 --    60 C    1.649    62 C    1.177    96 H    0.973
    62   6 C    3.919 --    64 C    1.319    63 N    1.213    61 C    1.177
    63   7 N    3.348 --    62 C    1.213    59 C    1.201    57 Co   0.638
    64   6 C    3.933 --    65 C    1.337    62 C    1.319    88 C    1.020
    65   6 C    3.916 --    64 C    1.337    68 N    1.190    66 C    1.180
    66   6 C    3.958 --    67 C    1.639    65 C    1.180    97 H    0.973
    67   6 C    3.962 --    66 C    1.639    69 C    1.189    98 H    0.973
    68   7 N    3.347 --    69 C    1.233    65 C    1.190    57 Co   0.636
    69   6 C    3.903 --    70 C    1.257    68 N    1.233    67 C    1.189
    70   6 C    3.934 --    69 C    1.257    71 C    1.257   120 C    1.195
    71   6 C    3.903 --    70 C    1.257    87 N    1.231    72 C    1.191
    72   6 C    3.961 --    73 C    1.635    71 C    1.191    99 H    0.973
    73   6 C    3.958 --    72 C    1.635    74 C    1.183   100 H    0.973
    74   6 C    3.917 --    75 C    1.330    87 N    1.194    73 C    1.183
    75   6 C    3.933 --    74 C    1.330    82 C    1.319    76 C    1.030
    76   6 C    3.988 --    81 C    1.394    77 C    1.393    75 C    1.030
                            79 C    0.107
    77   6 C    3.987 --    78 C    1.448    76 C    1.393   101 H    0.973
                            80 C    0.109
    78   6 C    3.995 --    77 C    1.448    79 C    1.437   102 H    0.973
                            81 C    0.109
    79   6 C    3.989 --    80 C    1.437    78 C    1.437   103 H    0.974
                            76 C    0.107
    80   6 C    3.995 --    81 C    1.448    79 C    1.437   104 H    0.973
                            77 C    0.109
    81   6 C    3.987 --    80 C    1.448    76 C    1.394   105 H    0.973
                            78 C    0.109
    82   6 C    3.920 --    75 C    1.319    86 N    1.212    83 C    1.177
    83   6 C    3.963 --    84 C    1.648    82 C    1.177   106 H    0.973
    84   6 C    3.960 --    83 C    1.648    85 C    1.175   107 H    0.975
    85   6 C    3.925 --    58 C    1.365    86 N    1.201    84 C    1.175
    86   7 N    3.345 --    82 C    1.212    85 C    1.201    57 Co   0.641
    87   7 N    3.349 --    71 C    1.231    74 C    1.194    57 Co   0.633
    88   6 C    3.988 --    93 C    1.398    89 C    1.398    64 C    1.020
                            91 C    0.109
    89   6 C    3.988 --    90 C    1.446    88 C    1.398   108 H    0.973
                            92 C    0.110
    90   6 C    3.995 --    89 C    1.446    91 C    1.438   109 H    0.973
                            93 C    0.110
    91   6 C    3.991 --    90 C    1.438    92 C    1.438   110 H    0.974
                            88 C    0.109
    92   6 C    3.995 --    93 C    1.446    91 C    1.438   111 H    0.973
                            89 C    0.110
    93   6 C    3.988 --    92 C    1.446    88 C    1.398   112 H    0.973
                            90 C    0.110
    94   1 H    1.000 --    58 C    0.970
    95   1 H    0.998 --    60 C    0.975
    96   1 H    1.005 --    61 C    0.973
    97   1 H    1.004 --    66 C    0.973
    98   1 H    1.001 --    67 C    0.973
    99   1 H    1.001 --    72 C    0.973
   100   1 H    1.004 --    73 C    0.973
   101   1 H    1.005 --    77 C    0.973
   102   1 H    1.003 --    78 C    0.973
   103   1 H    1.003 --    79 C    0.974
   104   1 H    1.003 --    80 C    0.973
   105   1 H    1.005 --    81 C    0.973
   106   1 H    1.004 --    83 C    0.973
   107   1 H    0.998 --    84 C    0.975
   108   1 H    1.004 --    89 C    0.973
   109   1 H    1.002 --    90 C    0.973
   110   1 H    1.003 --    91 C    0.974
   111   1 H    1.003 --    92 C    0.973
   112   1 H    1.004 --    93 C    0.973
   113   6 C    3.871 --   114 C    2.429    14 C    1.195   116 C    0.185
   114   6 C    3.931 --   113 C    2.429   115 C    1.352
   115   6 C    3.887 --   116 C    2.323   114 C    1.352   118 C    0.180
   116   6 C    3.920 --   115 C    2.323   117 C    1.377   113 C    0.185
   117   6 C    3.920 --   118 C    2.323   116 C    1.377   120 C    0.185
   118   6 C    3.887 --   117 C    2.323   119 C    1.352   115 C    0.180
   119   6 C    3.930 --   120 C    2.429   118 C    1.352
   120   6 C    3.871 --   119 C    2.429    70 C    1.195   117 C    0.185
 ---------------------------------------------------------------------------

           -------------------------------------------------
          | TOTAL ENERGY             -205.021056707935 Eh   |
          | GRADIENT NORM               0.000437857784 Eh/α |
          | HOMO-LUMO GAP               0.007624767758 eV   |
           -------------------------------------------------

 * finished run on 2022/07/30 at 02:07:47.577
