   * xtb version 6.5.1 (b24c23e) compiled by 'conda@728c89f4b128' on 2022-07-12
          program call               : xtb Fe_Ph3OH_C4_2.xyz --gfn 1 --opt -T 48

   ID    Z sym.   atoms
    1   26 Fe     1, 63
    2    6 C      2-6, 8-11, 13, 15, 17-20, 22-27, 29-32, 34, 36, 38-42,
                  64-68, 70-73, 75, 77, 79-82, 84-89, 91-94, 96, 98, 100-104,
                  125-128
    3    7 N      7, 21, 28, 43, 69, 83, 90, 105
    4    8 O      12, 14, 16, 33, 35, 37, 74, 76, 78, 95, 97, 99
    5    1 H      44-62, 106-124
########################################################################
[WARNING] Please study the warnings concerning your input carefully
-1- prog_main_parseArguments: Unknown option '-T' provided
########################################################################

          :  Hamiltonian                  GFN1-xTB          :
 * total energy  :  -251.4982719 Eh     change       -0.4169380E-08 Eh
 * total energy  :  -251.9503904 Eh     change       -0.4521184E+00 Eh
 * total energy  :  -252.0489366 Eh     change       -0.9854626E-01 Eh
 * total energy  :  -252.1014997 Eh     change       -0.5256307E-01 Eh
 * total energy  :  -252.1214262 Eh     change       -0.1992654E-01 Eh
 * total energy  :  -252.1306230 Eh     change       -0.9196755E-02 Eh
 * total energy  :  -252.1345396 Eh     change       -0.3916589E-02 Eh
 * total energy  :  -252.1358709 Eh     change       -0.1331360E-02 Eh
 * total energy  :  -252.1372665 Eh     change       -0.1395523E-02 Eh
 * total energy  :  -252.1379319 Eh     change       -0.6654977E-03 Eh
 * total energy  :  -252.1419816 Eh     change       -0.1375736E-04 Eh
 * total energy  :  -252.1419935 Eh     change       -0.1187985E-04 Eh
 * total energy  :  -252.1420016 Eh     change       -0.8062060E-05 Eh
 * total energy  :  -252.1420090 Eh     change       -0.7460447E-05 Eh
 * total energy  :  -252.1420170 Eh     change       -0.7998350E-05 Eh
 * total energy  :  -252.1420250 Eh     change       -0.7985167E-05 Eh
 * total energy  :  -252.1420325 Eh     change       -0.7523108E-05 Eh
 * total energy  :  -252.1420387 Eh     change       -0.6186980E-05 Eh
 * total energy  :  -252.1420432 Eh     change       -0.4491332E-05 Eh
   *** GEOMETRY OPTIMIZATION CONVERGED AFTER 59 ITERATIONS ***

 final structure:
================
128
 xtb: 6.5.1 (b24c23e)
Fe          16.00635029198585        0.06373855419085       -0.06352528806364
C           12.61967548987944        0.09728603406353       -0.23933350092164
C           13.26723960615732        1.30855940529747       -0.11431330356385
C           12.58233270789753        2.56356912785018       -0.03973634608731
C           13.53499752478886        3.51853672196556        0.07054670288203
C           14.80176221845204        2.84554598938985        0.04548945197374
N           14.62337014043422        1.49081237542377       -0.03992279972470
C           16.02771404755175        3.49992998393818        0.09789993954225
C           16.04314340817411        4.98212257385274        0.15182350588418
C           15.51219259727612        5.72764448930277       -0.90084849705535
C           15.54342227293693        7.11655247663842       -0.85589250645148
O           15.04098035409979        7.85092400151835       -1.87798596578887
C           16.09812450999447        7.76426840783723        0.24929847222467
O           16.11389370667716        9.13386744979394        0.26645989567839
C           16.62214365645228        7.01922713263524        1.30298580672855
O           17.14543028546290        7.72547576969012        2.35362000395674
C           16.60163911515940        5.63096243055271        1.25653913046131
C           17.24220850583153        2.82774102749305        0.08265165895687
C           18.51454897392903        3.48561110953052        0.05327407276506
C           19.45745320428819        2.51313518840724        0.03990269650047
N           17.41005962696736        1.46337277614545        0.07195937777695
C           18.75890938559199        1.26673707610578        0.05717888670228
C           19.41337818697527        0.02922180636078        0.08056582361715
C           18.73528922208982       -1.19550013172064        0.09187569425981
C           19.40916846879215       -2.45519802814383        0.13137707095903
C           18.44834789381533       -3.40927458136658        0.10662996761768
C           17.18943725087724       -2.72712040570837        0.05345482024221
N           17.38339490717562       -1.36579154208953        0.05316261149824
C           15.96816164077649       -3.37577049011131       -0.05965617082193
C           15.95514080613877       -4.85969642110922       -0.07927888057723
C           16.36791008267160       -5.57906957713331        1.04193033936943
C           16.35658946472737       -6.96900510002235        1.01999582352835
O           16.74838395224492       -7.67922458923015        2.10559497166400
C           15.94061894803056       -7.64300183640755       -0.12950371273876
O           15.94554074471675       -9.01303865201380       -0.12378069039864
C           15.53329101648491       -6.92350046676408       -1.25017066700090
O           15.14443809620678       -7.65425534702263       -2.34179490859552
C           15.53424479549794       -5.53434643111343       -1.22825496545613
C           14.75937430239626       -2.69806276038445       -0.17762373315794
C           13.48640195506323       -3.34971081490686       -0.29090916591439
C           12.55095994650380       -2.37339842972297       -0.35486079183903
C           13.25196047605294       -1.12845040819388       -0.26524749748104
N           14.60150586668027       -1.33849996800074       -0.15608738082319
H           11.53755353113616        0.10822275983165       -0.30754087071103
H           11.51020960329803        2.67760541764239       -0.06360744079011
H           13.40412924960286        4.58416915537993        0.16503640981433
H           15.09413549566354        5.23559303769964       -1.76947221120715
H           15.15765931024314        8.79144214723318       -1.66457726803582
H           16.53288698458484        9.41766063963714        1.09461424875570
H           17.48611000197766        7.12975137219219        3.03379025794424
H           17.00193610528337        5.05676066142218        2.08378064680517
H           18.65865561823325        4.55340812525453        0.02927825368790
H           20.53038605341212        2.61554932965404        0.01602791326149
H           20.47961974514828       -2.57792521793561        0.16689455564196
H           18.57171164919757       -4.47984126681454        0.10762186778804
H           16.68207674492132       -5.06585853046146        1.94154665692683
H           16.66873637374193       -8.62466520058765        1.89681012933120
H           15.63313015612249       -9.31676021072024       -0.99099941893719
H           14.88359114903567       -7.07410568388425       -3.06909830470156
H           15.22910208089748       -4.98012568779547       -2.10804316113214
H           13.33851049829461       -4.41732082235120       -0.30739556422082
H           11.48025570355906       -2.46775076519532       -0.44318031243738
Fe          29.41582149433701       -0.05560360358238       -0.06925706467800
C           32.80226663688983       -0.06716375347956       -0.25075900215951
C           32.15524100602629       -1.28506745713930       -0.26536504526240
C           32.84079505894999       -2.53993363725670       -0.33608897890589
C           31.88866787158129       -3.50178202296269       -0.33561528767036
C           30.62153930055578       -2.83114360327646       -0.28191937750820
N           30.79925717967406       -1.47541660823045       -0.21154419502747
C           29.39590887350645       -3.48799544802930       -0.30196428229063
C           29.38081979331513       -4.96673540872995       -0.41565521620467
C           29.91282343046393       -5.58960177770437       -1.54476699336824
C           29.88175586150728       -6.97481605669178       -1.65572500723221
O           30.38554622433693       -7.59008359632799       -2.75301652103079
C           29.32573345558659       -7.74235600387249       -0.63081941587586
O           29.30984308096711       -9.10521703874663       -0.76744671061920
C           28.80043465541910       -7.12012600634331        0.49913650074595
O           28.27560848724052       -7.93954522653891        1.46324785069099
C           28.82128419614398       -5.73546349722347        0.60875734897376
C           28.18111326796291       -2.81912972390267       -0.23737686019941
C           26.90887247680527       -3.47013310073443       -0.33834384695725
C           25.96558797065612       -2.50310222204540       -0.23824656206334
N           28.01273812855737       -1.46256668186155       -0.09201173557550
C           26.66376141027763       -1.26635452530427       -0.08115842963197
C           26.00905333268325       -0.03976581514425        0.08305890528119
C           26.68687771934743        1.17598290058422        0.23302911729325
C           26.01232273778015        2.42245788893477        0.41678995149461
C           26.97247204524194        3.37408109338305        0.49766040793727
C           28.23172677645709        2.70350114982518        0.36473459089828
N           28.03853425569834        1.35070434916840        0.21092666712954
C           29.45245443939613        3.36175494308743        0.32312157702227
C           29.46457088940469        4.83827597476142        0.47158086235771
C           29.04774750819481        5.42575796332400        1.66584879417275
C           29.05742770751236        6.80919699348292        1.80163729791452
O           28.66116957015115        7.39143358425679        2.95939643760110
C           29.47639395264574        7.60947896902673        0.73737388033200
O           29.46999593085291        8.97001128431393        0.89839275182388
C           29.88811786970063        7.02191371470890       -0.45626010561176
O           30.27991232878517        7.87202280249856       -1.45658266335340
C           29.88830526993365        5.63923927317967       -0.59211416918576
C           30.66143610266795        2.70232805052118        0.12789698953636
C           31.93415364193183        3.36309331803002        0.08890289897328
C           32.87001728453649        2.40062305266082       -0.08477363671296
C           32.16951819173528        1.15327910301308       -0.13665096605613
N           30.81989189647811        1.34910497519481       -0.00440454243957
H           33.88438758743379       -0.06977695880908       -0.31986579534327
H           33.91295082002254       -2.64987491044323       -0.37375597181455
H           32.02028386749750       -4.57111337768879       -0.36435852945605
H           30.33150708786804       -5.00340115978076       -2.35252163823505
H           30.26844439812579       -8.54856863511654       -2.64661519331383
H           28.88956226764236       -9.48001674389495        0.02300374159507
H           27.93347213932657       -7.42365033964927        2.20512154956036
H           28.42035383479395       -5.25763689887760        1.49487511513528
H           26.76487226894741       -4.52825557157194       -0.48378455367106
H           24.89262357343738       -2.60290409768652       -0.27048399588949
H           24.94191218174599        2.53946687947755        0.46903035788697
H           26.84811334962080        4.43751787712866        0.61988765063159
H           28.73163083008466        4.81366694634427        2.50059477344648
H           28.74014992715006        8.35452747051925        2.85939244880814
H           29.78508415027339        9.37033767336241        0.07234484078178
H           30.54455675841316        7.37829710978651       -2.24383219313806
H           30.19642180531245        5.18870620009844       -1.52827071481120
H           32.08175905816975        4.42575450082985        0.19328107294142
H           33.94069074085422        2.50479450846949       -0.16169326702945
C           22.03806644728097        0.00054751360159        0.10149401297356
C           20.81431205898617        0.01643323051700        0.09534056424225
C           23.38432791597839       -0.01280988461031        0.10324737797953
C           24.60808591095251       -0.02832408782760        0.09759879206533

          :  Hamiltonian                  GFN1-xTB          :
         :: total energy            -252.142043218990 Eh    ::
         :: gradient norm              0.000401489423 Eh/a0 ::
         :: HOMO-LUMO gap              0.090032320091 eV    ::
         :: SCC energy              -255.484326943635 Eh    ::
         :: repulsion energy           3.455775914636 Eh    ::

    * Orbital Energies and Occupations

         #    Occupation            Energy/Eh            Energy/eV
      -------------------------------------------------------------
         1        2.0000           -0.8138425             -22.1458
       ...           ...                  ...                  ...
       207        2.0000           -0.4134091             -11.2494
       208        2.0000           -0.4122054             -11.2167
       209        2.0000           -0.4121354             -11.2148
       210        2.0000           -0.3976571             -10.8208
       211        2.0000           -0.3976504             -10.8206
       212        2.0000           -0.3969313             -10.8010
       213        1.9915           -0.3889695             -10.5844
       214        1.9908           -0.3888985             -10.5825
       215        1.9528           -0.3873262             -10.5397
       216        1.9515           -0.3873000             -10.5390
       217        1.9469           -0.3872104             -10.5365
       218        1.9468           -0.3872092             -10.5365
       219        1.7041           -0.3854524             -10.4887 (HOMO)
       220        0.3007           -0.3821438             -10.3987 (LUMO)
       221        0.2150           -0.3817786             -10.3887
       222                         -0.3400202              -9.2524
       223                         -0.3282942              -8.9333
       224                         -0.3282800              -8.9330
       225                         -0.3253958              -8.8545
       226                         -0.3027882              -8.2393
       227                         -0.3027723              -8.2389
       228                         -0.2988559              -8.1323
       229                         -0.2910059              -7.9187
       230                         -0.2653067              -7.2194
       ...                                ...                  ...
       446                          1.5101954              41.0945
      -------------------------------------------------------------
                  HL-Gap            0.0033086 Eh            0.0900 eV

Wiberg/Mayer (AO) data.
largest (>0.10) Wiberg bond orders for each atom

     #   Z sym  total        # sym  WBO       # sym  WBO       # sym  WBO
 ---------------------------------------------------------------------------
     1  26 Fe   3.145 --     7 N    0.668    43 N    0.665    28 N    0.660
                            21 N    0.658
     2   6 C    3.923 --     3 C    1.363    42 C    1.362    44 H    0.970
     3   6 C    3.925 --     2 C    1.363     7 N    1.210     4 C    1.173
     4   6 C    3.959 --     5 C    1.650     3 C    1.173    45 H    0.975
     5   6 C    3.962 --     4 C    1.650     6 C    1.175    46 H    0.973
     6   6 C    3.920 --     8 C    1.314     7 N    1.226     5 C    1.175
     7   7 N    3.380 --     6 C    1.226     3 C    1.210     1 Fe   0.668
     8   6 C    3.925 --    18 C    1.331     6 C    1.314     9 C    1.027
     9   6 C    3.987 --    10 C    1.398    17 C    1.385     8 C    1.027
    10   6 C    3.976 --     9 C    1.398    11 C    1.380    47 H    0.970
    11   6 C    3.917 --    10 C    1.380    13 C    1.323    12 O    1.053
    12   8 O    2.049 --    11 C    1.053    48 H    0.847
    13   6 C    3.903 --    15 C    1.339    11 C    1.323    14 O    1.022
    14   8 O    2.021 --    13 C    1.022    49 H    0.846
    15   6 C    3.905 --    17 C    1.385    13 C    1.339    16 O    1.014
    16   8 O    2.025 --    15 C    1.014    50 H    0.860
    17   6 C    3.973 --     9 C    1.385    15 C    1.385    51 H    0.969
    18   6 C    3.917 --     8 C    1.331    21 N    1.202    19 C    1.181
    19   6 C    3.957 --    20 C    1.636    18 C    1.181    52 H    0.973
    20   6 C    3.960 --    19 C    1.636    22 C    1.190    53 H    0.973
    21   7 N    3.379 --    22 C    1.247    18 C    1.202     1 Fe   0.658
    22   6 C    3.905 --    23 C    1.249    21 N    1.247    20 C    1.190
    23   6 C    3.922 --    24 C    1.250    22 C    1.249   126 C    1.203
    24   6 C    3.905 --    23 C    1.250    28 N    1.248    25 C    1.188
    25   6 C    3.960 --    26 C    1.638    24 C    1.188    54 H    0.973
    26   6 C    3.957 --    25 C    1.638    27 C    1.179    55 H    0.973
    27   6 C    3.917 --    29 C    1.335    28 N    1.201    26 C    1.179
    28   7 N    3.379 --    24 C    1.248    27 C    1.201     1 Fe   0.660
    29   6 C    3.925 --    27 C    1.335    39 C    1.313    30 C    1.024
    30   6 C    3.988 --    31 C    1.399    38 C    1.387    29 C    1.024
    31   6 C    3.977 --    30 C    1.399    32 C    1.379    56 H    0.970
    32   6 C    3.917 --    31 C    1.379    34 C    1.324    33 O    1.053
    33   8 O    2.049 --    32 C    1.053    57 H    0.847
    34   6 C    3.903 --    36 C    1.340    32 C    1.324    35 O    1.021
    35   8 O    2.021 --    34 C    1.021    58 H    0.846
    36   6 C    3.905 --    38 C    1.384    34 C    1.340    37 O    1.014
    37   8 O    2.025 --    36 C    1.014    59 H    0.860
    38   6 C    3.973 --    30 C    1.387    36 C    1.384    60 H    0.969
    39   6 C    3.920 --    29 C    1.313    43 N    1.226    40 C    1.176
    40   6 C    3.962 --    41 C    1.648    39 C    1.176    61 H    0.973
    41   6 C    3.959 --    40 C    1.648    42 C    1.174    62 H    0.975
    42   6 C    3.925 --     2 C    1.362    43 N    1.211    41 C    1.174
    43   7 N    3.379 --    39 C    1.226    42 C    1.211     1 Fe   0.665
    44   1 H    1.001 --     2 C    0.970
    45   1 H    0.997 --     4 C    0.975
    46   1 H    1.005 --     5 C    0.973
    47   1 H    0.999 --    10 C    0.970
    48   1 H    0.877 --    12 O    0.847
    49   1 H    0.876 --    14 O    0.846
    50   1 H    0.880 --    16 O    0.860
    51   1 H    1.000 --    17 C    0.969
    52   1 H    1.005 --    19 C    0.973
    53   1 H    1.002 --    20 C    0.973
    54   1 H    1.002 --    25 C    0.973
    55   1 H    1.005 --    26 C    0.973
    56   1 H    0.999 --    31 C    0.970
    57   1 H    0.877 --    33 O    0.847
    58   1 H    0.876 --    35 O    0.846
    59   1 H    0.881 --    37 O    0.860
    60   1 H    1.000 --    38 C    0.969
    61   1 H    1.005 --    40 C    0.973
    62   1 H    0.998 --    41 C    0.975
    63  26 Fe   3.142 --    69 N    0.667   105 N    0.665    90 N    0.660
                            83 N    0.658
    64   6 C    3.923 --    65 C    1.363   104 C    1.362   106 H    0.970
    65   6 C    3.925 --    64 C    1.363    69 N    1.210    66 C    1.173
    66   6 C    3.959 --    67 C    1.650    65 C    1.173   107 H    0.975
    67   6 C    3.962 --    66 C    1.650    68 C    1.175   108 H    0.973
    68   6 C    3.920 --    70 C    1.314    69 N    1.226    67 C    1.175
    69   7 N    3.379 --    68 C    1.226    65 C    1.210    63 Fe   0.667
    70   6 C    3.925 --    80 C    1.331    68 C    1.314    71 C    1.028
    71   6 C    3.987 --    72 C    1.398    79 C    1.385    70 C    1.028
    72   6 C    3.976 --    71 C    1.398    73 C    1.380   109 H    0.970
    73   6 C    3.917 --    72 C    1.380    75 C    1.323    74 O    1.053
    74   8 O    2.049 --    73 C    1.053   110 H    0.847
    75   6 C    3.903 --    77 C    1.339    73 C    1.323    76 O    1.022
    76   8 O    2.021 --    75 C    1.022   111 H    0.846
    77   6 C    3.905 --    79 C    1.385    75 C    1.339    78 O    1.014
    78   8 O    2.025 --    77 C    1.014   112 H    0.860
    79   6 C    3.973 --    77 C    1.385    71 C    1.385   113 H    0.969
    80   6 C    3.917 --    70 C    1.331    83 N    1.202    81 C    1.181
    81   6 C    3.957 --    82 C    1.636    80 C    1.181   114 H    0.973
    82   6 C    3.960 --    81 C    1.636    84 C    1.190   115 H    0.973
    83   7 N    3.378 --    84 C    1.247    80 C    1.202    63 Fe   0.658
    84   6 C    3.905 --    85 C    1.250    83 N    1.247    82 C    1.190
    85   6 C    3.921 --    86 C    1.250    84 C    1.250   128 C    1.203
    86   6 C    3.905 --    85 C    1.250    90 N    1.248    87 C    1.188
    87   6 C    3.960 --    88 C    1.638    86 C    1.188   116 H    0.973
    88   6 C    3.957 --    87 C    1.638    89 C    1.179   117 H    0.973
    89   6 C    3.917 --    91 C    1.335    90 N    1.201    88 C    1.179
    90   7 N    3.379 --    86 C    1.248    89 C    1.201    63 Fe   0.660
    91   6 C    3.925 --    89 C    1.335   101 C    1.313    92 C    1.025
    92   6 C    3.988 --    93 C    1.399   100 C    1.386    91 C    1.025
    93   6 C    3.977 --    92 C    1.399    94 C    1.380   118 H    0.970
    94   6 C    3.917 --    93 C    1.380    96 C    1.324    95 O    1.053
    95   8 O    2.049 --    94 C    1.053   119 H    0.847
    96   6 C    3.903 --    98 C    1.340    94 C    1.324    97 O    1.021
    97   8 O    2.021 --    96 C    1.021   120 H    0.846
    98   6 C    3.905 --   100 C    1.384    96 C    1.340    99 O    1.014
    99   8 O    2.025 --    98 C    1.014   121 H    0.860
   100   6 C    3.973 --    92 C    1.386    98 C    1.384   122 H    0.969
   101   6 C    3.920 --    91 C    1.313   105 N    1.227   102 C    1.176
   102   6 C    3.962 --   103 C    1.648   101 C    1.176   123 H    0.973
   103   6 C    3.959 --   102 C    1.648   104 C    1.174   124 H    0.975
   104   6 C    3.925 --    64 C    1.362   105 N    1.211   103 C    1.174
   105   7 N    3.379 --   101 C    1.227   104 C    1.211    63 Fe   0.665
   106   1 H    1.001 --    64 C    0.970
   107   1 H    0.997 --    66 C    0.975
   108   1 H    1.005 --    67 C    0.973
   109   1 H    0.999 --    72 C    0.970
   110   1 H    0.877 --    74 O    0.847
   111   1 H    0.875 --    76 O    0.846
   112   1 H    0.880 --    78 O    0.860
   113   1 H    1.000 --    79 C    0.969
   114   1 H    1.005 --    81 C    0.973
   115   1 H    1.002 --    82 C    0.973
   116   1 H    1.002 --    87 C    0.973
   117   1 H    1.005 --    88 C    0.973
   118   1 H    0.999 --    93 C    0.970
   119   1 H    0.877 --    95 O    0.847
   120   1 H    0.876 --    97 O    0.846
   121   1 H    0.881 --    99 O    0.860
   122   1 H    1.000 --   100 C    0.969
   123   1 H    1.006 --   102 C    0.973
   124   1 H    0.998 --   103 C    0.975
   125   6 C    3.922 --   126 C    2.448   127 C    1.326
   126   6 C    3.915 --   125 C    2.448    23 C    1.203   128 C    0.196
   127   6 C    3.922 --   128 C    2.448   125 C    1.326
   128   6 C    3.915 --   127 C    2.448    85 C    1.203   126 C    0.196
 ---------------------------------------------------------------------------

           -------------------------------------------------
          | TOTAL ENERGY             -252.142043218990 Eh   |
          | GRADIENT NORM               0.000401489423 Eh/α |
          | HOMO-LUMO GAP               0.090032320091 eV   |
           -------------------------------------------------

 * finished run on 2022/07/29 at 21:34:46.069
