   * xtb version 6.5.1 (b24c23e) compiled by 'conda@728c89f4b128' on 2022-07-12
          program call               : xtb Zn_Ph2Me_C4_3.xyz --gfn 1 --opt -T 48

   ID    Z sym.   atoms
    1   30 Zn     1, 69, 145
    2    6 C      2-6, 8-11, 13-31, 34-41, 70-74, 76-79, 81-99, 102-109,
                  137-144, 146-150, 152-155, 157-175, 178-185
    3    7 N      7, 12, 32, 33, 75, 80, 100, 101, 151, 156, 176, 177
    4    1 H      42-68, 110-136, 186-211

          :  Hamiltonian                  GFN1-xTB          :
 * total energy  :  -328.1873254 Eh     change        0.5276604E-08 Eh
 * total energy  :  -328.4021595 Eh     change       -0.2148340E+00 Eh
 * total energy  :  -328.4704466 Eh     change       -0.6828714E-01 Eh
 * total energy  :  -328.5131058 Eh     change       -0.4265922E-01 Eh
 * total energy  :  -328.5360069 Eh     change       -0.2290104E-01 Eh
 * total energy  :  -328.5642590 Eh     change       -0.2825217E-01 Eh
 * total energy  :  -328.5961911 Eh     change       -0.3193207E-01 Eh
 * total energy  :  -328.6274281 Eh     change       -0.3123696E-01 Eh
 * total energy  :  -328.6504534 Eh     change       -0.2302535E-01 Eh
 * total energy  :  -328.6744147 Eh     change       -0.2396133E-01 Eh
 * total energy  :  -328.9496610 Eh     change       -0.3023892E-04 Eh
 * total energy  :  -328.9496886 Eh     change       -0.2753923E-04 Eh
 * total energy  :  -328.9497067 Eh     change       -0.1809610E-04 Eh
 * total energy  :  -328.9497206 Eh     change       -0.1395343E-04 Eh
 * total energy  :  -328.9497201 Eh     change        0.5179721E-06 Eh
 * total energy  :  -328.9497306 Eh     change       -0.1048908E-04 Eh
 * total energy  :  -328.9497423 Eh     change       -0.1172369E-04 Eh
 * total energy  :  -328.9497484 Eh     change       -0.6074272E-05 Eh
 * total energy  :  -328.9497525 Eh     change       -0.4081052E-05 Eh
   *** GEOMETRY OPTIMIZATION CONVERGED AFTER 94 ITERATIONS ***

 final structure:
================
211
 xtb: 6.5.1 (b24c23e)
Zn          30.93281545337665        0.06256874722064       -0.11869774289957
C           27.52831947641867        0.15636169894275       -0.30625598012186
C           28.16242871600091        1.34441123091776        0.03759647510443
C           27.49299094812313        2.57486661504572        0.35419281191384
C           28.45418120632981        3.48475219012287        0.65195265772332
C           29.72454276180389        2.82394339695456        0.50943788883337
N           29.51139589423293        1.52643280880075        0.14466303713572
C           30.97625926569076        3.41086131705796        0.73143579986613
C           32.21108693191604        2.76140321233792        0.62757820858228
C           33.49375427439740        3.38573656598035        0.79916488127697
C           34.43520921239822        2.42715844093434        0.60414697102198
N           32.39877827297074        1.43991987880565        0.32032750127528
C           33.73905944274415        1.21003325490330        0.30637566872056
C           34.36338869644817       -0.02594282250150        0.04262935847145
C           33.70378778591717       -1.23257442770185       -0.26676450400033
C           34.36405249746429       -2.47391232697999       -0.54639168626943
C           33.39605376951623       -3.38650202065172       -0.81719769173538
C           32.13296168432311       -2.71172743718085       -0.70049676617724
C           30.88232830039885       -3.29497270538398       -0.92825754561732
C           30.85817925073222       -4.74236582971556       -1.26255868330098
C           30.39085216346000       -5.17231039752349       -2.50227107137547
C           30.36245462375072       -6.52828877709848       -2.81628427144229
C           29.84503437626601       -6.97773441472892       -4.15632097513274
C           30.79927125462325       -7.45456017836531       -1.87619564734981
C           31.26718176550591       -7.04043520840759       -0.63113599353012
C           31.74674678557248       -8.05692453020655        0.36986714315538
C           31.29814835955042       -5.68390598908757       -0.33189245023304
C           29.64960862282893       -2.63474252682180       -0.86433080811950
C           28.36290849022145       -3.24675554563983       -1.06527211054751
C           27.42755329529105       -2.27890022201965       -0.89564124448744
C           28.12963532438198       -1.06644352134119       -0.57981704803282
N           29.47215439753099       -1.31464677289837       -0.56806683132240
N           32.35839986067822       -1.40224110468989       -0.36835608131178
C           30.99409091342156        4.84581342775142        1.11368670878710
C           30.49465101674669        5.81472307271299        0.24392673341812
C           30.50509559970214        7.15838155865539        0.60131527161912
C           29.98554416567270        8.20372910348428       -0.34876185179966
C           31.01931138894189        7.53127718738524        1.84002730890242
C           31.52183185450184        6.57682193627345        2.71886997076135
C           32.05359081209384        6.98641823712572        4.06597607201198
C           31.50722926646265        5.23580023994910        2.34984542624737
H           26.44391822270625        0.18303988069731       -0.35274759129662
H           26.42276230281169        2.71136947702647        0.35393106651933
H           28.31895315717385        4.51131061047268        0.95306045472502
H           33.65216760656777        4.42777399790929        1.02613988537773
H           35.50783901529225        2.52890621732974        0.65165195131195
H           35.43265359101838       -2.61953210668039       -0.54015775942245
H           33.52364194423488       -4.42302161191758       -1.08527094320098
H           30.06136364651234       -4.44051642085404       -3.23189009816029
H           30.11112098220284       -8.01682762066933       -4.34986841536662
H           28.75661973992604       -6.89039410697633       -4.18439324210206
H           30.25294318840842       -6.35534208005808       -4.95385584489161
H           30.77574552015369       -8.51336064571939       -2.11312662135324
H           31.82484813934001       -7.61841713594931        1.36464427591839
H           31.06398140349797       -8.90654349788700        0.41210635900851
H           32.73170576509083       -8.43007719162530        0.08066428686242
H           31.65058214638547       -5.34870570641322        0.63762204998071
H           28.20054327570311       -4.28760502138344       -1.29568920834078
H           26.35478568577673       -2.36838759100916       -0.96770734596160
H           30.11011126795444        5.51392925959414       -0.72459150918009
H           29.48832105847739        9.00760329560347        0.19499945609269
H           29.28139579336061        7.76939268455035       -1.05854537332557
H           30.81405691464503        8.63861003431199       -0.91252656349381
H           31.02819931839556        8.57891023050580        2.12309459190792
H           31.24796588103487        6.96980016606204        4.80368966654642
H           32.46159172571366        7.99684002267495        4.03204853552166
H           32.83313696927555        6.30141095775707        4.40014335498723
H           31.88263616625776        4.48151312553178        3.03286624793940
Zn          57.88892605023420        0.06305531504831       -0.08117663410982
C           61.29312771384640        0.20008818475932       -0.23320826664333
C           60.65376849601986       -0.46710937107762       -1.27138555781544
C           61.31708405462303       -1.11900603349518       -2.36595475581281
C           60.35196011178692       -1.66949228752379       -3.14429765109216
C           59.08535189951915       -1.35295300900674       -2.53903601520447
N           59.30441341557356       -0.62766875731894       -1.40416064551978
C           57.83286719530449       -1.75362725612011       -3.01852571915785
C           56.60191839180312       -1.47878937086766       -2.41327047481641
C           55.31776252109006       -1.85354938052265       -2.93849068958610
C           54.37995824557724       -1.38165948647318       -2.07827544712110
N           56.41887702668853       -0.78033548947169       -1.25003935797899
C           55.07934879151640       -0.70843371783635       -1.02303635636698
C           54.45873278815399       -0.05486021450914        0.05893699951968
C           55.11928541351784        0.63210492320537        1.09519717536367
C           54.46200085938036        1.30312341620956        2.17842214995098
C           55.43312548450355        1.83130928904584        2.96619663996158
C           56.69556949075061        1.48402372473760        2.37364547363458
C           57.94987547485824        1.85103900513509        2.87329469830505
C           57.97613336790656        2.59863521409819        4.15654612029668
C           58.48637893566497        3.89372386353701        4.21194693504890
C           58.51355888776835        4.59259439854525        5.41559453019364
C           59.07898807879592        5.98672411674868        5.46242117611256
C           58.03089862372008        3.98365750510666        6.56851158373507
C           57.51962145072038        2.68850284069538        6.53002820780300
C           56.98837114665459        2.04934911251452        7.78481710106197
C           57.49200355942414        2.00304546984859        5.32169796993941
C           59.18203804637952        1.56800219494183        2.27222464525367
C           60.47232488499061        1.91794724904508        2.80493757955131
C           61.40430303884742        1.46110207915555        1.93146703228271
C           60.69685088425736        0.81688106796054        0.86030302946790
N           59.35453715985849        0.89519165488448        1.09763011282647
N           56.46670523701967        0.76282409389429        1.23277937396204
C           57.80574697671958       -2.53725771547662       -4.28019426827623
C           58.25735805061976       -1.97022211268979       -5.47137691907160
C           58.22541919767432       -2.69677245764139       -6.65639017973103
C           58.68638989699890       -2.07241056049160       -7.94593841580080
C           57.74053082524958       -4.00171066780464       -6.64419543798432
C           57.28894924279007       -4.58251268699987       -5.46340785357748
C           56.78785566139576       -6.00167470853120       -5.45394865108497
C           57.32301068682095       -3.84481324987767       -4.28452223467982
H           62.37760194098392        0.23218292974667       -0.27441690616368
H           62.38628900977933       -1.15129888373096       -2.50666675341200
H           60.48123509469321       -2.24946973815421       -4.04418194959127
H           55.15596137611561       -2.39667966070592       -3.85567452545865
H           53.30759526346325       -1.47172572320302       -2.14873489355337
H           53.39311552478643        1.36164687288090        2.30979398572833
H           55.30835889196860        2.41639493954362        3.86320668603748
H           58.84970028369312        4.36402819036910        3.30459880615152
H           58.78610862251507        6.49670331829951        6.38014192357307
H           60.16997630798837        5.94787643987577        5.42423425900713
H           58.73303515939448        6.57093142146105        4.60880117185363
H           58.05239809579430        4.52234257273792        7.51034996780904
H           56.89034320666408        0.97078917562043        7.66193425879615
H           57.64997139685735        2.24923292935121        8.62862587102671
H           56.00411384021763        2.45834324148946        8.02371982696142
H           57.10662160160118        0.98995881455702        5.28020111061707
H           60.63927281040522        2.43770863074036        3.73487751424724
H           62.47810207279825        1.54041238574471        2.00019506192327
H           58.61924706122574       -0.94776401013391       -5.47105902741167
H           59.18035074840184       -2.81060365672222       -8.57850755279677
H           59.37729067921389       -1.25092556830662       -7.75608279724084
H           57.82839278669597       -1.67688211348694       -8.49443385991003
H           57.71387064052787       -4.57178836032087       -7.56725164213965
H           57.60936818533249       -6.68405230050795       -5.22380862519187
H           56.38021737373629       -6.27682511951627       -6.42688577198101
H           56.01503482730205       -6.13477212900511       -4.69646788261583
H           56.98471201044269       -4.29112863755334       -3.35567932048575
C           36.99023398235799       -0.07808666557824        0.10374077354917
C           35.76859592467432       -0.05475276165843        0.07973758674193
C           38.33969925581302       -0.09863148008933        0.11930066885179
C           39.56206340725011       -0.11198223823881        0.12476500049962
C           50.47727977960171       -0.12823450404085        0.11951996378260
C           49.25602252342710       -0.14343980374549        0.11506537601942
C           51.82941358516576       -0.10971502655351        0.11125613370931
C           53.05019831334182       -0.08205603860382        0.09729105489005
Zn          44.40790698305653       -0.13246634433534        0.10727371525380
C           40.96763251930041       -0.11934680527084        0.12368850072354
C           41.61611526417526        1.12799202696427        0.02022338614828
C           40.94408325745783        2.39126519371448       -0.05614574100668
C           41.90392965682798        3.34538184956594       -0.16684145488669
C           43.17225810489771        2.67172786949737       -0.16539354570896
N           42.96038741106809        1.32478538196049       -0.03943449258678
C           44.41954833444730        3.29867426119675       -0.25674776179406
C           45.66345254884841        2.66137732411619       -0.19595583297755
C           46.93741355825890        3.31235966365331       -0.32364347380147
C           47.89048714925737        2.35195904551976       -0.21213193589809
N           45.86538441543310        1.31789973808943       -0.02626611612410
C           47.20895250873515        1.10437875743115       -0.02933414228787
C           47.84723336416822       -0.14344839673020        0.10915667862277
C           47.20096933454475       -1.38790898905262        0.23672334189539
C           47.87411636840240       -2.64282910321417        0.39867121086024
C           46.91462174244506       -3.59891037542555        0.49173777070102
C           45.64482358088112       -2.93702363868796        0.37844319703918
C           44.39674520958824       -3.56680733828510        0.43620346416455
C           44.39038457799486       -5.04451679875755        0.58862122239110
C           43.83256651903392       -5.62915662443956        1.72388947431388
C           43.82208993444530       -7.01244436618209        1.87522662675851
C           43.23554423578173       -7.63016589204724        3.11603096095573
C           44.37337881131503       -7.81088069744182        0.87898917900404
C           44.93184779145805       -7.24198895772201       -0.26299077099943
C           45.53462260365119       -8.12068360611257       -1.32587276207418
C           44.94000934191214       -5.85900335632754       -0.40136792642706
C           43.15301895179438       -2.92975433374529        0.36893778499654
C           41.87925223244855       -3.59325880420314        0.37827321723233
C           40.92582363141123       -2.63040060411755        0.29005911214797
C           41.60704451625244       -1.37184998499519        0.21778893788282
N           42.95031264985738       -1.57976607993387        0.26115171734341
N           45.85579095515072       -1.59235085583084        0.23140818047451
C           44.42103240370856        4.77169607854445       -0.44817958606219
C           44.98790368868631        5.61217025497897        0.50793960192060
C           44.98819879857049        6.99163745550408        0.32513905081093
C           45.61542622401178        7.88992685119351        1.35706741286922
C           44.42138068031025        7.52742978789449       -0.82668033806250
C           43.85117240389971        6.70101188667805       -1.79117580341410
C           43.25849375716934        7.29078193764994       -3.04252997202422
C           43.85277862461416        5.32478636772424       -1.59559469605630
H           39.87439805239872        2.52446375021087       -0.02331585838246
H           41.76739665251642        4.41291288729737       -0.23120686222522
H           47.08268940815259        4.36787554472123       -0.48831047916051
H           48.96151184280915        2.46914598705177       -0.25892047255165
H           48.94451387376697       -2.76751044509764        0.44151175374693
H           47.05261660486254       -4.65854907583509        0.63507200521081
H           43.41584146675139       -4.99617066453844        2.49981675866554
H           42.96557507075325       -8.67196861796262        2.94301353715565
H           43.96480224769999       -7.59627708156795        3.92864091440381
H           42.34785257581902       -7.08386267402248        3.43660511599196
H           44.36586366229263       -8.89040045024190        0.98996037187000
H           45.64157045196579       -7.57921168718430       -2.26574118346796
H           44.91482421100490       -9.00202579844860       -1.49491885285674
H           46.52420827497311       -8.45952087110622       -1.01105168278113
H           45.35874581832703       -5.40464519621754       -1.29273167306241
H           41.73450233469248       -4.66023072511519        0.43309828302335
H           39.85470319510908       -2.75440749959706        0.26888205088498
H           45.41429651370356        5.18478750946659        1.40898267780642
H           45.20902278309897        8.89942326270471        1.29388686596435
H           46.69422012972527        7.94547031288373        1.19411331834172
H           45.44537278418095        7.50274574364246        2.36213471421287
H           44.42004826680638        8.60257436132882       -0.97420991333954
H           42.79767990166266        8.25697368048480       -2.83517243814893
H           42.50755704672248        6.62518997680485       -3.46846063032128
H           44.04200801212646        7.44227553589618       -3.78858499225483
H           43.42183771766959        4.66945924294018       -2.34473479443104

          :  Hamiltonian                  GFN1-xTB          :
         :: total energy            -328.949752492411 Eh    ::
         :: gradient norm              0.000683951428 Eh/a0 ::
         :: HOMO-LUMO gap              1.001656417555 eV    ::
         :: SCC energy              -334.363373097387 Eh    ::
         :: repulsion energy           5.594716446666 Eh    ::

    * Orbital Energies and Occupations

         #    Occupation            Energy/Eh            Energy/eV
      -------------------------------------------------------------
         1        2.0000           -0.7556598             -20.5625
       ...           ...                  ...                  ...
       293        2.0000           -0.4160903             -11.3224
       294        2.0000           -0.4159778             -11.3193
       295        2.0000           -0.4159443             -11.3184
       296        2.0000           -0.4158865             -11.3168
       297        2.0000           -0.4146233             -11.2825
       298        2.0000           -0.4138729             -11.2621
       299        2.0000           -0.4099476             -11.1552
       300        2.0000           -0.3891241             -10.5886
       301        2.0000           -0.3885958             -10.5742
       302        2.0000           -0.3885840             -10.5739
       303        2.0000           -0.3822878             -10.4026
       304        2.0000           -0.3766851             -10.2501
       305        2.0000           -0.3700828             -10.0705 (HOMO)
       306                         -0.3332726              -9.0688 (LUMO)
       307                         -0.3250645              -8.8455
       308                         -0.3212476              -8.7416
       309                         -0.3209393              -8.7332
       310                         -0.3209151              -8.7325
       311                         -0.3192374              -8.6869
       312                         -0.2944757              -8.0131
       313                         -0.2880942              -7.8394
       314                         -0.2849879              -7.7549
       315                         -0.2548031              -6.9335
       316                         -0.2546288              -6.9288
       ...                                ...                  ...
       684                          1.5238916              41.4672
      -------------------------------------------------------------
                  HL-Gap            0.0368102 Eh            1.0017 eV

Wiberg/Mayer (AO) data.
largest (>0.10) Wiberg bond orders for each atom

     #   Z sym  total        # sym  WBO       # sym  WBO       # sym  WBO
 ---------------------------------------------------------------------------
     1  30 Zn   1.999 --    32 N    0.460     7 N    0.460    12 N    0.457
                            33 N    0.457
     2   6 C    3.926 --    31 C    1.357     3 C    1.357    42 H    0.971
     3   6 C    3.923 --     2 C    1.357     7 N    1.233     4 C    1.171
     4   6 C    3.960 --     5 C    1.658     3 C    1.171    43 H    0.976
     5   6 C    3.963 --     4 C    1.658     6 C    1.173    44 H    0.973
     6   6 C    3.918 --     8 C    1.314     7 N    1.243     5 C    1.173
     7   7 N    3.293 --     6 C    1.243     3 C    1.233     1 Zn   0.460
     8   6 C    3.933 --     9 C    1.324     6 C    1.314    34 C    1.026
     9   6 C    3.913 --     8 C    1.324    12 N    1.225    10 C    1.180
    10   6 C    3.960 --    11 C    1.645     9 C    1.180    45 H    0.973
    11   6 C    3.962 --    10 C    1.645    13 C    1.187    46 H    0.974
    12   7 N    3.297 --    13 C    1.263     9 C    1.225     1 Zn   0.457
    13   6 C    3.904 --    12 N    1.263    14 C    1.254    11 C    1.187
    14   6 C    3.937 --    15 C    1.254    13 C    1.254   138 C    1.189
    15   6 C    3.903 --    33 N    1.263    14 C    1.254    16 C    1.186
    16   6 C    3.962 --    17 C    1.646    15 C    1.186    47 H    0.974
    17   6 C    3.960 --    16 C    1.646    18 C    1.179    48 H    0.974
    18   6 C    3.913 --    19 C    1.325    33 N    1.224    17 C    1.179
    19   6 C    3.933 --    18 C    1.325    28 C    1.315    20 C    1.024
    20   6 C    3.988 --    21 C    1.404    27 C    1.391    19 C    1.024
                            24 C    0.103
    21   6 C    3.987 --    22 C    1.410    20 C    1.404    49 H    0.973
                            25 C    0.104
    22   6 C    3.988 --    24 C    1.423    21 C    1.410    23 C    1.019
                            27 C    0.103
    23   6 C    3.996 --    22 C    1.019    50 H    0.985    52 H    0.979
                            51 H    0.972
    24   6 C    3.989 --    22 C    1.423    25 C    1.408    53 H    0.972
                            20 C    0.103
    25   6 C    3.988 --    27 C    1.424    24 C    1.408    26 C    1.020
                            21 C    0.104
    26   6 C    3.996 --    25 C    1.020    54 H    0.985    55 H    0.980
                            56 H    0.972
    27   6 C    3.987 --    25 C    1.424    20 C    1.391    57 H    0.972
                            22 C    0.103
    28   6 C    3.918 --    19 C    1.315    32 N    1.243    29 C    1.173
    29   6 C    3.963 --    30 C    1.658    28 C    1.173    58 H    0.973
    30   6 C    3.960 --    29 C    1.658    31 C    1.171    59 H    0.976
    31   6 C    3.923 --     2 C    1.357    32 N    1.233    30 C    1.171
    32   7 N    3.294 --    28 C    1.243    31 C    1.233     1 Zn   0.460
    33   7 N    3.297 --    15 C    1.263    18 C    1.224     1 Zn   0.457
    34   6 C    3.988 --    41 C    1.398    35 C    1.395     8 C    1.026
                            38 C    0.103
    35   6 C    3.986 --    36 C    1.419    34 C    1.395    60 H    0.972
                            39 C    0.103
    36   6 C    3.988 --    35 C    1.419    38 C    1.413    37 C    1.019
                            41 C    0.103
    37   6 C    3.996 --    36 C    1.019    62 H    0.984    61 H    0.981
                            63 H    0.971
    38   6 C    3.988 --    39 C    1.417    36 C    1.413    64 H    0.972
                            34 C    0.103
    39   6 C    3.988 --    38 C    1.417    41 C    1.416    40 C    1.020
                            35 C    0.103
    40   6 C    3.996 --    39 C    1.020    66 H    0.983    67 H    0.983
                            65 H    0.971
    41   6 C    3.986 --    39 C    1.416    34 C    1.398    68 H    0.972
                            36 C    0.103
    42   1 H    1.002 --     2 C    0.971
    43   1 H    0.998 --     4 C    0.976
    44   1 H    1.006 --     5 C    0.973
    45   1 H    1.005 --    10 C    0.973
    46   1 H    1.003 --    11 C    0.974
    47   1 H    1.003 --    16 C    0.974
    48   1 H    1.005 --    17 C    0.974
    49   1 H    1.002 --    21 C    0.973
    50   1 H    1.004 --    23 C    0.985
    51   1 H    1.006 --    23 C    0.972
    52   1 H    1.005 --    23 C    0.979
    53   1 H    1.000 --    24 C    0.972
    54   1 H    1.004 --    26 C    0.985
    55   1 H    1.005 --    26 C    0.980
    56   1 H    1.006 --    26 C    0.972
    57   1 H    1.003 --    27 C    0.972
    58   1 H    1.005 --    29 C    0.973
    59   1 H    0.998 --    30 C    0.976
    60   1 H    1.003 --    35 C    0.972
    61   1 H    1.005 --    37 C    0.981
    62   1 H    1.004 --    37 C    0.984
    63   1 H    1.006 --    37 C    0.971
    64   1 H    1.000 --    38 C    0.972
    65   1 H    1.006 --    40 C    0.971
    66   1 H    1.004 --    40 C    0.983
    67   1 H    1.004 --    40 C    0.983
    68   1 H    1.003 --    41 C    0.972
    69  30 Zn   2.000 --   100 N    0.461    75 N    0.460    80 N    0.457
                           101 N    0.457
    70   6 C    3.929 --    99 C    1.357    71 C    1.357   110 H    0.971
    71   6 C    3.923 --    70 C    1.357    75 N    1.233    72 C    1.171
    72   6 C    3.960 --    73 C    1.659    71 C    1.171   111 H    0.976
    73   6 C    3.963 --    72 C    1.659    74 C    1.172   112 H    0.973
    74   6 C    3.919 --    76 C    1.316    75 N    1.243    73 C    1.172
    75   7 N    3.296 --    74 C    1.243    71 C    1.233    69 Zn   0.460
    76   6 C    3.935 --    77 C    1.324    74 C    1.316   102 C    1.024
    77   6 C    3.914 --    76 C    1.324    80 N    1.227    78 C    1.178
    78   6 C    3.961 --    79 C    1.648    77 C    1.178   113 H    0.973
    79   6 C    3.962 --    78 C    1.648    81 C    1.185   114 H    0.974
    80   7 N    3.298 --    81 C    1.259    77 C    1.227    69 Zn   0.457
    81   6 C    3.906 --    82 C    1.261    80 N    1.259    79 C    1.185
    82   6 C    3.939 --    83 C    1.262    81 C    1.261   144 C    1.175
    83   6 C    3.907 --    82 C    1.262   101 N    1.259    84 C    1.185
    84   6 C    3.962 --    85 C    1.648    83 C    1.185   115 H    0.974
    85   6 C    3.961 --    84 C    1.648    86 C    1.178   116 H    0.974
    86   6 C    3.914 --    87 C    1.323   101 N    1.227    85 C    1.178
    87   6 C    3.935 --    86 C    1.323    96 C    1.316    88 C    1.025
    88   6 C    3.988 --    89 C    1.403    95 C    1.391    87 C    1.025
                            92 C    0.103
    89   6 C    3.986 --    90 C    1.411    88 C    1.403   117 H    0.972
                            93 C    0.104
    90   6 C    3.988 --    92 C    1.422    89 C    1.411    91 C    1.019
                            95 C    0.103
    91   6 C    3.996 --    90 C    1.019   118 H    0.985   120 H    0.980
                           119 H    0.972
    92   6 C    3.988 --    90 C    1.422    93 C    1.408   121 H    0.972
                            88 C    0.103
    93   6 C    3.988 --    95 C    1.424    92 C    1.408    94 C    1.020
                            89 C    0.104
    94   6 C    3.996 --    93 C    1.020   122 H    0.985   123 H    0.980
                           124 H    0.972
    95   6 C    3.986 --    93 C    1.424    88 C    1.391   125 H    0.971
                            90 C    0.103
    96   6 C    3.919 --    87 C    1.316   100 N    1.243    97 C    1.172
    97   6 C    3.963 --    98 C    1.659    96 C    1.172   126 H    0.973
    98   6 C    3.961 --    97 C    1.659    99 C    1.171   127 H    0.976
    99   6 C    3.923 --    70 C    1.357   100 N    1.233    98 C    1.171
   100   7 N    3.295 --    96 C    1.243    99 C    1.233    69 Zn   0.461
   101   7 N    3.298 --    83 C    1.259    86 C    1.227    69 Zn   0.457
   102   6 C    3.988 --   109 C    1.399   103 C    1.395    76 C    1.024
                           106 C    0.103
   103   6 C    3.986 --   104 C    1.419   102 C    1.395   128 H    0.972
                           107 C    0.103
   104   6 C    3.988 --   103 C    1.419   106 C    1.413   105 C    1.020
                           109 C    0.104
   105   6 C    3.996 --   104 C    1.020   130 H    0.984   129 H    0.981
                           131 H    0.971
   106   6 C    3.988 --   107 C    1.417   104 C    1.413   132 H    0.972
                           102 C    0.103
   107   6 C    3.988 --   106 C    1.417   109 C    1.415   108 C    1.020
                           103 C    0.103
   108   6 C    3.996 --   107 C    1.020   134 H    0.983   135 H    0.982
                           133 H    0.971
   109   6 C    3.987 --   107 C    1.415   102 C    1.399   136 H    0.972
                           104 C    0.104
   110   1 H    1.002 --    70 C    0.971
   111   1 H    0.998 --    72 C    0.976
   112   1 H    1.005 --    73 C    0.973
   113   1 H    1.005 --    78 C    0.973
   114   1 H    1.003 --    79 C    0.974
   115   1 H    1.002 --    84 C    0.974
   116   1 H    1.005 --    85 C    0.974
   117   1 H    1.003 --    89 C    0.972
   118   1 H    1.004 --    91 C    0.985
   119   1 H    1.006 --    91 C    0.972
   120   1 H    1.005 --    91 C    0.980
   121   1 H    1.000 --    92 C    0.972
   122   1 H    1.004 --    94 C    0.985
   123   1 H    1.005 --    94 C    0.980
   124   1 H    1.006 --    94 C    0.972
   125   1 H    1.003 --    95 C    0.971
   126   1 H    1.006 --    97 C    0.973
   127   1 H    0.998 --    98 C    0.976
   128   1 H    1.003 --   103 C    0.972
   129   1 H    1.005 --   105 C    0.981
   130   1 H    1.004 --   105 C    0.984
   131   1 H    1.006 --   105 C    0.971
   132   1 H    1.000 --   106 C    0.972
   133   1 H    1.006 --   108 C    0.971
   134   1 H    1.004 --   108 C    0.983
   135   1 H    1.004 --   108 C    0.982
   136   1 H    1.003 --   109 C    0.972
   137   6 C    3.934 --   138 C    2.474   139 C    1.309
   138   6 C    3.924 --   137 C    2.474    14 C    1.189   140 C    0.199
   139   6 C    3.932 --   140 C    2.473   137 C    1.309
   140   6 C    3.925 --   139 C    2.473   146 C    1.191   138 C    0.199
   141   6 C    3.930 --   142 C    2.487   143 C    1.295
   142   6 C    3.920 --   141 C    2.487   158 C    1.177   144 C    0.196
   143   6 C    3.932 --   144 C    2.488   141 C    1.295
   144   6 C    3.918 --   143 C    2.488    82 C    1.175   142 C    0.196
   145  30 Zn   1.997 --   151 N    0.457   177 N    0.457   176 N    0.457
                           156 N    0.457
   146   6 C    3.928 --   175 C    1.253   147 C    1.252   140 C    1.191
   147   6 C    3.904 --   151 N    1.263   146 C    1.252   148 C    1.189
   148   6 C    3.960 --   149 C    1.643   147 C    1.189   186 H    0.974
   149   6 C    3.960 --   148 C    1.643   150 C    1.182   187 H    0.973
   150   6 C    3.911 --   152 C    1.320   151 N    1.225   149 C    1.182
   151   7 N    3.293 --   147 C    1.263   150 C    1.225   145 Zn   0.457
   152   6 C    3.930 --   150 C    1.320   153 C    1.320   178 C    1.025
   153   6 C    3.911 --   152 C    1.320   156 N    1.226   154 C    1.181
   154   6 C    3.962 --   155 C    1.644   153 C    1.181   188 H    0.973
   155   6 C    3.960 --   154 C    1.644   157 C    1.187   189 H    0.974
   156   7 N    3.292 --   157 C    1.260   153 C    1.226   145 Zn   0.457
   157   6 C    3.907 --   156 N    1.260   158 C    1.258   155 C    1.187
   158   6 C    3.927 --   159 C    1.259   157 C    1.258   142 C    1.177
   159   6 C    3.907 --   158 C    1.259   177 N    1.259   160 C    1.187
   160   6 C    3.960 --   161 C    1.645   159 C    1.187   190 H    0.974
   161   6 C    3.962 --   160 C    1.645   162 C    1.181   191 H    0.973
   162   6 C    3.911 --   163 C    1.319   177 N    1.226   161 C    1.181
   163   6 C    3.929 --   172 C    1.320   162 C    1.319   164 C    1.025
   164   6 C    3.988 --   165 C    1.401   171 C    1.393   163 C    1.025
                           168 C    0.103
   165   6 C    3.986 --   166 C    1.413   164 C    1.401   192 H    0.972
                           169 C    0.104
   166   6 C    3.988 --   168 C    1.420   165 C    1.413   167 C    1.020
                           171 C    0.103
   167   6 C    3.996 --   166 C    1.020   193 H    0.984   195 H    0.981
                           194 H    0.972
   168   6 C    3.988 --   166 C    1.420   169 C    1.410   196 H    0.972
                           164 C    0.103
   169   6 C    3.988 --   171 C    1.422   168 C    1.410   170 C    1.020
                           165 C    0.104
   170   6 C    3.996 --   169 C    1.020   197 H    0.985   198 H    0.980
                           199 H    0.972
   171   6 C    3.986 --   169 C    1.422   164 C    1.393   200 H    0.972
                           166 C    0.103
   172   6 C    3.911 --   163 C    1.320   176 N    1.225   173 C    1.182
   173   6 C    3.960 --   174 C    1.643   172 C    1.182   201 H    0.973
   174   6 C    3.960 --   173 C    1.643   175 C    1.188   202 H    0.974
   175   6 C    3.904 --   176 N    1.263   146 C    1.253   174 C    1.188
   176   7 N    3.293 --   175 C    1.263   172 C    1.225   145 Zn   0.457
   177   7 N    3.292 --   159 C    1.259   162 C    1.226   145 Zn   0.457
   178   6 C    3.988 --   179 C    1.400   185 C    1.394   152 C    1.025
                           182 C    0.103
   179   6 C    3.986 --   180 C    1.414   178 C    1.400   203 H    0.972
                           183 C    0.104
   180   6 C    3.988 --   182 C    1.419   179 C    1.414   181 C    1.020
                           185 C    0.103
   181   6 C    3.996 --   180 C    1.020   204 H    0.984   206 H    0.981
                           205 H    0.971
   182   6 C    3.988 --   180 C    1.419   183 C    1.412   207 H    0.972
                           178 C    0.103
   183   6 C    3.988 --   185 C    1.420   182 C    1.412   184 C    1.020
                           179 C    0.104
   184   6 C    3.996 --   183 C    1.020   209 H    0.984   208 H    0.982
                           210 H    0.971
   185   6 C    3.986 --   183 C    1.420   178 C    1.394   211 H    0.972
                           180 C    0.103
   186   1 H    1.003 --   148 C    0.974
   187   1 H    1.005 --   149 C    0.973
   188   1 H    1.006 --   154 C    0.973
   189   1 H    1.002 --   155 C    0.974
   190   1 H    1.002 --   160 C    0.974
   191   1 H    1.005 --   161 C    0.973
   192   1 H    1.003 --   165 C    0.972
   193   1 H    1.004 --   167 C    0.984
   194   1 H    1.006 --   167 C    0.972
   195   1 H    1.005 --   167 C    0.981
   196   1 H    1.000 --   168 C    0.972
   197   1 H    1.004 --   170 C    0.985
   198   1 H    1.005 --   170 C    0.980
   199   1 H    1.006 --   170 C    0.972
   200   1 H    1.003 --   171 C    0.972
   201   1 H    1.005 --   173 C    0.973
   202   1 H    1.003 --   174 C    0.974
   203   1 H    1.003 --   179 C    0.972
   204   1 H    1.004 --   181 C    0.984
   205   1 H    1.006 --   181 C    0.971
   206   1 H    1.004 --   181 C    0.981
   207   1 H    1.000 --   182 C    0.972
   208   1 H    1.004 --   184 C    0.982
   209   1 H    1.004 --   184 C    0.984
   210   1 H    1.006 --   184 C    0.971
   211   1 H    1.003 --   185 C    0.972
 ---------------------------------------------------------------------------

           -------------------------------------------------
          | TOTAL ENERGY             -328.949752492411 Eh   |
          | GRADIENT NORM               0.000683951428 Eh/α |
          | HOMO-LUMO GAP               1.001656417555 eV   |
           -------------------------------------------------

 * finished run on 2022/07/30 at 09:36:39.082
