   * xtb version 6.5.1 (b24c23e) compiled by 'conda@728c89f4b128' on 2022-07-12
          program call               : xtb Ni_BSA_C4_2.xyz --gfn 1 --opt -T 48

   ID    Z sym.   atoms
    1   28 Ni     1, 65
    2    6 C      2-6, 8-12, 17-21, 23-28, 30-34, 39-44, 66-70, 72-76, 81-85,
                  87-92, 94-98, 103-108, 129-132
    3    7 N      7, 22, 29, 45, 71, 86, 93, 109
    4   16 S      13, 35, 77, 99
    5    8 O      14-16, 36-38, 78-80, 100-102
    6    1 H      46-64, 110-128
########################################################################
[WARNING] Please study the warnings concerning your input carefully
-1- prog_main_parseArguments: Unknown option '-T' provided
########################################################################

          :  Hamiltonian                  GFN1-xTB          :
 * total energy  :  -268.4568794 Eh     change       -0.1593435E-08 Eh
 * total energy  :  -268.6221402 Eh     change       -0.1652609E+00 Eh
 * total energy  :  -268.6929989 Eh     change       -0.7085864E-01 Eh
 * total energy  :  -268.7232034 Eh     change       -0.3020450E-01 Eh
 * total energy  :  -268.7381865 Eh     change       -0.1498317E-01 Eh
 * total energy  :  -268.7480015 Eh     change       -0.9814915E-02 Eh
 * total energy  :  -268.7545524 Eh     change       -0.6550972E-02 Eh
 * total energy  :  -268.7600290 Eh     change       -0.5476588E-02 Eh
 * total energy  :  -268.7644840 Eh     change       -0.4454963E-02 Eh
 * total energy  :  -268.7670823 Eh     change       -0.2598313E-02 Eh
 * total energy  :  -268.7747973 Eh     change       -0.1820802E-04 Eh
 * total energy  :  -268.7748056 Eh     change       -0.8229000E-05 Eh
 * total energy  :  -268.7748221 Eh     change       -0.1647811E-04 Eh
 * total energy  :  -268.7748292 Eh     change       -0.7179015E-05 Eh
 * total energy  :  -268.7748364 Eh     change       -0.7154935E-05 Eh
 * total energy  :  -268.7748385 Eh     change       -0.2116016E-05 Eh
 * total energy  :  -268.7748431 Eh     change       -0.4570298E-05 Eh
 * total energy  :  -268.7748487 Eh     change       -0.5596179E-05 Eh
 * total energy  :  -268.7748522 Eh     change       -0.3575175E-05 Eh
   *** GEOMETRY OPTIMIZATION CONVERGED AFTER 57 ITERATIONS ***

 final structure:
================
132
 xtb: 6.5.1 (b24c23e)
Ni          17.02196565473617        0.03525011182094        0.05605369544736
C           13.63150379923644        0.13628313366180        0.10035476987608
C           14.28138318481752       -0.30681158334442        1.23336801654068
C           13.60360738386612       -0.75515064584463        2.41152281899681
C           14.55900855899059       -1.01239777705283        3.33486420777229
C           15.81969630604394       -0.70754740804431        2.72308026803406
N           15.64112277307103       -0.31355708180507        1.42096769629873
C           17.03798852057914       -0.75713602160946        3.38809556116725
C           17.04732276977454       -1.10342941524127        4.82920786326156
C           16.39713688097187       -0.28408044494863        5.75521179411170
C           16.40552960240240       -0.60263948244859        7.10322623157304
C           17.06453282689050       -1.75106440008672        7.51100723175578
S           17.08412253393624       -2.15697482409970        9.21639988468762
O           16.87491811854503       -0.98896980821350       10.02012432529505
O           15.72976241639740       -3.05268141576858        9.25968572428611
O           18.19398068440080       -3.00999220395882        9.52487825242019
C           17.71978433859634       -2.58206473261358        6.61685091215019
C           17.70997718281484       -2.25082106366232        5.27195981718966
C           18.24846155271807       -0.49227636382293        2.76105054059611
C           19.50969356817424       -0.47224351783507        3.43830977663911
C           20.45758658541695       -0.26714574201997        2.49257677437832
N           18.41990973120181       -0.25778173965271        1.41603799734019
C           19.77323726772555       -0.15534469861150        1.24387765977824
C           20.43271056264954       -0.03931844565475        0.01765342796306
C           19.75142832138009        0.09707114524724       -1.19458989290443
C           20.41141054013073        0.16942136013927       -2.45912169923991
C           19.45151873109109        0.40426256407185       -3.38569682325157
C           18.20821462388195        0.48606087118230       -2.68046428372796
N           18.40006742432929        0.25485388197201       -1.33754407202501
C           16.99783522202730        0.80756320940812       -3.28087333621741
C           16.98994292658992        1.14339879529705       -4.72433573888788
C           16.26371284016470        0.36205207157247       -5.62620649878780
C           16.25349523851642        0.67289673936259       -6.97612977822581
C           16.97380270332759        1.77344898467040       -7.41085553068524
S           16.95119982706799        2.18155699930267       -9.11665933690001
O           17.22707362807409        3.57450278992040       -9.31730287961693
O           18.26666020342206        1.35449558633479       -9.58719155231962
O           15.79892054795514        1.61057035905777       -9.74638445786151
C           17.69929912920336        2.57017438665346       -6.53990196373408
C           17.70615928165051        2.24776238525124       -5.19289644310907
C           15.79616199100247        0.83134377500757       -2.58463220705753
C           14.54028167520728        1.20943504008668       -3.16481503619073
C           13.59659832498856        1.01907252142649       -2.21374776861940
C           14.27715617139874        0.53598395280189       -1.05098564791119
N           15.62918261092419        0.45730956566755       -1.27517380432368
H           12.54848408054475        0.17049004721987        0.11486599342734
H           12.53359169447707       -0.85394303798281        2.50063769342312
H           14.43505887216298       -1.37812404246150        4.34118361645364
H           15.89700519924381        0.61559668815478        5.41622009277497
H           15.91479409242932        0.03087458693874        7.83138032075250
H           15.58038345694368       -3.38926857060415       10.15161711437032
H           18.23003440229882       -3.46878348325539        6.97146316628436
H           18.20876759191389       -2.89169265923006        4.55432668440896
H           19.64202213605389       -0.59336985837409        4.50097005833577
H           21.52647812256435       -0.19741913601544        2.61355956012404
H           21.47336014613312        0.05311604063329       -2.60325920832874
H           19.56483555280316        0.50903013808099       -4.45228920252358
H           15.71510745057507       -0.50077302593960       -5.26699385631380
H           15.69360705147165        0.07481308773241       -7.68402511936686
H           18.61119207296947        1.71675387498485      -10.41242344887241
H           18.24131034205475        3.43054050133712       -6.91201753920137
H           18.25735552389112        2.86478703247661       -4.49289477423197
H           14.41140759387263        1.57594410055450       -4.17018769535058
H           12.53281263574791        1.18420091737242       -2.27449216931269
Ni          30.44782376952281        0.05347629990171       -0.03897622381212
C           33.83828428301767        0.16360604749267       -0.04301281223987
C           33.18833466101207        0.17052819615786       -1.25952258118122
C           33.86603600575599        0.18933013368502       -2.52000769967809
C           32.91057229533361        0.29144648116041       -3.47299010236532
C           31.64991398814719        0.34854002937462       -2.79177681769497
N           31.82858622483275        0.23354901629782       -1.43625912553716
C           30.43155892458898        0.54788601051247       -3.42802827511524
C           30.42220978427716        0.75841932347128       -4.89511452328069
C           31.07226946667397        1.86193564514200       -5.45299234570359
C           31.06400437745881        2.06371123885994       -6.82336352345683
C           30.40524320149322        1.14695137147113       -7.62650082713634
S           30.38587903209150        1.39944128275498       -9.36125579225597
O           30.59505850754364        2.78168048948818       -9.67688993918847
O           31.74033527386378        0.58306762793679       -9.73203137458881
O           29.27613877052201        0.72053759602225       -9.96303884310854
C           29.75008289152134        0.04439232912387       -7.10251588485431
C           29.75976296873714       -0.14444187294282       -5.73036843396842
C           29.22108183721334        0.56205519110200       -2.74748975383121
C           27.95982256264316        0.83072641870580       -3.36944432091955
C           27.01197099903625        0.67202818463583       -2.41478367999244
N           29.04969011776790        0.28324006519786       -1.41097200042597
C           27.69637281370101        0.31487022603534       -1.21308245218097
C           27.03694302546277       -0.02994904420728       -0.03055522334483
C           27.71829224766212       -0.35087807269348        1.14628232834175
C           27.05833139134879       -0.75065075013738        2.34818694090702
C           28.01831483609563       -0.87511239606707        3.29581764518971
C           29.26164989706518       -0.53890949644649        2.67052448605889
N           29.06967468505863       -0.25748413276447        1.33727259867955
C           30.47209098132085       -0.46204812194623        3.34711543053809
C           30.48004159535126       -0.68275530980829        4.81260972603110
C           31.20609404022868       -1.74189207685555        5.36245583318574
C           31.21626015466105       -1.95110213664676        6.73180561954703
C           30.49610204313608       -1.08852824569198        7.54199902023083
S           30.51831951021074       -1.33992136590455        9.27783035975927
O           30.24238495811680       -0.12018691657210        9.97982213617785
O           29.20266863445087       -2.28209222779577        9.40901558327829
O           31.67047485343102       -2.10364861241888        9.65132129426475
C           29.77085823382401       -0.02645039597603        7.02656650702699
C           29.76408974621822        0.17096842941700        5.65565137082849
C           31.67375361729739       -0.18280984041904        2.70886613573162
C           32.92964167354368       -0.04572946351204        3.38764303801774
C           33.87327667493079        0.12889417832870        2.43351378655360
C           33.19268503434402        0.10953144259927        1.17456452916339
N           31.84066998552881       -0.04654866912091        1.35384937389437
H           34.92130150227577        0.20083904494257       -0.04391358651535
H           34.93604654023436        0.13050123347622       -2.63938006256734
H           33.03447779797058        0.32348466521630       -4.54323283052852
H           31.57222140353658        2.57291852773094       -4.80567616826659
H           31.55468145017860        2.92141605567170       -7.26602368939664
H           31.88981168756015        0.59967933234389      -10.68519869938999
H           29.24002114860937       -0.64878263820257       -7.75956667596273
H           29.26106676509784       -1.00511253063376       -5.30018992787535
H           27.82743714299823        1.11060360201994       -4.40170797703961
H           25.94307575187638        0.78151840264319       -2.50137048031201
H           25.99632391914886       -0.91151133668027        2.43934366037570
H           27.90503682596365       -1.17189497906033        4.32563631877167
H           31.75452978741977       -2.41139793042481        4.71019485379741
H           31.77597594031890       -2.76828768644182        7.16907889526690
H           28.85513184717502       -2.24722785448273       10.30839000126650
H           29.22897937039460        0.63599680684987        7.68990640824583
H           29.21311375742665        1.00287025678808        5.23267713733251
H           33.05851388555866       -0.07663733722995        4.45729217113253
H           34.93704678486593        0.26007943235999        2.55091849519444
C           23.05951706175587       -0.06592909797243       -0.00852840007630
C           21.83840904598218       -0.05743141683835        0.00338134172796
C           24.41010634177502       -0.06348997930703       -0.01747974754030
C           25.63124888147910       -0.05239429494458       -0.02415700801502

          :  Hamiltonian                  GFN1-xTB          :
         :: total energy            -268.774852247941 Eh    ::
         :: gradient norm              0.000587925711 Eh/a0 ::
         :: HOMO-LUMO gap              1.238626314055 eV    ::
         :: SCC energy              -272.287549341076 Eh    ::
         :: repulsion energy           3.633927328602 Eh    ::

    * Orbital Energies and Occupations

         #    Occupation            Energy/Eh            Energy/eV
      -------------------------------------------------------------
         1        2.0000           -1.0372256             -28.2243
       ...           ...                  ...                  ...
       221        2.0000           -0.4417465             -12.0205
       222        2.0000           -0.4162299             -11.3262
       223        2.0000           -0.4162180             -11.3259
       224        2.0000           -0.4158588             -11.3161
       225        2.0000           -0.4158564             -11.3160
       226        2.0000           -0.4150599             -11.2944
       227        2.0000           -0.4149709             -11.2919
       228        2.0000           -0.4149695             -11.2919
       229        2.0000           -0.4139027             -11.2629
       230        2.0000           -0.4139000             -11.2628
       231        2.0000           -0.4138006             -11.2601
       232        2.0000           -0.4137994             -11.2601
       233        2.0000           -0.4028543             -10.9622 (HOMO)
       234                         -0.3573356              -9.7236 (LUMO)
       235                         -0.3493231              -9.5056
       236                         -0.3493216              -9.5055
       237                         -0.3459373              -9.4134
       238                         -0.3459169              -9.4129
       239                         -0.3435752              -9.3492
       240                         -0.3213961              -8.7456
       241                         -0.3180085              -8.6535
       242                         -0.3105060              -8.4493
       243                         -0.3104725              -8.4484
       244                         -0.3062050              -8.3323
       ...                                ...                  ...
       482                          1.5025452              40.8863
      -------------------------------------------------------------
                  HL-Gap            0.0455187 Eh            1.2386 eV

Wiberg/Mayer (AO) data.
largest (>0.10) Wiberg bond orders for each atom

     #   Z sym  total        # sym  WBO       # sym  WBO       # sym  WBO
 ---------------------------------------------------------------------------
     1  28 Ni   3.012 --    45 N    0.664     7 N    0.664    29 N    0.660
                            22 N    0.660
     2   6 C    3.936 --    44 C    1.365     3 C    1.364    46 H    0.970
     3   6 C    3.921 --     2 C    1.364     7 N    1.213     4 C    1.174
     4   6 C    3.960 --     5 C    1.651     3 C    1.174    47 H    0.975
     5   6 C    3.963 --     4 C    1.651     6 C    1.175    48 H    0.973
     6   6 C    3.921 --     8 C    1.323     7 N    1.222     5 C    1.175
     7   7 N    3.402 --     6 C    1.222     3 C    1.213     1 Ni   0.664
     8   6 C    3.938 --    19 C    1.326     6 C    1.323     9 C    1.028
     9   6 C    3.986 --    10 C    1.391    18 C    1.391     8 C    1.028
    10   6 C    3.987 --    11 C    1.450     9 C    1.391    49 H    0.971
                            17 C    0.106
    11   6 C    3.989 --    10 C    1.450    12 C    1.407    50 H    0.967
                            18 C    0.106
    12   6 C    3.931 --    11 C    1.407    17 C    1.407    13 S    0.754
    13  16 S    5.265 --    14 O    1.720    16 O    1.719    15 O    1.013
                            12 C    0.754
    14   8 O    2.079 --    13 S    1.720    16 O    0.139
    15   8 O    2.087 --    13 S    1.013    51 H    0.827
    16   8 O    2.078 --    13 S    1.719    14 O    0.139
    17   6 C    3.989 --    18 C    1.450    12 C    1.407    52 H    0.967
                            10 C    0.106
    18   6 C    3.987 --    17 C    1.450     9 C    1.391    53 H    0.971
                            11 C    0.106
    19   6 C    3.915 --     8 C    1.326    22 N    1.208    20 C    1.183
    20   6 C    3.959 --    21 C    1.637    19 C    1.183    54 H    0.973
    21   6 C    3.961 --    20 C    1.637    23 C    1.190    55 H    0.973
    22   7 N    3.406 --    23 C    1.237    19 C    1.208     1 Ni   0.660
    23   6 C    3.903 --    24 C    1.266    22 N    1.237    21 C    1.190
    24   6 C    3.945 --    23 C    1.266    25 C    1.265   130 C    1.180
    25   6 C    3.903 --    24 C    1.265    29 N    1.237    26 C    1.191
    26   6 C    3.961 --    27 C    1.636    25 C    1.191    56 H    0.973
    27   6 C    3.959 --    26 C    1.636    28 C    1.183    57 H    0.973
    28   6 C    3.915 --    30 C    1.326    29 N    1.208    27 C    1.183
    29   7 N    3.406 --    25 C    1.237    28 C    1.208     1 Ni   0.660
    30   6 C    3.938 --    28 C    1.326    41 C    1.322    31 C    1.028
    31   6 C    3.986 --    32 C    1.392    40 C    1.390    30 C    1.028
    32   6 C    3.987 --    33 C    1.449    31 C    1.392    58 H    0.971
                            39 C    0.106
    33   6 C    3.989 --    32 C    1.449    34 C    1.408    59 H    0.966
                            40 C    0.106
    34   6 C    3.931 --    33 C    1.408    39 C    1.407    35 S    0.753
    35  16 S    5.269 --    38 O    1.729    36 O    1.713    37 O    1.016
                            34 C    0.753
    36   8 O    2.072 --    35 S    1.713    38 O    0.138
    37   8 O    2.090 --    35 S    1.016    60 H    0.827
    38   8 O    2.087 --    35 S    1.729    36 O    0.138
    39   6 C    3.989 --    40 C    1.450    34 C    1.407    61 H    0.967
                            32 C    0.106
    40   6 C    3.987 --    39 C    1.450    31 C    1.390    62 H    0.971
                            33 C    0.106
    41   6 C    3.921 --    30 C    1.322    45 N    1.222    42 C    1.175
    42   6 C    3.963 --    43 C    1.651    41 C    1.175    63 H    0.973
    43   6 C    3.960 --    42 C    1.651    44 C    1.173    64 H    0.974
    44   6 C    3.921 --     2 C    1.365    45 N    1.212    43 C    1.173
    45   7 N    3.402 --    41 C    1.222    44 C    1.212     1 Ni   0.664
    46   1 H    1.000 --     2 C    0.970
    47   1 H    0.997 --     4 C    0.975
    48   1 H    1.003 --     5 C    0.973
    49   1 H    1.003 --    10 C    0.971
    50   1 H    0.999 --    11 C    0.967
    51   1 H    0.854 --    15 O    0.827
    52   1 H    0.999 --    17 C    0.967
    53   1 H    1.003 --    18 C    0.971
    54   1 H    1.003 --    20 C    0.973
    55   1 H    1.001 --    21 C    0.973
    56   1 H    1.001 --    26 C    0.973
    57   1 H    1.003 --    27 C    0.973
    58   1 H    1.003 --    32 C    0.971
    59   1 H    0.999 --    33 C    0.966
    60   1 H    0.854 --    37 O    0.827
    61   1 H    0.999 --    39 C    0.967
    62   1 H    1.003 --    40 C    0.971
    63   1 H    1.003 --    42 C    0.973
    64   1 H    0.997 --    43 C    0.974
    65  28 Ni   3.012 --   109 N    0.664    71 N    0.664    93 N    0.660
                            86 N    0.660
    66   6 C    3.936 --   108 C    1.365    67 C    1.364   110 H    0.970
    67   6 C    3.921 --    66 C    1.364    71 N    1.213    68 C    1.174
    68   6 C    3.960 --    69 C    1.651    67 C    1.174   111 H    0.975
    69   6 C    3.963 --    68 C    1.651    70 C    1.175   112 H    0.973
    70   6 C    3.921 --    72 C    1.323    71 N    1.222    69 C    1.175
    71   7 N    3.402 --    70 C    1.222    67 C    1.213    65 Ni   0.664
    72   6 C    3.938 --    83 C    1.326    70 C    1.323    73 C    1.028
    73   6 C    3.986 --    74 C    1.391    82 C    1.391    72 C    1.028
    74   6 C    3.987 --    75 C    1.450    73 C    1.391   113 H    0.971
                            81 C    0.106
    75   6 C    3.989 --    74 C    1.450    76 C    1.407   114 H    0.967
                            82 C    0.106
    76   6 C    3.931 --    75 C    1.407    81 C    1.407    77 S    0.754
    77  16 S    5.265 --    78 O    1.720    80 O    1.719    79 O    1.013
                            76 C    0.754
    78   8 O    2.079 --    77 S    1.720    80 O    0.139
    79   8 O    2.087 --    77 S    1.013   115 H    0.827
    80   8 O    2.078 --    77 S    1.719    78 O    0.139
    81   6 C    3.989 --    82 C    1.450    76 C    1.407   116 H    0.967
                            74 C    0.106
    82   6 C    3.987 --    81 C    1.450    73 C    1.391   117 H    0.971
                            75 C    0.106
    83   6 C    3.915 --    72 C    1.326    86 N    1.208    84 C    1.183
    84   6 C    3.959 --    85 C    1.637    83 C    1.183   118 H    0.973
    85   6 C    3.961 --    84 C    1.637    87 C    1.190   119 H    0.973
    86   7 N    3.406 --    87 C    1.237    83 C    1.208    65 Ni   0.660
    87   6 C    3.903 --    88 C    1.265    86 N    1.237    85 C    1.190
    88   6 C    3.945 --    87 C    1.265    89 C    1.265   132 C    1.180
    89   6 C    3.903 --    88 C    1.265    93 N    1.237    90 C    1.191
    90   6 C    3.961 --    91 C    1.636    89 C    1.191   120 H    0.973
    91   6 C    3.959 --    90 C    1.636    92 C    1.183   121 H    0.973
    92   6 C    3.915 --    94 C    1.326    93 N    1.208    91 C    1.183
    93   7 N    3.406 --    89 C    1.237    92 C    1.208    65 Ni   0.660
    94   6 C    3.938 --    92 C    1.326   105 C    1.322    95 C    1.028
    95   6 C    3.986 --    96 C    1.392   104 C    1.390    94 C    1.028
    96   6 C    3.987 --    97 C    1.449    95 C    1.392   122 H    0.971
                           103 C    0.106
    97   6 C    3.989 --    96 C    1.449    98 C    1.408   123 H    0.966
                           104 C    0.106
    98   6 C    3.932 --    97 C    1.408   103 C    1.407    99 S    0.753
    99  16 S    5.270 --   102 O    1.729   100 O    1.713   101 O    1.016
                            98 C    0.753
   100   8 O    2.072 --    99 S    1.713   102 O    0.138
   101   8 O    2.090 --    99 S    1.016   124 H    0.827
   102   8 O    2.087 --    99 S    1.729   100 O    0.138
   103   6 C    3.989 --   104 C    1.450    98 C    1.407   125 H    0.967
                            96 C    0.106
   104   6 C    3.987 --   103 C    1.450    95 C    1.390   126 H    0.971
                            97 C    0.106
   105   6 C    3.921 --    94 C    1.322   109 N    1.222   106 C    1.175
   106   6 C    3.963 --   107 C    1.651   105 C    1.175   127 H    0.973
   107   6 C    3.960 --   106 C    1.651   108 C    1.173   128 H    0.974
   108   6 C    3.921 --    66 C    1.365   109 N    1.212   107 C    1.173
   109   7 N    3.402 --   105 C    1.222   108 C    1.212    65 Ni   0.664
   110   1 H    1.000 --    66 C    0.970
   111   1 H    0.997 --    68 C    0.975
   112   1 H    1.003 --    69 C    0.973
   113   1 H    1.003 --    74 C    0.971
   114   1 H    0.999 --    75 C    0.967
   115   1 H    0.854 --    79 O    0.827
   116   1 H    0.999 --    81 C    0.967
   117   1 H    1.003 --    82 C    0.971
   118   1 H    1.003 --    84 C    0.973
   119   1 H    1.002 --    85 C    0.973
   120   1 H    1.001 --    90 C    0.973
   121   1 H    1.003 --    91 C    0.973
   122   1 H    1.003 --    96 C    0.971
   123   1 H    0.999 --    97 C    0.966
   124   1 H    0.854 --   101 O    0.827
   125   1 H    0.999 --   103 C    0.967
   126   1 H    1.003 --   104 C    0.971
   127   1 H    1.003 --   106 C    0.973
   128   1 H    0.997 --   107 C    0.974
   129   6 C    3.938 --   130 C    2.487   131 C    1.302
   130   6 C    3.928 --   129 C    2.487    24 C    1.180   132 C    0.200
   131   6 C    3.938 --   132 C    2.487   129 C    1.302
   132   6 C    3.928 --   131 C    2.487    88 C    1.180   130 C    0.200
 ---------------------------------------------------------------------------

           -------------------------------------------------
          | TOTAL ENERGY             -268.774852247941 Eh   |
          | GRADIENT NORM               0.000587925711 Eh/α |
          | HOMO-LUMO GAP               1.238626314055 eV   |
           -------------------------------------------------

 * finished run on 2022/07/30 at 10:56:40.403
