   * xtb version 6.5.1 (b24c23e) compiled by 'conda@728c89f4b128' on 2022-07-12
          program call               : xtb Co_PhCN_C6_2.xyz --gfn 1 --opt -T 48

   ID    Z sym.   atoms
    1   27 Co     1, 59
    2    6 C      2-6, 8-13, 15-19, 21-26, 28-33, 35-40, 60-64, 66-71, 73-77,
                  79-84, 86-91, 93-98, 117-122
    3    7 N      7, 14, 20, 27, 34, 41, 65, 72, 78, 85, 92, 99
    4    1 H      42-58, 100-116
########################################################################
[WARNING] Please study the warnings concerning your input carefully
-1- prog_main_parseArguments: Unknown option '-T' provided
########################################################################

          :  Hamiltonian                  GFN1-xTB          :
 * total energy  :  -218.3019402 Eh     change       -0.7305232E-09 Eh
 * total energy  :  -219.4820405 Eh     change       -0.1180100E+01 Eh
 * total energy  :  -219.6221172 Eh     change       -0.1400767E+00 Eh
 * total energy  :  -219.6875954 Eh     change       -0.6547823E-01 Eh
 * total energy  :  -219.7226880 Eh     change       -0.3509252E-01 Eh
 * total energy  :  -219.7390646 Eh     change       -0.1637667E-01 Eh
 * total energy  :  -219.7499466 Eh     change       -0.1088192E-01 Eh
 * total energy  :  -219.7574289 Eh     change       -0.7482378E-02 Eh
 * total energy  :  -219.7616903 Eh     change       -0.4261320E-02 Eh
 * total energy  :  -219.7657217 Eh     change       -0.4031412E-02 Eh
 * total energy  :  -219.7786524 Eh     change       -0.3610970E-04 Eh
 * total energy  :  -219.7786869 Eh     change       -0.3450561E-04 Eh
 * total energy  :  -219.7787150 Eh     change       -0.2805831E-04 Eh
 * total energy  :  -219.7787349 Eh     change       -0.1988830E-04 Eh
 * total energy  :  -219.7787523 Eh     change       -0.1744622E-04 Eh
 * total energy  :  -219.7787622 Eh     change       -0.9892519E-05 Eh
 * total energy  :  -219.7787773 Eh     change       -0.1508980E-04 Eh
 * total energy  :  -219.7787856 Eh     change       -0.8242424E-05 Eh
 * total energy  :  -219.7787905 Eh     change       -0.4973231E-05 Eh
   *** GEOMETRY OPTIMIZATION CONVERGED AFTER 44 ITERATIONS ***

 final structure:
================
122
 xtb: 6.5.1 (b24c23e)
Co          15.63660672685155        0.01528615655676        0.03172928967117
C           12.26295760487206        0.03865227715634        0.15979341487064
C           12.92363103405497        1.24608884288860        0.09412950828703
C           12.26386283449253        2.51566647808210        0.05942302500826
C           13.22720974698481        3.45727387940034        0.19114786087628
C           14.47357861004185        2.75992448922341        0.31844757404349
N           14.28381839335112        1.40785057149113        0.18764127681726
C           15.67819968175066        3.37021640096328        0.64046223556826
C           15.69221213847617        4.82146819091618        0.93179618552041
C           14.93132938914225        5.33667648018985        1.98400943888564
C           14.94324353685538        6.69094700375219        2.26466701262331
C           15.71533618068520        7.56048685671425        1.48837404914052
C           15.72497292355262        8.95567282865668        1.77131492003851
N           15.73180255643518       10.08245850002671        2.00487050044900
C           16.47568254478218        7.05021919965806        0.43208746742492
C           16.46512572106742        5.69347740367690        0.16193385814968
C           16.86594489216154        2.65718229592298        0.70846239403791
C           18.12326376190431        3.22486784592318        1.09153318388437
C           19.06339890964497        2.27390555199846        0.87404388966241
N           17.02855104528330        1.34717921937922        0.32069842519086
C           18.37707765040629        1.12737496822764        0.36930350418149
C           19.02886478256681       -0.00380474417326       -0.12690065583548
C           18.32484323623460       -1.12298475659731       -0.57568588456858
C           18.95413266871445       -2.27739642520968       -1.13422021733009
C           17.98533455339428       -3.21166517651854       -1.28818944547867
C           16.76902006213185       -2.62758721361973       -0.80867853310513
N           16.97887029593816       -1.31952079717215       -0.43535263313767
C           15.58281789517247       -3.32683713484223       -0.64413900788272
C           15.55325014719908       -4.77811680994307       -0.93501239104260
C           14.70023537692698       -5.28304822622052       -1.91917435783846
C           14.66749524577674       -6.63803071667851       -2.19530425729305
C           15.48647342566636       -7.51828839335422       -1.48190631120814
C           15.45222370687414       -8.91394083556013       -1.76067577894245
N           15.42367223582908      -10.04168085502716       -1.98757040650448
C           16.33882137320488       -7.01823160081664       -0.49299639441099
C           16.37234106361468       -5.66098646358525       -0.22771313186030
C           14.41844054944800       -2.70545579371881       -0.21274881478133
C           13.18248065999780       -3.39038682825101        0.02969790194589
C           12.24602054881314       -2.43938155920403        0.25604279679452
C           12.91283165522443       -1.17663975798529        0.16209725737737
N           14.25463592347346       -1.35192414964934       -0.06811847189088
H           11.18068763838993        0.04511839336400        0.21119900265382
H           11.19868122776595        2.64745860971678       -0.04425441559893
H           13.11827518883766        4.52959614140844        0.20519681062163
H           14.34050221424064        4.66350285872425        2.59487918177934
H           14.35577022792813        7.08278887044463        3.08670921937554
H           17.07195392974603        7.72204954615732       -0.17411505973494
H           17.04756687402342        5.30267409971546       -0.66473254638107
H           18.25781870662289        4.22264632276312        1.47617129866088
H           20.12867281471142        2.33035947488065        1.02940605736998
H           20.00441069320981       -2.34902015418006       -1.36661403134098
H           18.07477626733378       -4.20964364584504       -1.68527753889588
H           14.07117543444048       -4.60179176611174       -2.48091386910551
H           14.00819215552732       -7.02187674149285       -2.96497003919928
H           16.97112782856334       -7.69863221664296        0.06522979506593
H           17.02621175393707       -5.27787165887670        0.54749656731550
H           13.06112526356224       -4.46145639890027        0.02311426140732
H           11.19459646886068       -2.56117730454686        0.46198149611266
Co          31.59178623099221       -0.01388480873522        0.03335728828992
C           34.96501212109165       -0.03173074162407        0.16400668466279
C           34.30377228856320       -1.24066731531223        0.16195063960686
C           34.96268442356445       -2.51075818658141        0.19444644595384
C           33.99878421315275       -3.44341520634986        0.37635599739447
C           32.75287855589974       -2.73949088509849        0.46701292435488
N           32.94350802047896       -1.39647294320335        0.26414591187519
C           31.54807644060571       -3.33068383497782        0.82238169330223
C           31.53330877445762       -4.76416138948940        1.19111900133378
C           32.29648457421693       -5.22336605276744        2.26721598693528
C           32.28433979287216       -6.56088453455046        2.61956527296089
C           31.50954055745661       -7.46971770982512        1.89279756227300
C           31.49779776188678       -8.84757612582912        2.25060185278070
N           31.49255074739802       -9.96150751806056        2.53901844106354
C           30.74629473280788       -7.01553109709507        0.81306948005959
C           30.75736739364139       -5.67525121423227        0.47091660043200
C           30.36093769427676       -2.61388782287852        0.85307011772498
C           29.10354384607548       -3.15834467795903        1.26831032667994
C           28.16399656006925       -2.21982471131876        0.99990765317261
N           30.19903642087947       -1.32706142536600        0.39419761115252
C           28.85068741789963       -1.10356583946160        0.43187397066318
C           28.19992797343936       -0.00128730152754       -0.12693641628434
C           28.90516412066507        1.08985568286347       -0.63842627496785
C           28.27719033064690        2.21110380075742       -1.26222029071671
C           29.24659401176186        3.13496983303804       -1.46691282774284
C           30.46186572108941        2.57858623805913       -0.95307989662676
N           30.25098623011325        1.29339862856143       -0.50773090939884
C           31.64759560496164        3.28606817786703       -0.82394359048820
C           31.67680853093700        4.71937565664957       -1.19316361402844
C           32.53231042499068        5.17147354984136       -2.20059548292085
C           32.56332268882221        6.50938155179839       -2.55028670820829
C           31.74026770268546        7.42571951510054       -1.88877999689790
C           31.77349336057437        8.80416591055356       -2.24301679304577
N           31.80269333458941        9.91777964100487       -2.53115693346589
C           30.88536610143832        6.97874218807481       -0.87699458479436
C           30.85358052520925        5.63795642203037       -0.53805276637430
C           32.81086887207033        2.68916511784643       -0.35648110901786
C           34.04648965698971        3.38592119999571       -0.14859171703239
C           34.98243292005755        2.44819511895655        0.12955371740883
C           34.31559734109094        1.18226874450937        0.10178605526866
N           32.97418081981309        1.34526883404647       -0.13938879726057
H           36.04725940117068       -0.03597107849765        0.21610798890676
H           36.02772626852529       -2.64870041258725        0.09754307073636
H           34.10717739001202       -4.51353939244780        0.44727829768302
H           32.88944409350657       -4.51928459254163        2.83998221085646
H           32.87358717616148       -6.90855789640393        3.46000028624071
H           30.14764659902652       -7.71826041330135        0.24544580501298
H           30.17304935070807       -5.32832655985473       -0.37378775665644
H           28.96856037497541       -4.13324971028822        1.70757065610269
H           27.09886135298554       -2.26652278991216        1.15941955956637
H           27.22733582084776        2.26985872708168       -1.50006440834580
H           29.15808599486915        4.10899570770081       -1.91977379808357
H           33.16447936852732        4.46182028637168       -2.72225665060681
H           33.22428792956845        6.85208929183070       -3.33772584627663
H           30.24959258469676        7.68718817901894       -0.35905056693466
H           30.19763323385980        5.29640255711965        0.25464270602138
H           34.16792148736904        4.45513331338296       -0.21192491452704
H           36.03353825945694        2.58064051105137        0.33049228718029
C           24.22854013183871       -0.00100056056557       -0.20778619485206
C           23.00029569903561       -0.01213379233213       -0.20759638158945
C           21.65577127564768       -0.01080493996614       -0.19356952225784
C           20.43230115947006       -0.01445759862348       -0.17027205764544
C           25.57307067297903        0.00171047862249       -0.19417541927507
C           26.79653255782457        0.00897558263974       -0.17130234481130

          :  Hamiltonian                  GFN1-xTB          :
         :: total energy            -219.778790527586 Eh    ::
         :: gradient norm              0.000894630575 Eh/a0 ::
         :: HOMO-LUMO gap              0.005487524254 eV    ::
         :: SCC energy              -223.541749133661 Eh    ::
         :: repulsion energy           3.873200831290 Eh    ::

    * Orbital Energies and Occupations

         #    Occupation            Energy/Eh            Energy/eV
      -------------------------------------------------------------
         1        2.0000           -0.7836930             -21.3254
       ...           ...                  ...                  ...
       192        2.0000           -0.4337576             -11.8031
       193        2.0000           -0.4299815             -11.7004
       194        2.0000           -0.4093678             -11.1395
       195        2.0000           -0.4093590             -11.1392
       196        2.0000           -0.4088066             -11.1242
       197        2.0000           -0.4088027             -11.1241
       198        1.9998           -0.4056835             -11.0392
       199        1.9998           -0.4053889             -11.0312
       200        1.9998           -0.4053851             -11.0311
       201        1.9997           -0.4052578             -11.0276
       202        1.9997           -0.4052546             -11.0275
       203        1.9157           -0.3997765             -10.8785
       204        1.0957           -0.3969909             -10.8027 (HOMO)
       205        0.9898           -0.3967892             -10.7972 (LUMO)
       206                         -0.3493507              -9.5063
       207                         -0.3417495              -9.2995
       208                         -0.3417187              -9.2986
       209                         -0.3415306              -9.2935
       210                         -0.3161621              -8.6032
       211                         -0.3143769              -8.5546
       212                         -0.3072057              -8.3595
       213                         -0.3069964              -8.3538
       214                         -0.3050900              -8.3019
       215                         -0.3050846              -8.3018
       ...                                ...                  ...
       430                          1.5658043              42.6077
      -------------------------------------------------------------
                  HL-Gap            0.0002017 Eh            0.0055 eV

Wiberg/Mayer (AO) data.
largest (>0.10) Wiberg bond orders for each atom

     #   Z sym  total        # sym  WBO       # sym  WBO       # sym  WBO
 ---------------------------------------------------------------------------
     1  27 Co   3.051 --     7 N    0.643    41 N    0.639    27 N    0.637
                            20 N    0.634
     2   6 C    3.932 --     3 C    1.366    40 C    1.365    42 H    0.969
     3   6 C    3.923 --     2 C    1.366     7 N    1.199     4 C    1.174
     4   6 C    3.960 --     5 C    1.650     3 C    1.174    43 H    0.975
     5   6 C    3.963 --     4 C    1.650     6 C    1.175    44 H    0.973
     6   6 C    3.920 --     8 C    1.319     7 N    1.212     5 C    1.175
     7   7 N    3.347 --     6 C    1.212     3 C    1.199     1 Co   0.643
     8   6 C    3.934 --    17 C    1.328     6 C    1.319     9 C    1.031
     9   6 C    3.963 --    16 C    1.386    10 C    1.384     8 C    1.031
    10   6 C    3.987 --    11 C    1.464     9 C    1.384    45 H    0.971
                            15 C    0.102
    11   6 C    3.993 --    10 C    1.464    12 C    1.364    46 H    0.972
                            16 C    0.102
    12   6 C    3.984 --    15 C    1.365    11 C    1.364    13 C    1.098
    13   6 C    3.958 --    14 N    2.820    12 C    1.098
    14   7 N    2.973 --    13 C    2.820
    15   6 C    3.993 --    16 C    1.463    12 C    1.365    47 H    0.972
                            10 C    0.102
    16   6 C    3.987 --    15 C    1.463     9 C    1.386    48 H    0.971
                            11 C    0.102
    17   6 C    3.916 --     8 C    1.328    20 N    1.195    18 C    1.182
    18   6 C    3.958 --    19 C    1.636    17 C    1.182    49 H    0.973
    19   6 C    3.961 --    18 C    1.636    21 C    1.190    50 H    0.973
    20   7 N    3.350 --    21 C    1.227    17 C    1.195     1 Co   0.634
    21   6 C    3.903 --    22 C    1.261    20 N    1.227    19 C    1.190
    22   6 C    3.938 --    23 C    1.263    21 C    1.261   120 C    1.186
    23   6 C    3.903 --    22 C    1.263    27 N    1.227    24 C    1.190
    24   6 C    3.961 --    25 C    1.638    23 C    1.190    51 H    0.973
    25   6 C    3.959 --    24 C    1.638    26 C    1.181    52 H    0.973
    26   6 C    3.916 --    28 C    1.330    27 N    1.194    25 C    1.181
    27   7 N    3.349 --    23 C    1.227    26 C    1.194     1 Co   0.637
    28   6 C    3.934 --    26 C    1.330    37 C    1.318    29 C    1.031
    29   6 C    3.963 --    36 C    1.385    30 C    1.385    28 C    1.031
    30   6 C    3.987 --    31 C    1.464    29 C    1.385    53 H    0.971
                            35 C    0.102
    31   6 C    3.993 --    30 C    1.464    32 C    1.364    54 H    0.972
                            36 C    0.102
    32   6 C    3.984 --    35 C    1.364    31 C    1.364    33 C    1.098
    33   6 C    3.958 --    34 N    2.820    32 C    1.098
    34   7 N    2.973 --    33 C    2.820
    35   6 C    3.993 --    36 C    1.463    32 C    1.364    55 H    0.972
                            30 C    0.102
    36   6 C    3.987 --    35 C    1.463    29 C    1.385    56 H    0.971
                            31 C    0.102
    37   6 C    3.920 --    28 C    1.318    41 N    1.213    38 C    1.176
    38   6 C    3.963 --    39 C    1.649    37 C    1.176    57 H    0.973
    39   6 C    3.959 --    38 C    1.649    40 C    1.175    58 H    0.975
    40   6 C    3.923 --     2 C    1.365    41 N    1.199    39 C    1.175
    41   7 N    3.349 --    37 C    1.213    40 C    1.199     1 Co   0.639
    42   1 H    1.000 --     2 C    0.969
    43   1 H    0.997 --     4 C    0.975
    44   1 H    1.003 --     5 C    0.973
    45   1 H    1.003 --    10 C    0.971
    46   1 H    1.000 --    11 C    0.972
    47   1 H    1.000 --    15 C    0.972
    48   1 H    1.003 --    16 C    0.971
    49   1 H    1.003 --    18 C    0.973
    50   1 H    1.001 --    19 C    0.973
    51   1 H    1.001 --    24 C    0.973
    52   1 H    1.003 --    25 C    0.973
    53   1 H    1.003 --    30 C    0.971
    54   1 H    1.000 --    31 C    0.972
    55   1 H    1.000 --    35 C    0.972
    56   1 H    1.003 --    36 C    0.971
    57   1 H    1.003 --    38 C    0.973
    58   1 H    0.997 --    39 C    0.975
    59  27 Co   3.052 --    65 N    0.643    99 N    0.639    85 N    0.637
                            78 N    0.634
    60   6 C    3.932 --    61 C    1.366    98 C    1.365   100 H    0.969
    61   6 C    3.923 --    60 C    1.366    65 N    1.199    62 C    1.174
    62   6 C    3.960 --    63 C    1.650    61 C    1.174   101 H    0.975
    63   6 C    3.963 --    62 C    1.650    64 C    1.175   102 H    0.973
    64   6 C    3.920 --    66 C    1.319    65 N    1.212    63 C    1.175
    65   7 N    3.347 --    64 C    1.212    61 C    1.199    59 Co   0.643
    66   6 C    3.934 --    75 C    1.328    64 C    1.319    67 C    1.032
    67   6 C    3.963 --    74 C    1.385    68 C    1.385    66 C    1.032
    68   6 C    3.987 --    69 C    1.464    67 C    1.385   103 H    0.971
                            73 C    0.102
    69   6 C    3.993 --    68 C    1.464    70 C    1.364   104 H    0.972
                            74 C    0.102
    70   6 C    3.984 --    73 C    1.364    69 C    1.364    71 C    1.098
    71   6 C    3.958 --    72 N    2.820    70 C    1.098
    72   7 N    2.973 --    71 C    2.820
    73   6 C    3.993 --    74 C    1.464    70 C    1.364   105 H    0.972
                            68 C    0.102
    74   6 C    3.987 --    73 C    1.464    67 C    1.385   106 H    0.971
                            69 C    0.102
    75   6 C    3.916 --    66 C    1.328    78 N    1.195    76 C    1.182
    76   6 C    3.958 --    77 C    1.636    75 C    1.182   107 H    0.973
    77   6 C    3.961 --    76 C    1.636    79 C    1.190   108 H    0.973
    78   7 N    3.350 --    79 C    1.227    75 C    1.195    59 Co   0.634
    79   6 C    3.903 --    80 C    1.261    78 N    1.227    77 C    1.190
    80   6 C    3.938 --    81 C    1.263    79 C    1.261   122 C    1.186
    81   6 C    3.903 --    80 C    1.263    85 N    1.227    82 C    1.190
    82   6 C    3.961 --    83 C    1.638    81 C    1.190   109 H    0.973
    83   6 C    3.959 --    82 C    1.638    84 C    1.181   110 H    0.973
    84   6 C    3.916 --    86 C    1.330    85 N    1.194    83 C    1.181
    85   7 N    3.349 --    81 C    1.227    84 C    1.194    59 Co   0.637
    86   6 C    3.934 --    84 C    1.330    95 C    1.318    87 C    1.031
    87   6 C    3.963 --    94 C    1.385    88 C    1.385    86 C    1.031
    88   6 C    3.987 --    89 C    1.464    87 C    1.385   111 H    0.971
                            93 C    0.102
    89   6 C    3.993 --    88 C    1.464    90 C    1.364   112 H    0.972
                            94 C    0.102
    90   6 C    3.984 --    93 C    1.365    89 C    1.364    91 C    1.098
    91   6 C    3.958 --    92 N    2.820    90 C    1.098
    92   7 N    2.973 --    91 C    2.820
    93   6 C    3.993 --    94 C    1.463    90 C    1.365   113 H    0.972
                            88 C    0.102
    94   6 C    3.987 --    93 C    1.463    87 C    1.385   114 H    0.971
                            89 C    0.102
    95   6 C    3.920 --    86 C    1.318    99 N    1.212    96 C    1.176
    96   6 C    3.963 --    97 C    1.649    95 C    1.176   115 H    0.973
    97   6 C    3.959 --    96 C    1.649    98 C    1.175   116 H    0.975
    98   6 C    3.923 --    60 C    1.365    99 N    1.199    97 C    1.175
    99   7 N    3.349 --    95 C    1.212    98 C    1.199    59 Co   0.639
   100   1 H    0.999 --    60 C    0.969
   101   1 H    0.997 --    62 C    0.975
   102   1 H    1.003 --    63 C    0.973
   103   1 H    1.003 --    68 C    0.971
   104   1 H    1.000 --    69 C    0.972
   105   1 H    1.000 --    73 C    0.972
   106   1 H    1.003 --    74 C    0.971
   107   1 H    1.003 --    76 C    0.973
   108   1 H    1.001 --    77 C    0.973
   109   1 H    1.001 --    82 C    0.973
   110   1 H    1.003 --    83 C    0.973
   111   1 H    1.003 --    88 C    0.971
   112   1 H    1.000 --    89 C    0.972
   113   1 H    1.000 --    93 C    0.972
   114   1 H    1.003 --    94 C    0.971
   115   1 H    1.003 --    96 C    0.973
   116   1 H    0.997 --    97 C    0.975
   117   6 C    3.921 --   118 C    2.368   121 C    1.333   120 C    0.189
   118   6 C    3.921 --   117 C    2.368   119 C    1.333   122 C    0.189
   119   6 C    3.932 --   120 C    2.450   118 C    1.333
   120   6 C    3.886 --   119 C    2.450    22 C    1.186   117 C    0.189
   121   6 C    3.932 --   122 C    2.450   117 C    1.333
   122   6 C    3.886 --   121 C    2.450    80 C    1.186   118 C    0.189
 ---------------------------------------------------------------------------

           -------------------------------------------------
          | TOTAL ENERGY             -219.778790527586 Eh   |
          | GRADIENT NORM               0.000894630575 Eh/α |
          | HOMO-LUMO GAP               0.005487524254 eV   |
           -------------------------------------------------

 * finished run on 2022/07/30 at 08:43:17.661
