   * xtb version 6.5.1 (b24c23e) compiled by 'conda@728c89f4b128' on 2022-07-12
          program call               : xtb PhCN_C4_3.xyz --gfn 1 --opt -T 48

   ID    Z sym.   atoms
    1    6 C      1-5, 7-12, 14-18, 20-25, 27-32, 34-39, 60-64, 66-71, 73-77,
                  79-84, 86-91, 93-98, 119-131, 133-138, 140-144, 146-151,
                  153-158, 160-165
    2    7 N      6, 13, 19, 26, 33, 40, 65, 72, 78, 85, 92, 99, 132, 139,
                  145, 152, 159, 166
    3    1 H      41-59, 100-118, 167-184
########################################################################
[WARNING] Please study the warnings concerning your input carefully
-1- prog_main_parseArguments: Unknown option '-T' provided
########################################################################

          :  Hamiltonian                  GFN1-xTB          :
 * total energy  :  -317.5339302 Eh     change       -0.1504532E-07 Eh
 * total energy  :  -319.0516219 Eh     change       -0.1517692E+01 Eh
 * total energy  :  -319.2930203 Eh     change       -0.2413984E+00 Eh
 * total energy  :  -319.4307323 Eh     change       -0.1377120E+00 Eh
 * total energy  :  -319.4984631 Eh     change       -0.6773078E-01 Eh
 * total energy  :  -319.5373928 Eh     change       -0.3892969E-01 Eh
 * total energy  :  -319.5627835 Eh     change       -0.2539066E-01 Eh
 * total energy  :  -319.5801053 Eh     change       -0.1732180E-01 Eh
 * total energy  :  -319.5913070 Eh     change       -0.1120169E-01 Eh
 * total energy  :  -319.6006818 Eh     change       -0.9374850E-02 Eh
 * total energy  :  -319.6387325 Eh     change       -0.1920019E-04 Eh
 * total energy  :  -319.6387574 Eh     change       -0.2482359E-04 Eh
 * total energy  :  -319.6387980 Eh     change       -0.4064611E-04 Eh
 * total energy  :  -319.6388269 Eh     change       -0.2891895E-04 Eh
 * total energy  :  -319.6388423 Eh     change       -0.1541493E-04 Eh
 * total energy  :  -319.6388514 Eh     change       -0.9068358E-05 Eh
 * total energy  :  -319.6388584 Eh     change       -0.7015193E-05 Eh
 * total energy  :  -319.6388667 Eh     change       -0.8325044E-05 Eh
 * total energy  :  -319.6388701 Eh     change       -0.3367212E-05 Eh
   *** GEOMETRY OPTIMIZATION CONVERGED AFTER 68 ITERATIONS ***

 final structure:
================
184
 xtb: 6.5.1 (b24c23e)
C           29.00098739042329        0.10298193890453        0.02761896539634
C           29.61162869609802        1.34974903676631       -0.01218722003391
C           28.96206827525333        2.61614179410790       -0.00142169126086
C           29.92368628514640        3.58358853337306       -0.07958897667710
C           31.19176326803277        2.93880661004774       -0.15227203494324
N           30.95337660429366        1.59532349028889       -0.09283330191783
C           32.45412438751606        3.53494464293572       -0.25444320768947
C           32.48853060677703        5.01345534953109       -0.34649775712918
C           33.16888913746153        5.76589660775498        0.61431980521251
C           33.19987248357610        7.14650148033904        0.53695489647813
C           32.55085432810091        7.80459760334479       -0.51208974531564
C           32.58245621673290        9.22522792558940       -0.59636731122447
N           32.61064156922451       10.37350258805149       -0.66579899694512
C           31.87096001452937        7.05667402294995       -1.47794059235459
C           31.84005511526476        5.67641211118632       -1.39138951650112
C           33.66753768865835        2.84160113063859       -0.27389093336618
C           34.96179282237475        3.47403636182418       -0.45714207397203
C           35.88069802825932        2.48810747764218       -0.39669640330729
N           33.82027858293170        1.49656247399771       -0.13486345025876
C           35.14611707440881        1.25540964265843       -0.18736147124339
C           35.78179800076104        0.00743404738509       -0.03360992090230
C           35.14641775591496       -1.23898288493856        0.11821940943338
C           35.79037536412709       -2.49267810511734        0.29247419459873
C           34.82432696691921       -3.45849416422921        0.35183175567112
C           33.55963453286756       -2.82318873274492        0.20748220269839
N           33.80560773114362       -1.48171218724364        0.08462804066650
C           32.29773981338599       -3.42836954991610        0.20628477675580
C           32.26765700259075       -4.90677477170840        0.29110605664814
C           31.60844136667039       -5.54543975533068        1.34451108827560
C           31.58252752817873       -6.92594251641072        1.42656092485056
C           32.21521781172957       -7.69881626474528        0.44821215166479
C           32.18932027157535       -9.11974620509232        0.52874277838074
N           32.17001970230054      -10.26855503246046        0.59275824390221
C           32.87412106297722       -7.06526120372799       -0.60967076902675
C           32.90030403801122       -5.68429373872233       -0.68250289825214
C           31.08175238968199       -2.74008846511901        0.13066056816577
C           29.77707463271031       -3.38172479493197        0.07577949501428
C           28.86525353596600       -2.38976172577456        0.03266883231408
C           29.61182727461371       -1.14390330578844        0.04564789885993
N           30.94352311299112       -1.39393617235262        0.09099383761251
H           27.91582155326217        0.11409839636106        0.04327154303876
H           27.89484369046232        2.75524293176764        0.06454633274968
H           29.77380758741427        4.65101965352613       -0.07791191570322
H           31.67758141594527        0.88501718448693       -0.10744897799164
H           33.66211572429624        5.26022931626589        1.43672330315915
H           33.72512833170988        7.72299550170627        1.28941609475373
H           31.37057267833907        7.56287666129135       -2.29516379987075
H           31.32462923917217        5.10026728132943       -2.15161652829958
H           35.12306385062163        4.52654870172257       -0.62497494308450
H           36.95242844444319        2.56040679525494       -0.49050890516273
H           36.85738516382852       -2.62787475721753        0.36579045258533
H           34.97155277818913       -4.51656166175790        0.49449428440848
H           33.08353508854874       -0.77585905140884       -0.01548345117735
H           31.12935511744638       -4.95019164817704        2.11355043257000
H           31.07410793177358       -7.41353282814921        2.25008147742976
H           33.36213289171345       -7.66064638550610       -1.37246616699857
H           33.39979428760225       -5.19781261906653       -1.51283252598235
H           29.60712297429895       -4.44619574457166        0.05875766735474
H           27.79005558956748       -2.46226231603989       -0.01482601364633
C           62.62842032219547       -0.08474948465492        0.05755711250546
C           62.01841794980104       -1.28874693506838        0.38480573726019
C           62.66944627391411       -2.50235230633156        0.74404100282679
C           61.70718273952900       -3.44552868010284        0.97040159611102
C           60.43707364446116       -2.84050515033759        0.74764813789644
N           60.67537346769147       -1.53921402340631        0.40867144339533
C           59.17338901138697       -3.43022255700315        0.86727552102725
C           59.14087951978716       -4.87132635884880        1.21249010821507
C           58.51147800556807       -5.30747291418640        2.38090207089801
C           58.47967270360878       -6.65188509470502        2.70465537094801
C           59.07630904861553       -7.59128080225469        1.85823431734095
C           59.04113674437462       -8.97595312774926        2.18656360935414
N           59.01036981590271      -10.09460037780703        2.45471620716653
C           59.70639118009473       -7.16040610240350        0.68705617615660
C           59.73895376093151       -5.81373932159569        0.37243232998917
C           57.95802850225559       -2.76646240169582        0.68096979033918
C           56.66021699489242       -3.41389924340636        0.75234083842514
C           55.74129520199469       -2.45420144185666        0.51952635134247
N           57.80606659491954       -1.44597442312697        0.38815825132909
C           56.47903132777287       -1.22602636793493        0.29408511277461
C           55.84429562376003        0.00049224257060        0.01373829585288
C           56.47947892969499        1.22381907870705       -0.26921427994655
C           55.83468658936780        2.46443136783974       -0.51839099609305
C           56.80121894371341        3.40298905552596       -0.75152019074713
C           58.06739740787911        2.76045425842123       -0.66167644737923
N           57.82099204677420        1.44762609723334       -0.35922972224860
C           59.33061426203593        3.34121239767068       -0.81993670471588
C           59.36620296338848        4.77941007041018       -1.17341537068844
C           60.00347646932637        5.69808558486478       -0.33536308660832
C           60.03883804553492        7.04216499847428       -0.65961188581291
C           59.43772444799703        7.49526246211705       -1.83784007338441
C           59.47487484194735        8.87755607630079       -2.17566487107783
N           59.50307309656720        9.99548106694710       -2.44707969299953
C           58.80058526243678        6.58028873767812       -2.68129239129851
C           58.76483117486410        5.23819741935021       -2.34810930391319
C           60.54670173178618        2.66551076277985       -0.66816731364937
C           61.85197046800962        3.26651634908536       -0.89668880651275
C           62.76382351015304        2.30559703560539       -0.64723370497597
C           62.01700839781542        1.11565386307122       -0.27866798594827
N           60.68500798206241        1.36674771163606       -0.31239992646282
H           63.71369858643995       -0.09334202273994        0.06454374234458
H           63.73814522149762       -2.62309528305628        0.82128287344893
H           61.85764846770563       -4.46863757398456        1.27456120284976
H           59.95061186730662       -0.85904220208671        0.20531466588271
H           58.05845234134573       -4.58110934029621        3.04606429173154
H           57.99367557149243       -6.98203257099995        3.61527510675656
H           60.16638975543837       -7.88575763481699        0.02619743219068
H           60.21561167043139       -5.48569645846546       -0.54449582323339
H           56.49599042123986       -4.46262595877731        0.93964313272048
H           54.66741691658064       -2.54517955063168        0.48701660354983
H           54.76674439260461        2.61152626975970       -0.51053409425288
H           56.65312505758526        4.45073435411158       -0.95604493942850
H           58.54333323691312        0.74965772021983       -0.21521077734497
H           60.45871519153253        5.35319113706261        0.58611253136565
H           60.53065232439618        7.74892014514756       -0.00153636529155
H           58.33734637650024        6.92680163858225       -3.59770409544273
H           58.28314835521307        4.53044858964899       -3.01340308346287
H           62.02233785537915        4.28105633778391       -1.21907058825274
H           63.83928052344156        2.36288537790503       -0.70770050489871
C           38.41040542271410       -0.02881023493055       -0.02472799768850
C           37.18876567034012       -0.00942252999070       -0.03146663707795
C           39.76032231639544       -0.04099375968226       -0.02315599132312
C           40.98216607648554       -0.05372394998296       -0.02015456089100
C           51.86539720587221        0.01212054474589        0.00114442804111
C           50.64354723854056        0.00124080461903       -0.00729122658886
C           53.21536773060045        0.01669038273380        0.00486459939584
C           54.43720483755600        0.01445145962623        0.00948376028728
C           42.38843918120405       -0.05442759922790       -0.02470316723637
C           43.00826441105052        0.87904179838748       -0.87687078617649
C           42.35189480944610        1.82277530568210       -1.70899885107040
C           43.30967107286479        2.50739448296644       -2.40569928076084
C           44.57947031740337        1.99526896010696       -2.02318682128719
N           44.34705776923160        1.02335920550621       -1.08764006027987
C           45.83504099585809        2.40468192481591       -2.48892162307454
C           45.83799376529123        3.43682403602101       -3.55349338324491
C           45.22623509849570        3.18318488954832       -4.78356144560614
C           45.22884332689413        4.13955964857893       -5.78289785839030
C           45.84114617214775        5.37754689416936       -5.56617166569414
C           45.84171137749359        6.36527039844673       -6.59130786090937
N           45.84023149876892        7.16167925403983       -7.42192277473419
C           46.45158115911386        5.63783044678775       -4.33563963453616
C           46.45054535824061        4.67435504873108       -3.34301299212242
C           47.06380871162367        1.91953276153068       -2.03748992336853
C           48.34695903788892        2.33013805127521       -2.57948430751034
C           49.28790022874694        1.66076005226064       -1.88215627686098
N           47.24545808208615        1.00048227521225       -1.05011140030001
C           48.57786786693285        0.83317379895442       -0.92665418272292
C           49.23733068622326       -0.01398646224476       -0.01461830762836
C           48.61785835466347       -0.88911239756287        0.89748559079570
C           49.27392049317903       -1.72088734437385        1.84180543158292
C           48.31613013009271       -2.41838793677613        2.52553003594372
C           47.04646958625504       -2.03921526494070        2.01032384568257
N           47.27939246464229       -1.10565062767113        1.03633290830667
C           45.79033079183167       -2.50422026204231        2.41831207922627
C           45.78170551644828       -3.54279618542653        3.47671808056745
C           46.39807311425704       -4.77850666293892        3.26659816745669
C           46.39003696037988       -5.74709152763826        4.25433390644817
C           45.76752347964869       -5.49318571811984        5.48006546249004
C           45.76022666703702       -6.48626315912255        6.50000853569268
N           45.75482523346709       -7.28714920210667        7.32626973101317
C           45.15164090445896       -4.25686138592689        5.69651920970851
C           45.15802510773331       -3.29551074818332        4.70206317624883
C           44.56259345754157       -2.06787968326069        1.91621246339951
C           43.28102698641293       -2.62293613709204        2.31423934698675
C           42.33999234525594       -1.94066285817180        1.62949810900643
C           43.04837596183071       -0.97724352447867        0.80990937479422
N           44.38044365844965       -1.08651717574777        0.99119378880258
H           41.28342526914356        1.95656072161576       -1.75937767934242
H           43.15257269925361        3.30403475430316       -3.11435341180815
H           45.07384964221258        0.48998207066232       -0.62229593685316
H           44.76150410657714        2.21966378106419       -4.96026430923716
H           44.75830755832373        3.93238975715720       -6.73689692207447
H           46.92371240133068        6.59785286313130       -4.16290972594722
H           46.91406917693968        4.88453931282873       -2.38582819436275
H           48.48692717013607        3.02482316209678       -3.39168579158245
H           50.35996240806952        1.69680175854922       -1.99145211607648
H           50.34215295154010       -1.76819706026434        1.97864603466617
H           48.47349306987756       -3.12560775761641        3.32337889486245
H           46.55254358029227       -0.63974326365839        0.50354920081439
H           46.87054727946077       -4.98481117667250        2.31281553836866
H           46.86446777589019       -6.70594637985389        4.08129677289215
H           44.67123828041687       -4.05507726060215        6.64673722047279
H           44.68969184354641       -2.33367470760450        4.87765240892754
H           43.14278988297503       -3.43376980035367        3.01091839265465
H           41.26887232322223       -2.06213406456960        1.65315266203041

          :  Hamiltonian                  GFN1-xTB          :
         :: total energy            -319.638870110546 Eh    ::
         :: gradient norm              0.000630789539 Eh/a0 ::
         :: HOMO-LUMO gap              0.901499079738 eV    ::
         :: SCC energy              -325.246706645434 Eh    ::
         :: repulsion energy           5.768508610155 Eh    ::

    * Orbital Energies and Occupations

         #    Occupation            Energy/Eh            Energy/eV
      -------------------------------------------------------------
         1        2.0000           -0.8176971             -22.2507
       ...           ...                  ...                  ...
       281        2.0000           -0.4302604             -11.7080
       282        2.0000           -0.4299978             -11.7008
       283        2.0000           -0.4292626             -11.6808
       284        2.0000           -0.4290134             -11.6740
       285        2.0000           -0.4277522             -11.6397
       286        2.0000           -0.4273105             -11.6277
       287        2.0000           -0.4270454             -11.6205
       288        2.0000           -0.4123518             -11.2207
       289        2.0000           -0.4111296             -11.1874
       290        2.0000           -0.4110575             -11.1854
       291        2.0000           -0.4016104             -10.9284
       292        2.0000           -0.3960695             -10.7776
       293        2.0000           -0.3893687             -10.5953 (HOMO)
       294                         -0.3562392              -9.6938 (LUMO)
       295                         -0.3476046              -9.4588
       296                         -0.3455951              -9.4041
       297                         -0.3449913              -9.3877
       298                         -0.3445005              -9.3743
       299                         -0.3406244              -9.2689
       300                         -0.3191649              -8.6849
       301                         -0.3143807              -8.5547
       302                         -0.3132014              -8.5226
       303                         -0.3054059              -8.3105
       304                         -0.3045813              -8.2881
       ...                                ...                  ...
       624                          1.5047868              40.9473
      -------------------------------------------------------------
                  HL-Gap            0.0331295 Eh            0.9015 eV

Wiberg/Mayer (AO) data.
largest (>0.10) Wiberg bond orders for each atom

     #   Z sym  total        # sym  WBO       # sym  WBO       # sym  WBO
 ---------------------------------------------------------------------------
     1   6 C    3.926 --    39 C    1.367     2 C    1.347    41 H    0.970
     2   6 C    3.901 --     1 C    1.347     3 C    1.229     6 N    1.169
     3   6 C    3.954 --     4 C    1.596     2 C    1.229    42 H    0.976
     4   6 C    3.959 --     3 C    1.596     5 C    1.233    43 H    0.974
     5   6 C    3.897 --     7 C    1.302     4 C    1.233     6 N    1.179
     6   7 N    3.470 --     5 C    1.179     2 C    1.169    44 H    0.873
     7   6 C    3.938 --    16 C    1.332     5 C    1.302     8 C    1.034
     8   6 C    3.963 --    15 C    1.385     9 C    1.384     7 C    1.034
     9   6 C    3.987 --    10 C    1.464     8 C    1.384    45 H    0.971
                            14 C    0.102
    10   6 C    3.993 --     9 C    1.464    11 C    1.363    46 H    0.972
                            15 C    0.102
    11   6 C    3.983 --    14 C    1.364    10 C    1.363    12 C    1.098
    12   6 C    3.958 --    13 N    2.819    11 C    1.098
    13   7 N    2.973 --    12 C    2.819
    14   6 C    3.993 --    15 C    1.464    11 C    1.364    47 H    0.972
                             9 C    0.102
    15   6 C    3.986 --    14 C    1.464     8 C    1.385    48 H    0.971
                            10 C    0.102
    16   6 C    3.914 --     7 C    1.332    19 N    1.289    17 C    1.125
    17   6 C    3.966 --    18 C    1.710    16 C    1.125    49 H    0.973
    18   6 C    3.964 --    17 C    1.710    20 C    1.128    50 H    0.974
    19   7 N    3.022 --    20 C    1.341    16 C    1.289
    20   6 C    3.909 --    19 N    1.341    21 C    1.258    18 C    1.128
    21   6 C    3.937 --    20 C    1.258    22 C    1.254   120 C    1.184
    22   6 C    3.886 --    21 C    1.254    23 C    1.248    26 N    1.188
    23   6 C    3.959 --    24 C    1.584    22 C    1.248    51 H    0.975
    24   6 C    3.955 --    23 C    1.584    25 C    1.240    52 H    0.974
    25   6 C    3.898 --    27 C    1.307    24 C    1.240    26 N    1.167
    26   7 N    3.475 --    22 C    1.188    25 C    1.167    53 H    0.872
    27   6 C    3.925 --    36 C    1.319    25 C    1.307    28 C    1.036
    28   6 C    3.963 --    29 C    1.383    35 C    1.383    27 C    1.036
    29   6 C    3.986 --    30 C    1.464    28 C    1.383    54 H    0.971
                            34 C    0.102
    30   6 C    3.993 --    29 C    1.464    31 C    1.364    55 H    0.972
                            35 C    0.102
    31   6 C    3.983 --    30 C    1.364    34 C    1.363    32 C    1.098
    32   6 C    3.958 --    33 N    2.819    31 C    1.098
    33   7 N    2.972 --    32 C    2.819
    34   6 C    3.993 --    35 C    1.465    31 C    1.363    56 H    0.972
                            29 C    0.102
    35   6 C    3.986 --    34 C    1.465    28 C    1.383    57 H    0.971
                            30 C    0.102
    36   6 C    3.928 --    27 C    1.319    40 N    1.318    37 C    1.117
    37   6 C    3.967 --    38 C    1.723    36 C    1.117    58 H    0.973
    38   6 C    3.966 --    37 C    1.723    39 C    1.116    59 H    0.975
    39   6 C    3.928 --     1 C    1.367    40 N    1.299    38 C    1.116
    40   7 N    3.013 --    36 C    1.318    39 C    1.299
    41   1 H    1.002 --     1 C    0.970
    42   1 H    0.997 --     3 C    0.976
    43   1 H    1.004 --     4 C    0.974
    44   1 H    0.986 --     6 N    0.873
    45   1 H    1.004 --     9 C    0.971
    46   1 H    1.000 --    10 C    0.972
    47   1 H    1.000 --    14 C    0.972
    48   1 H    1.004 --    15 C    0.971
    49   1 H    1.004 --    17 C    0.973
    50   1 H    1.003 --    18 C    0.974
    51   1 H    1.002 --    23 C    0.975
    52   1 H    1.004 --    24 C    0.974
    53   1 H    0.987 --    26 N    0.872
    54   1 H    1.004 --    29 C    0.971
    55   1 H    1.000 --    30 C    0.972
    56   1 H    1.000 --    34 C    0.972
    57   1 H    1.004 --    35 C    0.971
    58   1 H    1.004 --    37 C    0.973
    59   1 H    0.998 --    38 C    0.975
    60   6 C    3.926 --    98 C    1.367    61 C    1.347   100 H    0.970
    61   6 C    3.901 --    60 C    1.347    62 C    1.229    65 N    1.169
    62   6 C    3.954 --    63 C    1.596    61 C    1.229   101 H    0.976
    63   6 C    3.959 --    62 C    1.596    64 C    1.233   102 H    0.974
    64   6 C    3.897 --    66 C    1.302    63 C    1.233    65 N    1.179
    65   7 N    3.471 --    64 C    1.179    61 C    1.169   103 H    0.873
    66   6 C    3.938 --    75 C    1.333    64 C    1.302    67 C    1.032
    67   6 C    3.963 --    74 C    1.385    68 C    1.384    66 C    1.032
    68   6 C    3.988 --    69 C    1.464    67 C    1.384   104 H    0.971
                            73 C    0.102
    69   6 C    3.993 --    68 C    1.464    70 C    1.364   105 H    0.972
                            74 C    0.102
    70   6 C    3.984 --    73 C    1.364    69 C    1.364    71 C    1.098
    71   6 C    3.958 --    72 N    2.820    70 C    1.098
    72   7 N    2.973 --    71 C    2.820
    73   6 C    3.993 --    74 C    1.464    70 C    1.364   106 H    0.972
                            68 C    0.102
    74   6 C    3.987 --    73 C    1.464    67 C    1.385   107 H    0.971
                            69 C    0.102
    75   6 C    3.914 --    66 C    1.333    78 N    1.288    76 C    1.124
    76   6 C    3.966 --    77 C    1.711    75 C    1.124   108 H    0.973
    77   6 C    3.964 --    76 C    1.711    79 C    1.127   109 H    0.974
    78   7 N    3.022 --    79 C    1.342    75 C    1.288
    79   6 C    3.909 --    78 N    1.342    80 C    1.257    77 C    1.127
    80   6 C    3.937 --    79 C    1.257    81 C    1.255   126 C    1.185
    81   6 C    3.886 --    80 C    1.255    82 C    1.248    85 N    1.188
    82   6 C    3.959 --    83 C    1.584    81 C    1.248   110 H    0.975
    83   6 C    3.955 --    82 C    1.584    84 C    1.240   111 H    0.974
    84   6 C    3.898 --    86 C    1.308    83 C    1.240    85 N    1.167
    85   7 N    3.474 --    81 C    1.188    84 C    1.167   112 H    0.872
    86   6 C    3.925 --    95 C    1.318    84 C    1.308    87 C    1.035
    87   6 C    3.963 --    94 C    1.384    88 C    1.383    86 C    1.035
    88   6 C    3.986 --    89 C    1.465    87 C    1.383   113 H    0.971
                            93 C    0.102
    89   6 C    3.993 --    88 C    1.465    90 C    1.363   114 H    0.972
                            94 C    0.102
    90   6 C    3.983 --    93 C    1.364    89 C    1.363    91 C    1.098
    91   6 C    3.958 --    92 N    2.819    90 C    1.098
    92   7 N    2.972 --    91 C    2.819
    93   6 C    3.993 --    94 C    1.464    90 C    1.364   115 H    0.972
                            88 C    0.102
    94   6 C    3.986 --    93 C    1.464    87 C    1.384   116 H    0.971
                            89 C    0.102
    95   6 C    3.928 --    99 N    1.319    86 C    1.318    96 C    1.117
    96   6 C    3.967 --    97 C    1.724    95 C    1.117   117 H    0.973
    97   6 C    3.966 --    96 C    1.724    98 C    1.116   118 H    0.975
    98   6 C    3.928 --    60 C    1.367    99 N    1.299    97 C    1.116
    99   7 N    3.013 --    95 C    1.319    98 C    1.299
   100   1 H    1.002 --    60 C    0.970
   101   1 H    0.997 --    62 C    0.976
   102   1 H    1.004 --    63 C    0.974
   103   1 H    0.986 --    65 N    0.873
   104   1 H    1.004 --    68 C    0.971
   105   1 H    1.000 --    69 C    0.972
   106   1 H    1.000 --    73 C    0.972
   107   1 H    1.003 --    74 C    0.971
   108   1 H    1.004 --    76 C    0.973
   109   1 H    1.003 --    77 C    0.974
   110   1 H    1.002 --    82 C    0.975
   111   1 H    1.004 --    83 C    0.974
   112   1 H    0.987 --    85 N    0.872
   113   1 H    1.004 --    88 C    0.971
   114   1 H    1.000 --    89 C    0.972
   115   1 H    1.000 --    93 C    0.972
   116   1 H    1.004 --    94 C    0.971
   117   1 H    1.004 --    96 C    0.973
   118   1 H    0.998 --    97 C    0.975
   119   6 C    3.932 --   120 C    2.478   121 C    1.305
   120   6 C    3.921 --   119 C    2.478    21 C    1.184   122 C    0.198
   121   6 C    3.929 --   122 C    2.476   119 C    1.305
   122   6 C    3.923 --   121 C    2.476   127 C    1.187   120 C    0.198
   123   6 C    3.929 --   124 C    2.476   125 C    1.305
   124   6 C    3.923 --   123 C    2.476   147 C    1.187   126 C    0.198
   125   6 C    3.932 --   126 C    2.478   123 C    1.305
   126   6 C    3.922 --   125 C    2.478    80 C    1.185   124 C    0.198
   127   6 C    3.926 --   165 C    1.258   128 C    1.250   122 C    1.187
   128   6 C    3.886 --   129 C    1.252   127 C    1.250   132 N    1.188
   129   6 C    3.956 --   130 C    1.578   128 C    1.252   167 H    0.975
   130   6 C    3.956 --   129 C    1.578   131 C    1.245   168 H    0.974
   131   6 C    3.894 --   133 C    1.298   130 C    1.245   132 N    1.168
   132   7 N    3.472 --   128 C    1.188   131 C    1.168   169 H    0.874
   133   6 C    3.927 --   142 C    1.336   131 C    1.298   134 C    1.031
   134   6 C    3.963 --   141 C    1.385   135 C    1.385   133 C    1.031
   135   6 C    3.986 --   136 C    1.464   134 C    1.385   170 H    0.971
                           140 C    0.102
   136   6 C    3.993 --   135 C    1.464   137 C    1.364   171 H    0.972
                           141 C    0.102
   137   6 C    3.984 --   140 C    1.364   136 C    1.364   138 C    1.098
   138   6 C    3.958 --   139 N    2.820   137 C    1.098
   139   7 N    2.973 --   138 C    2.820
   140   6 C    3.993 --   141 C    1.464   137 C    1.364   172 H    0.972
                           135 C    0.102
   141   6 C    3.987 --   140 C    1.464   134 C    1.385   173 H    0.971
                           136 C    0.102
   142   6 C    3.916 --   133 C    1.336   145 N    1.286   143 C    1.124
   143   6 C    3.966 --   144 C    1.711   142 C    1.124   174 H    0.973
   144   6 C    3.964 --   143 C    1.711   146 C    1.128   175 H    0.974
   145   7 N    3.010 --   146 C    1.342   142 C    1.286
   146   6 C    3.910 --   145 N    1.342   147 C    1.257   144 C    1.128
   147   6 C    3.926 --   146 C    1.257   148 C    1.250   124 C    1.187
   148   6 C    3.886 --   149 C    1.252   147 C    1.250   152 N    1.188
   149   6 C    3.956 --   150 C    1.579   148 C    1.252   176 H    0.975
   150   6 C    3.955 --   149 C    1.579   151 C    1.245   177 H    0.974
   151   6 C    3.894 --   153 C    1.299   150 C    1.245   152 N    1.168
   152   7 N    3.471 --   148 C    1.188   151 C    1.168   178 H    0.874
   153   6 C    3.927 --   162 C    1.335   151 C    1.299   154 C    1.031
   154   6 C    3.963 --   155 C    1.386   161 C    1.384   153 C    1.031
   155   6 C    3.987 --   156 C    1.463   154 C    1.386   179 H    0.971
                           160 C    0.102
   156   6 C    3.993 --   155 C    1.463   157 C    1.364   180 H    0.972
                           161 C    0.102
   157   6 C    3.984 --   156 C    1.364   160 C    1.364   158 C    1.098
   158   6 C    3.958 --   159 N    2.820   157 C    1.098
   159   7 N    2.973 --   158 C    2.820
   160   6 C    3.993 --   161 C    1.464   157 C    1.364   181 H    0.972
                           155 C    0.102
   161   6 C    3.987 --   160 C    1.464   154 C    1.384   182 H    0.971
                           156 C    0.102
   162   6 C    3.916 --   153 C    1.335   166 N    1.287   163 C    1.124
   163   6 C    3.966 --   164 C    1.710   162 C    1.124   183 H    0.974
   164   6 C    3.964 --   163 C    1.710   165 C    1.128   184 H    0.974
   165   6 C    3.910 --   166 N    1.341   127 C    1.258   164 C    1.128
   166   7 N    3.010 --   165 C    1.341   162 C    1.287
   167   1 H    1.002 --   129 C    0.975
   168   1 H    1.004 --   130 C    0.974
   169   1 H    0.987 --   132 N    0.874
   170   1 H    1.003 --   135 C    0.971
   171   1 H    1.000 --   136 C    0.972
   172   1 H    1.000 --   140 C    0.972
   173   1 H    1.004 --   141 C    0.971
   174   1 H    1.004 --   143 C    0.973
   175   1 H    1.003 --   144 C    0.974
   176   1 H    1.002 --   149 C    0.975
   177   1 H    1.004 --   150 C    0.974
   178   1 H    0.987 --   152 N    0.874
   179   1 H    1.003 --   155 C    0.971
   180   1 H    1.000 --   156 C    0.972
   181   1 H    1.000 --   160 C    0.972
   182   1 H    1.004 --   161 C    0.971
   183   1 H    1.004 --   163 C    0.974
   184   1 H    1.003 --   164 C    0.974
 ---------------------------------------------------------------------------

           -------------------------------------------------
          | TOTAL ENERGY             -319.638870110546 Eh   |
          | GRADIENT NORM               0.000630789539 Eh/α |
          | HOMO-LUMO GAP               0.901499079738 eV   |
           -------------------------------------------------

 * finished run on 2022/07/27 at 16:22:51.835
