   * xtb version 6.5.1 (b24c23e) compiled by 'conda@728c89f4b128' on 2022-07-12
          program call               : xtb Ni_PhCN_C2_2.xyz --gfn 1 --opt -T 48

   ID    Z sym.   atoms
    1   28 Ni     1, 59
    2    6 C      2-6, 8-13, 15-19, 21-26, 28-33, 35-40, 60-64, 66-71, 73-77,
                  79-84, 86-91, 93-98, 117, 118
    3    7 N      7, 14, 20, 27, 34, 41, 65, 72, 78, 85, 92, 99
    4    1 H      42-58, 100-116
########################################################################
[WARNING] Please study the warnings concerning your input carefully
-1- prog_main_parseArguments: Unknown option '-T' provided
########################################################################

          :  Hamiltonian                  GFN1-xTB          :
 * total energy  :  -212.5622448 Eh     change       -0.2268052E-10 Eh
 * total energy  :  -212.6336377 Eh     change       -0.7139293E-01 Eh
 * total energy  :  -212.6743137 Eh     change       -0.4067603E-01 Eh
 * total energy  :  -212.6855120 Eh     change       -0.1119825E-01 Eh
 * total energy  :  -212.6928839 Eh     change       -0.7371936E-02 Eh
 * total energy  :  -212.6969157 Eh     change       -0.4031745E-02 Eh
 * total energy  :  -212.6986714 Eh     change       -0.1755686E-02 Eh
 * total energy  :  -212.6995530 Eh     change       -0.8816477E-03 Eh
 * total energy  :  -212.7004298 Eh     change       -0.8768188E-03 Eh
 * total energy  :  -212.7010651 Eh     change       -0.6352465E-03 Eh
 * total energy  :  -212.7031588 Eh     change       -0.5774885E-05 Eh
 * total energy  :  -212.7031644 Eh     change       -0.5559993E-05 Eh
 * total energy  :  -212.7031731 Eh     change       -0.8757267E-05 Eh
 * total energy  :  -212.7031815 Eh     change       -0.8339384E-05 Eh
 * total energy  :  -212.7031870 Eh     change       -0.5523893E-05 Eh
 * total energy  :  -212.7031940 Eh     change       -0.6990790E-05 Eh
 * total energy  :  -212.7032031 Eh     change       -0.9115255E-05 Eh
 * total energy  :  -212.7032126 Eh     change       -0.9520672E-05 Eh
 * total energy  :  -212.7032151 Eh     change       -0.2488002E-05 Eh
   *** GEOMETRY OPTIMIZATION CONVERGED AFTER 44 ITERATIONS ***

 final structure:
================
118
 xtb: 6.5.1 (b24c23e)
Ni          18.18217839570493        0.04230147358648        0.02126648223250
C           14.78874463136293        0.05649987794616        0.14006723994334
C           15.44417937424155        1.26742893718197        0.21517807437893
C           14.76869733484303        2.52547611222540        0.30922646594092
C           15.72777048217753        3.47230816041470        0.43101590684874
C           16.98853521452084        2.78906806925713        0.42498492474815
N           16.80534378250501        1.43919347420312        0.25945697222758
C           18.21176813625588        3.42300128027015        0.59936597493634
C           18.22267780731025        4.88119330056251        0.86398219154105
C           17.61163300977891        5.39277528740820        2.01108395992861
C           17.62034697071713        6.75202504485822        2.26733642093191
C           18.23907030979935        7.62960623604295        1.37204022354901
C           18.24552163385725        9.02926637596403        1.63215252144901
N           18.24900251567203       10.15954022586124        1.84835514635606
C           18.84968896170926        7.12259282747682        0.22120415428115
C           18.84246981288813        5.76129211878929       -0.02560348084398
C           19.42299909041302        2.74561791642390        0.55145049570389
C           20.69020974480544        3.36827163377107        0.78850142840162
C           21.63404764692843        2.41332710327644        0.61131464728775
N           19.58829518882593        1.41048495842639        0.26196573666861
C           20.94227055444182        1.21009690156984        0.27321410016203
C           21.59553928116761        0.01672351379242       -0.03806231036707
C           20.91389857304687       -1.16190015476846       -0.34492398916710
C           21.57484739945911       -2.36708189678613       -0.73372508770605
C           20.60994805055225       -3.30121402892303       -0.90861176437788
C           19.36154899029574       -2.66650168459486       -0.61080468125196
N           19.55787586437319       -1.34110260298201       -0.29619469743414
C           18.14078906189887       -3.32863494365287       -0.61373231950777
C           18.11912093804926       -4.78140764042710       -0.90501783012963
C           17.42853711150174       -5.26721371666086       -2.01770624625424
C           17.40524168616419       -6.62197617087952       -2.29633802175280
C           18.07167027414911       -7.52115099654213       -1.45856868646419
C           18.04786250227957       -8.91618415693136       -1.74145218786517
N           18.02466769418625      -10.04316703495206       -1.97305140600180
C           18.76161626564525       -7.04016287094584       -0.34184805469805
C           18.78511260932703       -5.68347465262694       -0.07231492535220
C           16.93725998085198       -2.68689022627515       -0.35112930016650
C           15.67297072496040       -3.35994625532421       -0.27970930875626
C           14.73478557231760       -2.40934405423984       -0.06221438435929
C           15.42668018369735       -1.15854254546791        0.00569725124070
N           16.77914016422667       -1.33974558078808       -0.14425016848587
H           13.70586072932347        0.06066596133377        0.18240779603810
H           13.69773988250232        2.64771164536669        0.28010277920639
H           15.60628877780866        4.54016909952235        0.51260859184345
H           17.14038704407638        4.71376506988930        2.71269546974088
H           17.14924763867590        7.14122288116173        3.16232558336931
H           19.32698989273581        7.80061431474765       -0.47656523280856
H           19.30763446076293        5.37260850104028       -0.92443704253059
H           20.82933211587665        4.40086926118444        1.06382087021211
H           22.70466100529155        2.50081909035736        0.70179551074983
H           22.64044334383296       -2.46814567216512       -0.86162200194963
H           20.72316299758057       -4.32732419648717       -1.21791267104691
H           16.91966851300242       -4.57178156452897       -2.67560233310397
H           16.87195441457576       -6.99087250479871       -3.16464858924151
H           19.27617905206266       -7.73476359087400        0.31173706582536
H           19.31096000261735       -5.31559875662215        0.80148479859453
H           15.53526489845998       -4.42453153939872       -0.37679235496039
H           13.66794933892305       -2.52406814000203        0.04479435790310
Ni          29.04580540605587       -0.04110758122352        0.02351374556991
C           32.43923962139055       -0.04907866677416        0.14251381243159
C           31.78373391811828       -1.25424981832573        0.28197430155663
C           32.45912234704520       -2.50556528198659        0.44271109629433
C           31.49999571073941       -3.44444280118591        0.61515759193963
C           30.23929663785774       -2.76236007891690        0.57305322076698
N           30.42254486901455       -1.42328404040814        0.33561068519909
C           29.01612080182552       -3.38610771258941        0.78136549533796
C           29.00568248595019       -4.82764139238483        1.12537578341583
C           29.61695651573906       -5.27482673628803        2.29899167223479
C           29.60828881486225       -6.61774220473392        2.63031761057475
C           28.98928379738155       -7.54362250774159        1.78525873097270
C           28.98041354410304       -8.92641351345799        2.12367744897561
N           28.97611121677846      -10.04285940401369        2.40214200113800
C           28.37898552821958       -7.10129368718914        0.60787448727590
C           28.38617513482822       -5.75577833297261        0.28585376402920
C           27.80481741797202       -2.71244287623241        0.69696598963547
C           26.53754025278517       -3.32162721774240        0.96645575949315
C           25.59375548467063       -2.37743601490535        0.73860514641975
N           27.63957789818082       -1.39459376824841        0.33680448502213
C           26.28562217398076       -1.19384026385845        0.33726567390415
C           25.63242606803075       -0.01863945214212       -0.03694630811926
C           26.31410873859297        1.14198776926290       -0.40600820107980
C           25.65318621476026        2.32466152559401       -0.85872015920447
C           26.61811388701446        3.24802701810124       -1.08348299339950
C           27.86650279139497        2.63014943891600       -0.75211226136410
N           27.67013274254029        1.32350667116039       -0.36694380183681
C           29.08729434769869        3.29110631027604       -0.79055296967042
C           29.10909345441026        4.72586359302017       -1.16050754753293
C           29.79957684625856        5.14992521006009       -2.29822632037572
C           29.82225480606488        6.48726354583087       -2.65114115276273
C           29.15529247131729        7.43093774307874       -1.86428452402059
C           29.17790902521850        8.80814876021658       -2.22411832275019
N           29.19873506744288        9.92035409854122       -2.51869232605207
C           28.46587267581972        7.01198354592391       -0.72252256955549
C           28.44298823019135        5.67220179355403       -0.37858760092411
C           30.29077462803217        2.66432261512562       -0.49381835236876
C           31.55509019747397        3.34018298892474       -0.45859915910848
C           32.49327269461764        2.40250519422184       -0.19078728487177
C           31.80133595148329        1.15714055195703       -0.05613465433599
N           30.44886027469431        1.33014975313490       -0.21529042270714
H           33.52213073344240       -0.05106067112263        0.18480980684272
H           33.53005337059228       -2.62932947526580        0.41977554488588
H           31.62138896615016       -4.50646104311844        0.75344870633614
H           30.08818141969561       -4.55786921168255        2.96179667985323
H           30.07938323625950       -6.95662101660097        3.54554879035106
H           27.90168921659005       -7.81701820187959       -0.05116884915763
H           27.92103365155171       -5.41765759275812       -0.63320672418545
H           26.39830153876539       -4.33820369210404        1.29600386373222
H           24.52312107150363       -2.45998838499846        0.83337794064175
H           24.58759249002991        2.41879468592407       -0.99181405817586
H           26.50491329197403        4.25606742216359       -1.44737946129066
H           30.30873367968745        4.41950130704829       -2.91680704296503
H           30.35534927974951        6.80795304223469       -3.53850181878028
H           27.95110360663167        7.74135391861432       -0.10815052130950
H           27.91741326078446        5.35284563764757        0.51424772588937
H           31.69278332440328        4.39806844690757       -0.61239739991624
H           33.56014090007189        2.52268303010215       -0.09027354514209
C           23.00633228517578        0.00334948146095       -0.04666229358737
C           24.22163335159556       -0.00568293073172       -0.04645297988115

          :  Hamiltonian                  GFN1-xTB          :
         :: total energy            -212.703215129177 Eh    ::
         :: gradient norm              0.000743288515 Eh/a0 ::
         :: HOMO-LUMO gap              1.268631654716 eV    ::
         :: SCC energy              -216.185452459433 Eh    ::
         :: repulsion energy           3.592989098058 Eh    ::

    * Orbital Energies and Occupations

         #    Occupation            Energy/Eh            Energy/eV
      -------------------------------------------------------------
         1        2.0000           -0.7929742             -21.5779
       ...           ...                  ...                  ...
       185        2.0000           -0.4410419             -12.0014
       186        2.0000           -0.4106992             -11.1757
       187        2.0000           -0.4105940             -11.1728
       188        2.0000           -0.4103993             -11.1675
       189        2.0000           -0.4103963             -11.1675
       190        2.0000           -0.4096865             -11.1481
       191        2.0000           -0.4094343             -11.1413
       192        2.0000           -0.4094308             -11.1412
       193        2.0000           -0.4084244             -11.1138
       194        2.0000           -0.4084213             -11.1137
       195        2.0000           -0.4083280             -11.1112
       196        2.0000           -0.4083262             -11.1111
       197        2.0000           -0.3976917             -10.8217 (HOMO)
       198                         -0.3510704              -9.5531 (LUMO)
       199                         -0.3432108              -9.3392
       200                         -0.3432092              -9.3392
       201                         -0.3411589              -9.2834
       202                         -0.3411552              -9.2833
       203                         -0.3364927              -9.1564
       204                         -0.3146890              -8.5631
       205                         -0.3116133              -8.4794
       206                         -0.3053403              -8.3087
       207                         -0.3053318              -8.3085
       208                         -0.3001855              -8.1685
       ...                                ...                  ...
       414                          1.3328834              36.2696
      -------------------------------------------------------------
                  HL-Gap            0.0466214 Eh            1.2686 eV

Wiberg/Mayer (AO) data.
largest (>0.10) Wiberg bond orders for each atom

     #   Z sym  total        # sym  WBO       # sym  WBO       # sym  WBO
 ---------------------------------------------------------------------------
     1  28 Ni   3.008 --     7 N    0.664    41 N    0.664    20 N    0.660
                            27 N    0.660
     2   6 C    3.936 --    40 C    1.365     3 C    1.364    42 H    0.970
     3   6 C    3.922 --     2 C    1.364     7 N    1.213     4 C    1.174
     4   6 C    3.960 --     5 C    1.650     3 C    1.174    43 H    0.975
     5   6 C    3.963 --     4 C    1.650     6 C    1.176    44 H    0.973
     6   6 C    3.920 --     8 C    1.323     7 N    1.222     5 C    1.176
     7   7 N    3.403 --     6 C    1.222     3 C    1.213     1 Ni   0.664
     8   6 C    3.939 --    17 C    1.326     6 C    1.323     9 C    1.028
     9   6 C    3.963 --    16 C    1.387    10 C    1.386     8 C    1.028
    10   6 C    3.988 --    11 C    1.463     9 C    1.386    45 H    0.971
                            15 C    0.102
    11   6 C    3.993 --    10 C    1.463    12 C    1.364    46 H    0.972
                            16 C    0.102
    12   6 C    3.985 --    15 C    1.365    11 C    1.364    13 C    1.098
    13   6 C    3.958 --    14 N    2.820    12 C    1.098
    14   7 N    2.973 --    13 C    2.820
    15   6 C    3.993 --    16 C    1.463    12 C    1.365    47 H    0.972
                            10 C    0.102
    16   6 C    3.988 --    15 C    1.463     9 C    1.387    48 H    0.971
                            11 C    0.102
    17   6 C    3.915 --     8 C    1.326    20 N    1.210    18 C    1.183
    18   6 C    3.960 --    19 C    1.637    17 C    1.183    49 H    0.973
    19   6 C    3.962 --    18 C    1.637    21 C    1.190    50 H    0.972
    20   7 N    3.406 --    21 C    1.235    17 C    1.210     1 Ni   0.660
    21   6 C    3.910 --    22 C    1.273    20 N    1.235    19 C    1.190
    22   6 C    3.945 --    21 C    1.273    23 C    1.273   117 C    1.162
    23   6 C    3.910 --    22 C    1.273    27 N    1.236    24 C    1.190
    24   6 C    3.962 --    25 C    1.637    23 C    1.190    51 H    0.972
    25   6 C    3.959 --    24 C    1.637    26 C    1.183    52 H    0.972
    26   6 C    3.915 --    28 C    1.326    27 N    1.209    25 C    1.183
    27   7 N    3.406 --    23 C    1.236    26 C    1.209     1 Ni   0.660
    28   6 C    3.939 --    26 C    1.326    37 C    1.322    29 C    1.029
    29   6 C    3.963 --    36 C    1.386    30 C    1.386    28 C    1.029
    30   6 C    3.988 --    31 C    1.463    29 C    1.386    53 H    0.971
                            35 C    0.102
    31   6 C    3.993 --    30 C    1.463    32 C    1.364    54 H    0.972
                            36 C    0.102
    32   6 C    3.985 --    35 C    1.365    31 C    1.364    33 C    1.098
    33   6 C    3.958 --    34 N    2.820    32 C    1.098
    34   7 N    2.973 --    33 C    2.820
    35   6 C    3.993 --    36 C    1.463    32 C    1.365    55 H    0.972
                            30 C    0.102
    36   6 C    3.988 --    35 C    1.463    29 C    1.386    56 H    0.971
                            31 C    0.102
    37   6 C    3.920 --    28 C    1.322    41 N    1.223    38 C    1.176
    38   6 C    3.963 --    39 C    1.650    37 C    1.176    57 H    0.973
    39   6 C    3.960 --    38 C    1.650    40 C    1.174    58 H    0.975
    40   6 C    3.922 --     2 C    1.365    41 N    1.213    39 C    1.174
    41   7 N    3.403 --    37 C    1.223    40 C    1.213     1 Ni   0.664
    42   1 H    1.000 --     2 C    0.970
    43   1 H    0.997 --     4 C    0.975
    44   1 H    1.004 --     5 C    0.973
    45   1 H    1.003 --    10 C    0.971
    46   1 H    1.000 --    11 C    0.972
    47   1 H    1.000 --    15 C    0.972
    48   1 H    1.003 --    16 C    0.971
    49   1 H    1.004 --    18 C    0.973
    50   1 H    1.003 --    19 C    0.972
    51   1 H    1.003 --    24 C    0.972
    52   1 H    1.004 --    25 C    0.972
    53   1 H    1.003 --    30 C    0.971
    54   1 H    1.000 --    31 C    0.972
    55   1 H    1.000 --    35 C    0.972
    56   1 H    1.003 --    36 C    0.971
    57   1 H    1.004 --    38 C    0.973
    58   1 H    0.997 --    39 C    0.975
    59  28 Ni   3.008 --    65 N    0.664    99 N    0.664    85 N    0.660
                            78 N    0.660
    60   6 C    3.936 --    98 C    1.365    61 C    1.364   100 H    0.970
    61   6 C    3.922 --    60 C    1.364    65 N    1.213    62 C    1.174
    62   6 C    3.960 --    63 C    1.650    61 C    1.174   101 H    0.975
    63   6 C    3.963 --    62 C    1.650    64 C    1.176   102 H    0.973
    64   6 C    3.920 --    66 C    1.323    65 N    1.222    63 C    1.176
    65   7 N    3.403 --    64 C    1.222    61 C    1.213    59 Ni   0.664
    66   6 C    3.939 --    75 C    1.326    64 C    1.323    67 C    1.028
    67   6 C    3.963 --    74 C    1.387    68 C    1.386    66 C    1.028
    68   6 C    3.988 --    69 C    1.464    67 C    1.386   103 H    0.971
                            73 C    0.102
    69   6 C    3.993 --    68 C    1.464    70 C    1.364   104 H    0.972
                            74 C    0.102
    70   6 C    3.985 --    73 C    1.365    69 C    1.364    71 C    1.098
    71   6 C    3.958 --    72 N    2.820    70 C    1.098
    72   7 N    2.973 --    71 C    2.820
    73   6 C    3.993 --    74 C    1.463    70 C    1.365   105 H    0.972
                            68 C    0.102
    74   6 C    3.988 --    73 C    1.463    67 C    1.387   106 H    0.971
                            69 C    0.102
    75   6 C    3.915 --    66 C    1.326    78 N    1.209    76 C    1.183
    76   6 C    3.960 --    77 C    1.637    75 C    1.183   107 H    0.973
    77   6 C    3.962 --    76 C    1.637    79 C    1.190   108 H    0.972
    78   7 N    3.406 --    79 C    1.235    75 C    1.209    59 Ni   0.660
    79   6 C    3.910 --    80 C    1.273    78 N    1.235    77 C    1.190
    80   6 C    3.945 --    79 C    1.273    81 C    1.273   118 C    1.162
    81   6 C    3.910 --    80 C    1.273    85 N    1.236    82 C    1.190
    82   6 C    3.962 --    83 C    1.637    81 C    1.190   109 H    0.972
    83   6 C    3.959 --    82 C    1.637    84 C    1.183   110 H    0.972
    84   6 C    3.915 --    86 C    1.326    85 N    1.209    83 C    1.183
    85   7 N    3.406 --    81 C    1.236    84 C    1.209    59 Ni   0.660
    86   6 C    3.939 --    84 C    1.326    95 C    1.322    87 C    1.029
    87   6 C    3.963 --    94 C    1.386    88 C    1.386    86 C    1.029
    88   6 C    3.988 --    89 C    1.463    87 C    1.386   111 H    0.971
                            93 C    0.102
    89   6 C    3.993 --    88 C    1.463    90 C    1.364   112 H    0.972
                            94 C    0.102
    90   6 C    3.985 --    93 C    1.365    89 C    1.364    91 C    1.098
    91   6 C    3.958 --    92 N    2.820    90 C    1.098
    92   7 N    2.973 --    91 C    2.820
    93   6 C    3.993 --    94 C    1.463    90 C    1.365   113 H    0.972
                            88 C    0.102
    94   6 C    3.988 --    93 C    1.463    87 C    1.386   114 H    0.971
                            89 C    0.102
    95   6 C    3.920 --    86 C    1.322    99 N    1.223    96 C    1.176
    96   6 C    3.963 --    97 C    1.650    95 C    1.176   115 H    0.973
    97   6 C    3.960 --    96 C    1.650    98 C    1.174   116 H    0.975
    98   6 C    3.922 --    60 C    1.365    99 N    1.213    97 C    1.174
    99   7 N    3.403 --    95 C    1.223    98 C    1.213    59 Ni   0.664
   100   1 H    1.000 --    60 C    0.970
   101   1 H    0.997 --    62 C    0.975
   102   1 H    1.004 --    63 C    0.973
   103   1 H    1.003 --    68 C    0.971
   104   1 H    1.000 --    69 C    0.972
   105   1 H    1.000 --    73 C    0.972
   106   1 H    1.003 --    74 C    0.971
   107   1 H    1.004 --    76 C    0.973
   108   1 H    1.003 --    77 C    0.972
   109   1 H    1.003 --    82 C    0.972
   110   1 H    1.004 --    83 C    0.972
   111   1 H    1.003 --    88 C    0.971
   112   1 H    1.000 --    89 C    0.972
   113   1 H    1.000 --    93 C    0.972
   114   1 H    1.003 --    94 C    0.971
   115   1 H    1.004 --    96 C    0.973
   116   1 H    0.997 --    97 C    0.975
   117   6 C    3.936 --   118 C    2.593    22 C    1.162
   118   6 C    3.936 --   117 C    2.593    80 C    1.162
 ---------------------------------------------------------------------------

           -------------------------------------------------
          | TOTAL ENERGY             -212.703215129177 Eh   |
          | GRADIENT NORM               0.000743288515 Eh/α |
          | HOMO-LUMO GAP               1.268631654716 eV   |
           -------------------------------------------------

 * finished run on 2022/07/30 at 11:26:44.319
