   * xtb version 6.5.1 (b24c23e) compiled by 'conda@728c89f4b128' on 2022-07-12
          program call               : xtb Zn_PhNO2_C8_3.xyz --gfn 1 --opt -T 48

   ID    Z sym.   atoms
    1   30 Zn     1, 61, 137
    2    6 C      2-6, 8-12, 16-20, 22-27, 29-33, 37-42, 62-66, 68-72, 76-80,
                  82-87, 89-93, 97-102, 121-136, 138-142, 144-148, 152-156,
                  158-163, 165-169, 173-178
    3    7 N      7, 13, 21, 28, 34, 43, 67, 73, 81, 88, 94, 103, 143, 149,
                  157, 164, 170, 179
    4    8 O      14, 15, 35, 36, 74, 75, 95, 96, 150, 151, 171, 172
    5    1 H      44-60, 104-120, 180-195

          :  Hamiltonian                  GFN1-xTB          :
 * total energy  :  -377.0918034 Eh     change       -0.2765830E-08 Eh
 * total energy  :  -378.0529068 Eh     change       -0.9611034E+00 Eh
 * total energy  :  -378.3491509 Eh     change       -0.2962441E+00 Eh
 * total energy  :  -378.4972038 Eh     change       -0.1480529E+00 Eh
 * total energy  :  -378.5977997 Eh     change       -0.1005958E+00 Eh
 * total energy  :  -378.6872855 Eh     change       -0.8948580E-01 Eh
 * total energy  :  -378.7383195 Eh     change       -0.5103404E-01 Eh
 * total energy  :  -378.7703793 Eh     change       -0.3205974E-01 Eh
 * total energy  :  -378.7928127 Eh     change       -0.2243341E-01 Eh
 * total energy  :  -378.8048716 Eh     change       -0.1205894E-01 Eh
 * total energy  :  -378.8425492 Eh     change       -0.3278097E-05 Eh
 * total energy  :  -378.8425597 Eh     change       -0.1052172E-04 Eh
 * total energy  :  -378.8425675 Eh     change       -0.7764743E-05 Eh
 * total energy  :  -378.8425754 Eh     change       -0.7930810E-05 Eh
 * total energy  :  -378.8425856 Eh     change       -0.1021981E-04 Eh
 * total energy  :  -378.8425930 Eh     change       -0.7316768E-05 Eh
 * total energy  :  -378.8425990 Eh     change       -0.6046364E-05 Eh
 * total energy  :  -378.8426046 Eh     change       -0.5553932E-05 Eh
 * total energy  :  -378.8426081 Eh     change       -0.3535330E-05 Eh
   *** GEOMETRY OPTIMIZATION CONVERGED AFTER 56 ITERATIONS ***

 final structure:
================
195
 xtb: 6.5.1 (b24c23e)
Zn          27.14595485908979       -0.00413042670459       -0.04157710500550
C           23.73709731991146       -0.03723771302101       -0.12913997407335
C           24.37239198772694       -1.25819423794883       -0.31888576886225
C           23.70357208662493       -2.51414183112289       -0.51458703409942
C           24.66633520281122       -3.45819634220115       -0.65822850788352
C           25.93656346693240       -2.78702144325483       -0.56459011529985
N           25.72301062321797       -1.45790861331210       -0.34886692855934
C           27.19209338988608       -3.40244750067656       -0.64963382563071
C           27.21224089402061       -4.86202971381353       -0.90541767678877
C           27.78529028455476       -5.73440987680999        0.02542732778374
C           27.80323023159518       -7.09761571519021       -0.20550210931328
C           27.24826511873507       -7.59444479333071       -1.38171271371148
N           27.26735463194353       -9.02397914662172       -1.63111038406362
O           26.77956274744106       -9.41776338763861       -2.65982285671429
O           27.76983849563711       -9.73005384726420       -0.79431926633270
C           26.67550639970796       -6.74335199447002       -2.32290460711148
C           26.65753476435092       -5.38237728285007       -2.07904183827731
C           28.42940495023581       -2.76112366067562       -0.51608429732085
C           29.71225957005683       -3.39064000300269       -0.66931909048200
C           30.65320849748446       -2.42988018236725       -0.48602246293458
N           28.61519346558457       -1.43008376668920       -0.25715991214524
C           29.95623082245497       -1.20425435171990       -0.22766171633311
C           30.58119161145801        0.03452568704712        0.02121766109562
C           29.92039650320224        1.25699884568355        0.25691296267640
C           30.58015646901094        2.49437497516754        0.55359593984999
C           29.61196516625709        3.43210713364918        0.71300667774655
C           28.34988312504182        2.77736796442825        0.50273624326119
N           28.57449028950073        1.45318357875226        0.23936808868032
C           27.09437828915923        3.39180696299112        0.58504688566790
C           27.07028997994806        4.84824494350696        0.85632202376163
C           26.43654498602261        5.34321893094329        2.00075832432850
C           26.41032027292742        6.70121032818706        2.25965095152785
C           27.01942734344794        7.57527803605512        1.36340016588425
N           26.99227674390733        9.00180338094873        1.62839625635680
O           26.43350447256036        9.37322880893458        2.62900218500819
O           27.53038960977362        9.72800250738186        0.83190952344457
C           27.65374746263506        7.10404950936105        0.21712585113250
C           27.67818613106662        5.74371186827780       -0.02952280501281
C           25.85732958433470        2.75192064603350        0.43216387186955
C           24.57102315855589        3.39820969344611        0.46015668521923
C           23.63583258685069        2.43699850868889        0.25975362189041
C           24.33822157812870        1.19492634870454        0.09589093601953
N           25.68127519779370        1.42031965657569        0.19911237380567
H           22.65201756497890       -0.04734209038330       -0.15863734301571
H           22.63318236907160       -2.64610174556842       -0.52935489724915
H           24.53227510931002       -4.51822590471106       -0.80259635763131
H           28.20311990572278       -5.33642307316575        0.94284130862688
H           28.23879703056926       -7.78127157464672        0.51323295012768
H           26.25440333292481       -7.15446276191816       -3.23248874723618
H           26.22600329937929       -4.70845772418114       -2.80995504685979
H           29.87179925327596       -4.43102473088463       -0.90235168558585
H           31.72568213261579       -2.53326861539338       -0.52760090889457
H           31.64784339104850        2.61996738336763        0.63698918421104
H           29.74008250483436        4.47242550439068        0.96488223246129
H           25.97739285932843        4.65181238386509        2.69773429649489
H           25.92685865623827        7.09248536248825        3.14670566718092
H           28.11649919553448        7.80514701678946       -0.46697492374792
H           28.15678567927855        5.36604096802419       -0.92558393151272
H           24.40870180694765        4.45473786384402        0.60102524266328
H           22.56389767668309        2.54856494261863        0.21658788303854
Zn          64.38633180653767        0.03151144250097       -0.02019301893420
C           67.79431081598855        0.09618939246738       -0.11707993433389
C           67.16083999276732        1.29942545233173        0.16796747995429
C           67.83160727224978        2.53794220045412        0.44939841446328
C           66.87037745390703        3.46762530238027        0.67407202611160
C           65.59903100760485        2.80978664908724        0.52020857417774
N           65.81057791211738        1.49586161329776        0.22425001436998
C           64.34452563632375        3.41248054886745        0.67953375691912
C           64.32583794066174        4.86229853851872        0.98550969631767
C           63.75823773794294        5.32492203609979        2.17710297405976
C           63.74121194682326        6.67593733386158        2.47091295014331
C           64.29191049005318        7.57548358732984        1.56213223058807
N           64.27433467826940        8.99487191846447        1.86393077716108
O           64.75961286513544        9.74377757785486        1.05468270037403
O           63.77569547457248        9.33804981557816        2.90551464190323
C           64.85914234079920        7.13656378636078        0.36888015923403
C           64.87597448910941        5.78275717643890        0.08774594712058
C           63.10660568548396        2.76676726066230        0.57539215620512
C           61.82417462369080        3.40736315966316        0.67768616033593
C           60.88226078247261        2.44624205210699        0.50138037439976
N           62.91947696458541        1.43440897410932        0.32438507301247
C           61.57816275740960        1.21260080494270        0.28123590072858
C           60.95193902887296       -0.03114446053258        0.06179121163319
C           61.61124308792795       -1.25298088551066       -0.18117062987858
C           60.95079553564859       -2.51234364470922       -0.36081860744849
C           61.91751114783133       -3.44011970881261       -0.57740636386419
C           63.17921573888476       -2.75261744901100       -0.54305439615157
N           62.95611611229634       -1.42653931124267       -0.28808965575263
C           64.43333661554784       -3.35167697945149       -0.71283331980835
C           64.45530752037962       -4.80288071042051       -1.01139587441621
C           65.09786771257528       -5.69303485260800       -0.14477635594508
C           65.12296123774455       -7.04812527828153       -0.41863733064156
C           64.50395843800135       -7.51916561444257       -1.57328988745660
N           64.53028682525387       -8.93996031019330       -1.86768990875543
O           65.09724610548852       -9.66143983917005       -1.08707453119118
O           63.98408039560261       -9.31162174619517       -2.87510213263791
C           63.86054638584586       -6.65029619947430       -2.45045916707053
C           63.83706911970472       -5.29770138651272       -2.16422036115188
C           65.67087935310718       -2.70039726634789       -0.62694910189794
C           66.95543491479108       -3.30904030036913       -0.85603409451139
C           67.89175466579356       -2.34276964326232       -0.68773882955551
C           67.19163199693307       -1.13061683991493       -0.36608214471807
N           65.84885444454864       -1.37883903750271       -0.34347444733859
H           68.87918126916418        0.11688650427684       -0.14865922773288
H           68.90221657580948        2.66592609064489        0.47728597861925
H           67.00628774332489        4.50525860443856        0.93351760259547
H           63.34396696685511        4.61363044656755        2.88213628647745
H           63.30969068264903        7.04232739735955        3.39461370290511
H           65.27686018073919        7.85714200774234       -0.32391890587777
H           65.30295279929156        5.43009347234984       -0.84388771932419
H           61.66525435688060        4.46003276903913        0.84728859022885
H           59.80976059551433        2.55694249830725        0.51122857256339
H           59.88378090020075       -2.66142116083929       -0.31664082192970
H           61.78903803690372       -4.49916168758960       -0.73257936196131
H           65.56499020792862       -5.31587567076297        0.75753895384709
H           65.61323584368081       -7.74519322543708        0.25025666934777
H           63.39016749082688       -7.04125451938571       -3.34464669542927
H           63.35116957871821       -4.60986300205136       -2.84642688247230
H           67.11580092480249       -4.34075834092042       -1.12491275485548
H           68.96296455559265       -2.42946107145252       -0.77912354562714
C           31.98640991097188        0.05085128147736        0.03254509931576
C           33.21121048784923        0.05866516453827        0.03111666250214
C           34.55382301603341        0.06164594649900        0.02753988931747
C           35.78469543726625        0.06098895919449        0.02111365157533
C           37.12240430438167        0.05673475762712        0.01017077013704
C           38.35334295950491        0.05270872242429       -0.00081252809098
C           39.69568578821291        0.04325226867484       -0.01147098828333
C           40.92063344235334        0.03396569305280       -0.02251754844395
C           50.61306953234168        0.00094613745396        0.07640227998867
C           51.83792988190552       -0.01103659941080        0.09388857720503
C           53.18018804935441       -0.02289684904603        0.10437140487083
C           54.41108763886666       -0.03564032203066        0.10988791397864
C           55.74875642612623       -0.04652160684793        0.11020676339903
C           56.97963334800725       -0.05432840442017        0.10669179653067
C           58.32217199939564       -0.05573907486722        0.09697436076235
C           59.54698097411710       -0.05125033503832        0.08435757401466
Zn          45.76753037629651        0.01618261208087       -0.00080209588555
C           42.32526803191017        0.02763475323608       -0.02510311043306
C           42.96544254368689       -1.22662327243920        0.04116852947674
C           42.28363956115340       -2.48383430713275        0.12996481753254
C           43.23626482244859       -3.45051238633915        0.16022601302059
C           44.50993996054129       -2.79079672105839        0.08241780188109
N           44.30879688647371       -1.43845171144671        0.02114301191068
C           45.75536611588183       -3.42957557504606        0.10017569062646
C           45.75056501113120       -4.91165690338321        0.13739269523555
C           46.32090457613099       -5.59354291589574        1.21681550464494
C           46.31795307794711       -6.97579347433770        1.25673282172359
C           45.74470243206267       -7.68425024836623        0.20434507572223
N           45.74205534257840       -9.13546264534851        0.23928435075692
O           45.23690296858550       -9.71505786103929       -0.68796048867921
O           46.24524157586536       -9.67153005980532        1.19341135215388
C           45.17390256313772       -7.02502112521740       -0.88083357351666
C           45.17666736107443       -5.64241829528780       -0.90759251988781
C           47.00519624890484       -2.79931101388414        0.08739126994422
C           48.27480751901578       -3.47051006394657        0.05560790619977
C           49.23389151722655       -2.50984059747898        0.04405157187452
N           47.21524934658099       -1.44692638954621        0.07612650067986
C           48.56014129793441       -1.24531995246065        0.05684326276250
C           49.20867995241224        0.00653649330749        0.05433196884029
C           48.56781119757079        1.26186732765469        0.02491586579308
C           49.24816171090603        2.52269815652730        0.04846220536410
C           48.29591225834935        3.48845525936086       -0.01055486463313
C           47.02413016684440        2.82403301768087       -0.07897713627577
N           47.22552199831117        1.47085049800579       -0.04313468250799
C           45.77930368203870        3.46167009583376       -0.14171705747048
C           45.78556520998944        4.94212229932218       -0.21499300487983
C           46.40019366623177        5.59214485500408       -1.28995339253528
C           46.40459334444370        6.97269025216928       -1.36846247510348
C           45.79353375702946        7.71207644027171       -0.35950288314913
N           45.79648039735309        9.16162951673607       -0.43589117877070
O           46.33581061944168        9.66926192362138       -1.38587736775340
O           45.25900631775603        9.76849909274227        0.45502964666228
C           45.17956017325639        7.08512432372191        0.72126499363347
C           45.17621534654841        5.70384866454851        0.78704677068797
C           44.52955131470711        2.83080567905193       -0.14252332463921
C           43.26140661506465        3.49636282255185       -0.25492025625480
C           42.30220321069771        2.53651472538259       -0.21781367784341
C           42.97462437630775        1.27703544522287       -0.09631524967871
N           44.31881897763174        1.48097933846089       -0.06050028412020
H           41.21283617451935       -2.60382211328993        0.16992186697200
H           43.09019601670224       -4.51544253451564        0.24210898996756
H           46.75372923300304       -5.03043259462013        2.03544979075557
H           46.75165216404543       -7.51235762325769        2.09199956427838
H           44.73805917449080       -7.59946110932618       -1.68937915526788
H           44.74595657953408       -5.11766227143068       -1.75241584155757
H           48.41457008017559       -4.53913271675685        0.03139568015888
H           50.30409507573988       -2.63903154585228        0.02049953732653
H           50.31761358355984        2.64590380158764        0.10939012141917
H           48.44089666657773        4.55654271702595        0.00580600881791
H           46.86150953770634        5.00516143660562       -2.07562847858350
H           46.87224562548379        7.48428092331915       -2.20109112750892
H           44.71501125644336        7.68324539920746        1.49594674876857
H           44.71240236407686        5.20454525895463        1.62975886924827
H           43.12264422768547        4.55995928814751       -0.36240194420461
H           41.23295270853717        2.66230491160952       -0.27669836404345

          :  Hamiltonian                  GFN1-xTB          :
         :: total energy            -378.842608099730 Eh    ::
         :: gradient norm              0.000545924320 Eh/a0 ::
         :: HOMO-LUMO gap              0.971425724344 eV    ::
         :: SCC energy              -384.458988928824 Eh    ::
         :: repulsion energy           5.789673849503 Eh    ::

    * Orbital Energies and Occupations

         #    Occupation            Energy/Eh            Energy/eV
      -------------------------------------------------------------
         1        2.0000           -0.9218936             -25.0860
       ...           ...                  ...                  ...
       321        2.0000           -0.4440524             -12.0833
       322        2.0000           -0.4440450             -12.0831
       323        2.0000           -0.4437646             -12.0754
       324        2.0000           -0.4377679             -11.9123
       325        2.0000           -0.4298666             -11.6973
       326        2.0000           -0.4249542             -11.5636
       327        2.0000           -0.4246414             -11.5551
       328        2.0000           -0.4183598             -11.3841
       329        2.0000           -0.4167635             -11.3407
       330        2.0000           -0.4167564             -11.3405
       331        2.0000           -0.4106182             -11.1735
       332        2.0000           -0.4050212             -11.0212
       333        2.0000           -0.3986672             -10.8483 (HOMO)
       334                         -0.3629679              -9.8769 (LUMO)
       335                         -0.3572923              -9.7224
       336                         -0.3564118              -9.6985
       337                         -0.3563962              -9.6980
       338                         -0.3550268              -9.6608
       339                         -0.3495802              -9.5126
       340                         -0.3486118              -9.4862
       341                         -0.3478756              -9.4662
       342                         -0.3478686              -9.4660
       343                         -0.3420416              -9.3074
       344                         -0.3410092              -9.2793
       ...                                ...                  ...
       680                          1.5879655              43.2107
      -------------------------------------------------------------
                  HL-Gap            0.0356992 Eh            0.9714 eV

Wiberg/Mayer (AO) data.
largest (>0.10) Wiberg bond orders for each atom

     #   Z sym  total        # sym  WBO       # sym  WBO       # sym  WBO
 ---------------------------------------------------------------------------
     1  30 Zn   1.989 --    43 N    0.458     7 N    0.458    21 N    0.454
                            28 N    0.454
     2   6 C    3.929 --    42 C    1.359     3 C    1.358    44 H    0.971
     3   6 C    3.919 --     2 C    1.358     7 N    1.232     4 C    1.169
     4   6 C    3.960 --     5 C    1.661     3 C    1.169    45 H    0.975
     5   6 C    3.963 --     4 C    1.661     6 C    1.170    46 H    0.973
     6   6 C    3.919 --     8 C    1.311     7 N    1.248     5 C    1.170
     7   7 N    3.293 --     6 C    1.248     3 C    1.232     1 Zn   0.458
     8   6 C    3.930 --    18 C    1.319     6 C    1.311     9 C    1.035
     9   6 C    3.983 --    17 C    1.382    10 C    1.382     8 C    1.035
    10   6 C    3.986 --    11 C    1.465     9 C    1.382    47 H    0.971
                            16 C    0.101
    11   6 C    3.987 --    10 C    1.465    12 C    1.386    48 H    0.965
                            17 C    0.101
    12   6 C    3.940 --    16 C    1.386    11 C    1.386    13 N    0.922
    13   7 N    3.865 --    15 O    1.453    14 O    1.453    12 C    0.922
    14   8 O    1.827 --    13 N    1.453    15 O    0.251
    15   8 O    1.827 --    13 N    1.453    14 O    0.251
    16   6 C    3.987 --    17 C    1.465    12 C    1.386    49 H    0.965
                            10 C    0.101
    17   6 C    3.986 --    16 C    1.465     9 C    1.382    50 H    0.971
                            11 C    0.101
    18   6 C    3.912 --     8 C    1.319    21 N    1.229    19 C    1.177
    19   6 C    3.959 --    20 C    1.647    18 C    1.177    51 H    0.973
    20   6 C    3.961 --    19 C    1.647    22 C    1.185    52 H    0.974
    21   7 N    3.296 --    22 C    1.261    18 C    1.229     1 Zn   0.454
    22   6 C    3.898 --    21 N    1.261    23 C    1.254    20 C    1.185
    23   6 C    3.940 --    24 C    1.254    22 C    1.254   121 C    1.193
    24   6 C    3.899 --    28 N    1.261    23 C    1.254    25 C    1.185
    25   6 C    3.961 --    26 C    1.647    24 C    1.185    53 H    0.974
    26   6 C    3.959 --    25 C    1.647    27 C    1.177    54 H    0.973
    27   6 C    3.912 --    29 C    1.319    28 N    1.229    26 C    1.177
    28   7 N    3.295 --    24 C    1.261    27 C    1.229     1 Zn   0.454
    29   6 C    3.930 --    27 C    1.319    39 C    1.310    30 C    1.036
    30   6 C    3.983 --    38 C    1.382    31 C    1.382    29 C    1.036
    31   6 C    3.986 --    32 C    1.465    30 C    1.382    55 H    0.971
                            37 C    0.101
    32   6 C    3.987 --    31 C    1.465    33 C    1.385    56 H    0.965
                            38 C    0.101
    33   6 C    3.939 --    37 C    1.385    32 C    1.385    34 N    0.923
    34   7 N    3.865 --    36 O    1.453    35 O    1.453    33 C    0.923
    35   8 O    1.827 --    34 N    1.453    36 O    0.251
    36   8 O    1.827 --    34 N    1.453    35 O    0.251
    37   6 C    3.987 --    38 C    1.465    33 C    1.385    57 H    0.965
                            31 C    0.101
    38   6 C    3.986 --    37 C    1.465    30 C    1.382    58 H    0.971
                            32 C    0.101
    39   6 C    3.919 --    29 C    1.310    43 N    1.248    40 C    1.170
    40   6 C    3.963 --    41 C    1.661    39 C    1.170    59 H    0.973
    41   6 C    3.960 --    40 C    1.661    42 C    1.169    60 H    0.975
    42   6 C    3.919 --     2 C    1.359    43 N    1.231    41 C    1.169
    43   7 N    3.293 --    39 C    1.248    42 C    1.231     1 Zn   0.458
    44   1 H    1.001 --     2 C    0.971
    45   1 H    0.997 --     4 C    0.975
    46   1 H    1.003 --     5 C    0.973
    47   1 H    1.004 --    10 C    0.971
    48   1 H    1.006 --    11 C    0.965
    49   1 H    1.006 --    16 C    0.965
    50   1 H    1.004 --    17 C    0.971
    51   1 H    1.003 --    19 C    0.973
    52   1 H    1.001 --    20 C    0.974
    53   1 H    1.001 --    25 C    0.974
    54   1 H    1.003 --    26 C    0.973
    55   1 H    1.004 --    31 C    0.971
    56   1 H    1.006 --    32 C    0.965
    57   1 H    1.006 --    37 C    0.965
    58   1 H    1.004 --    38 C    0.971
    59   1 H    1.003 --    40 C    0.973
    60   1 H    0.997 --    41 C    0.975
    61  30 Zn   1.989 --   103 N    0.458    67 N    0.458    81 N    0.454
                            88 N    0.454
    62   6 C    3.929 --   102 C    1.359    63 C    1.358   104 H    0.971
    63   6 C    3.919 --    62 C    1.358    67 N    1.232    64 C    1.169
    64   6 C    3.960 --    65 C    1.661    63 C    1.169   105 H    0.975
    65   6 C    3.963 --    64 C    1.661    66 C    1.170   106 H    0.973
    66   6 C    3.919 --    68 C    1.311    67 N    1.248    65 C    1.170
    67   7 N    3.293 --    66 C    1.248    63 C    1.232    61 Zn   0.458
    68   6 C    3.930 --    78 C    1.319    66 C    1.311    69 C    1.035
    69   6 C    3.983 --    77 C    1.382    70 C    1.382    68 C    1.035
    70   6 C    3.986 --    71 C    1.465    69 C    1.382   107 H    0.971
                            76 C    0.101
    71   6 C    3.987 --    70 C    1.465    72 C    1.385   108 H    0.965
                            77 C    0.101
    72   6 C    3.940 --    76 C    1.386    71 C    1.385    73 N    0.922
    73   7 N    3.865 --    74 O    1.453    75 O    1.453    72 C    0.922
    74   8 O    1.827 --    73 N    1.453    75 O    0.251
    75   8 O    1.827 --    73 N    1.453    74 O    0.251
    76   6 C    3.987 --    77 C    1.465    72 C    1.386   109 H    0.965
                            70 C    0.101
    77   6 C    3.986 --    76 C    1.465    69 C    1.382   110 H    0.971
                            71 C    0.101
    78   6 C    3.912 --    68 C    1.319    81 N    1.229    79 C    1.177
    79   6 C    3.959 --    80 C    1.647    78 C    1.177   111 H    0.973
    80   6 C    3.961 --    79 C    1.647    82 C    1.185   112 H    0.974
    81   7 N    3.296 --    82 C    1.261    78 C    1.229    61 Zn   0.454
    82   6 C    3.898 --    81 N    1.261    83 C    1.254    80 C    1.185
    83   6 C    3.940 --    84 C    1.254    82 C    1.254   136 C    1.193
    84   6 C    3.899 --    88 N    1.261    83 C    1.254    85 C    1.185
    85   6 C    3.961 --    86 C    1.647    84 C    1.185   113 H    0.974
    86   6 C    3.959 --    85 C    1.647    87 C    1.177   114 H    0.973
    87   6 C    3.912 --    89 C    1.319    88 N    1.229    86 C    1.177
    88   7 N    3.295 --    84 C    1.261    87 C    1.229    61 Zn   0.454
    89   6 C    3.930 --    87 C    1.319    99 C    1.310    90 C    1.036
    90   6 C    3.983 --    98 C    1.382    91 C    1.382    89 C    1.036
    91   6 C    3.986 --    92 C    1.465    90 C    1.382   115 H    0.971
                            97 C    0.101
    92   6 C    3.987 --    91 C    1.465    93 C    1.385   116 H    0.965
                            98 C    0.101
    93   6 C    3.939 --    97 C    1.385    92 C    1.385    94 N    0.923
    94   7 N    3.865 --    96 O    1.453    95 O    1.453    93 C    0.923
    95   8 O    1.827 --    94 N    1.453    96 O    0.251
    96   8 O    1.827 --    94 N    1.453    95 O    0.251
    97   6 C    3.987 --    98 C    1.465    93 C    1.385   117 H    0.965
                            91 C    0.101
    98   6 C    3.986 --    97 C    1.465    90 C    1.382   118 H    0.971
                            92 C    0.101
    99   6 C    3.919 --    89 C    1.310   103 N    1.248   100 C    1.170
   100   6 C    3.963 --   101 C    1.661    99 C    1.170   119 H    0.973
   101   6 C    3.960 --   100 C    1.661   102 C    1.169   120 H    0.975
   102   6 C    3.919 --    62 C    1.359   103 N    1.232   101 C    1.169
   103   7 N    3.293 --    99 C    1.248   102 C    1.232    61 Zn   0.458
   104   1 H    1.001 --    62 C    0.971
   105   1 H    0.997 --    64 C    0.975
   106   1 H    1.003 --    65 C    0.973
   107   1 H    1.004 --    70 C    0.971
   108   1 H    1.006 --    71 C    0.965
   109   1 H    1.006 --    76 C    0.965
   110   1 H    1.004 --    77 C    0.971
   111   1 H    1.003 --    79 C    0.973
   112   1 H    1.001 --    80 C    0.974
   113   1 H    1.001 --    85 C    0.974
   114   1 H    1.003 --    86 C    0.973
   115   1 H    1.004 --    91 C    0.971
   116   1 H    1.006 --    92 C    0.965
   117   1 H    1.006 --    97 C    0.965
   118   1 H    1.004 --    98 C    0.971
   119   1 H    1.003 --   100 C    0.973
   120   1 H    0.997 --   101 C    0.975
   121   6 C    3.877 --   122 C    2.438    23 C    1.193   124 C    0.186
   122   6 C    3.934 --   121 C    2.438   123 C    1.345
   123   6 C    3.892 --   124 C    2.335   122 C    1.345   126 C    0.182
   124   6 C    3.925 --   123 C    2.335   125 C    1.370   121 C    0.186
   125   6 C    3.924 --   126 C    2.334   124 C    1.370   128 C    0.186
   126   6 C    3.893 --   125 C    2.334   127 C    1.346   123 C    0.182
   127   6 C    3.931 --   128 C    2.435   126 C    1.346
   128   6 C    3.877 --   127 C    2.435   138 C    1.196   125 C    0.186
   129   6 C    3.877 --   130 C    2.435   159 C    1.196   132 C    0.186
   130   6 C    3.931 --   129 C    2.435   131 C    1.346
   131   6 C    3.893 --   132 C    2.333   130 C    1.346   134 C    0.182
   132   6 C    3.924 --   131 C    2.333   133 C    1.370   129 C    0.186
   133   6 C    3.925 --   134 C    2.334   132 C    1.370   136 C    0.186
   134   6 C    3.892 --   133 C    2.334   135 C    1.345   131 C    0.182
   135   6 C    3.934 --   136 C    2.438   134 C    1.345
   136   6 C    3.877 --   135 C    2.438    83 C    1.193   133 C    0.186
   137  30 Zn   1.987 --   157 N    0.455   164 N    0.455   143 N    0.455
                           179 N    0.454
   138   6 C    3.929 --   139 C    1.252   178 C    1.251   128 C    1.196
   139   6 C    3.899 --   143 N    1.262   138 C    1.252   140 C    1.187
   140   6 C    3.960 --   141 C    1.645   139 C    1.187   180 H    0.974
   141   6 C    3.959 --   140 C    1.645   142 C    1.180   181 H    0.973
   142   6 C    3.910 --   144 C    1.316   143 N    1.227   141 C    1.180
   143   7 N    3.291 --   139 C    1.262   142 C    1.227   137 Zn   0.455
   144   6 C    3.926 --   154 C    1.316   142 C    1.316   145 C    1.033
   145   6 C    3.983 --   153 C    1.383   146 C    1.383   144 C    1.033
   146   6 C    3.986 --   147 C    1.464   145 C    1.383   182 H    0.971
                           152 C    0.101
   147   6 C    3.987 --   146 C    1.464   148 C    1.386   183 H    0.965
                           153 C    0.101
   148   6 C    3.940 --   152 C    1.386   147 C    1.386   149 N    0.922
   149   7 N    3.865 --   150 O    1.453   151 O    1.453   148 C    0.922
   150   8 O    1.828 --   149 N    1.453   151 O    0.251
   151   8 O    1.828 --   149 N    1.453   150 O    0.251
   152   6 C    3.987 --   153 C    1.464   148 C    1.386   184 H    0.965
                           146 C    0.101
   153   6 C    3.986 --   152 C    1.464   145 C    1.383   185 H    0.971
                           147 C    0.101
   154   6 C    3.910 --   144 C    1.316   157 N    1.227   155 C    1.180
   155   6 C    3.959 --   156 C    1.644   154 C    1.180   186 H    0.973
   156   6 C    3.960 --   155 C    1.644   158 C    1.187   187 H    0.973
   157   7 N    3.291 --   158 C    1.262   154 C    1.227   137 Zn   0.455
   158   6 C    3.899 --   157 N    1.262   159 C    1.251   156 C    1.187
   159   6 C    3.929 --   160 C    1.252   158 C    1.251   129 C    1.196
   160   6 C    3.899 --   164 N    1.262   159 C    1.252   161 C    1.187
   161   6 C    3.960 --   162 C    1.644   160 C    1.187   188 H    0.974
   162   6 C    3.959 --   161 C    1.644   163 C    1.180   189 H    0.973
   163   6 C    3.910 --   165 C    1.315   164 N    1.228   162 C    1.180
   164   7 N    3.291 --   160 C    1.262   163 C    1.228   137 Zn   0.455
   165   6 C    3.926 --   175 C    1.316   163 C    1.315   166 C    1.035
   166   6 C    3.983 --   174 C    1.382   167 C    1.382   165 C    1.035
   167   6 C    3.986 --   168 C    1.465   166 C    1.382   190 H    0.971
                           173 C    0.101
   168   6 C    3.987 --   167 C    1.465   169 C    1.386   191 H    0.965
                           174 C    0.101
   169   6 C    3.940 --   173 C    1.386   168 C    1.386   170 N    0.922
   170   7 N    3.865 --   172 O    1.453   171 O    1.453   169 C    0.922
   171   8 O    1.827 --   170 N    1.453   172 O    0.251
   172   8 O    1.827 --   170 N    1.453   171 O    0.251
   173   6 C    3.987 --   174 C    1.464   169 C    1.386   192 H    0.965
                           167 C    0.101
   174   6 C    3.986 --   173 C    1.464   166 C    1.382   193 H    0.971
                           168 C    0.101
   175   6 C    3.910 --   165 C    1.316   179 N    1.227   176 C    1.180
   176   6 C    3.959 --   177 C    1.645   175 C    1.180   194 H    0.973
   177   6 C    3.960 --   176 C    1.645   178 C    1.187   195 H    0.973
   178   6 C    3.899 --   179 N    1.262   138 C    1.251   177 C    1.187
   179   7 N    3.290 --   178 C    1.262   175 C    1.227   137 Zn   0.454
   180   1 H    1.001 --   140 C    0.974
   181   1 H    1.003 --   141 C    0.973
   182   1 H    1.004 --   146 C    0.971
   183   1 H    1.006 --   147 C    0.965
   184   1 H    1.006 --   152 C    0.965
   185   1 H    1.003 --   153 C    0.971
   186   1 H    1.003 --   155 C    0.973
   187   1 H    1.001 --   156 C    0.973
   188   1 H    1.001 --   161 C    0.974
   189   1 H    1.003 --   162 C    0.973
   190   1 H    1.004 --   167 C    0.971
   191   1 H    1.006 --   168 C    0.965
   192   1 H    1.006 --   173 C    0.965
   193   1 H    1.004 --   174 C    0.971
   194   1 H    1.003 --   176 C    0.973
   195   1 H    1.001 --   177 C    0.973
 ---------------------------------------------------------------------------

           -------------------------------------------------
          | TOTAL ENERGY             -378.842608099730 Eh   |
          | GRADIENT NORM               0.000545924320 Eh/α |
          | HOMO-LUMO GAP               0.971425724344 eV   |
           -------------------------------------------------

 * finished run on 2022/07/30 at 10:23:41.403
