   * xtb version 6.5.1 (b24c23e) compiled by 'conda@728c89f4b128' on 2022-07-12
          program call               : xtb Fe_p-CP_C6_2.xyz --gfn 1 --opt -T 48

   ID    Z sym.   atoms
    1   26 Fe     1, 63
    2    6 C      2-6, 8-11, 13-24, 27-32, 35-39, 42, 43, 64-68, 70-73,
                  75-86, 89-94, 97-101, 104, 105, 125-130
    3    7 N      7, 12, 33, 34, 69, 74, 95, 96
    4    8 O      25, 26, 40, 41, 87, 88, 102, 103
    5    1 H      44-62, 106-124
########################################################################
[WARNING] Please study the warnings concerning your input carefully
-1- prog_main_parseArguments: Unknown option '-T' provided
########################################################################

          :  Hamiltonian                  GFN1-xTB          :
 * total energy  :  -245.5737576 Eh     change        0.9723067E-10 Eh
 * total energy  :  -245.8343134 Eh     change       -0.2605558E+00 Eh
 * total energy  :  -245.9097076 Eh     change       -0.7539413E-01 Eh
 * total energy  :  -245.9424716 Eh     change       -0.3276406E-01 Eh
 * total energy  :  -245.9544528 Eh     change       -0.1198121E-01 Eh
 * total energy  :  -245.9601504 Eh     change       -0.5697558E-02 Eh
 * total energy  :  -245.9630727 Eh     change       -0.2922336E-02 Eh
 * total energy  :  -245.9647263 Eh     change       -0.1653565E-02 Eh
 * total energy  :  -245.9657132 Eh     change       -0.9869387E-03 Eh
 * total energy  :  -245.9663555 Eh     change       -0.6422780E-03 Eh
 * total energy  :  -245.9687417 Eh     change       -0.1034271E-04 Eh
 * total energy  :  -245.9687511 Eh     change       -0.9341085E-05 Eh
 * total energy  :  -245.9687646 Eh     change       -0.1350451E-04 Eh
 * total energy  :  -245.9687749 Eh     change       -0.1033276E-04 Eh
 * total energy  :  -245.9687827 Eh     change       -0.7797993E-05 Eh
 * total energy  :  -245.9687898 Eh     change       -0.7070858E-05 Eh
 * total energy  :  -245.9687979 Eh     change       -0.8085612E-05 Eh
 * total energy  :  -245.9688051 Eh     change       -0.7177806E-05 Eh
 * total energy  :  -245.9688059 Eh     change       -0.8121422E-06 Eh
   *** GEOMETRY OPTIMIZATION CONVERGED AFTER 44 ITERATIONS ***

 final structure:
================
130
 xtb: 6.5.1 (b24c23e)
Fe          16.45550175234479       -0.12172515571819        0.02822201592808
C           13.06792963494469       -0.20150388141891        0.04872348617486
C           13.72377324655777       -0.36296761424773        1.25157739936682
C           13.04979708433055       -0.56245146121329        2.49913624632312
C           14.00235948312338       -0.54976626152577        3.46061080001373
C           15.25944184137405       -0.35735800235583        2.79655406913513
N           15.07617395119983       -0.25576586863919        1.44419179380957
C           16.47273997692163       -0.20337470655814        3.45822666656274
C           17.67887916373263       -0.02959290825420        2.79504932252550
C           18.94524182868982        0.06601775106903        3.45861125664847
C           19.89285806255202        0.08336627567979        2.49100220083227
N           17.85446652777429       -0.04416329223118        1.43147211360849
C           19.20368615842035       -0.00008065545116        1.24149090223402
C           19.86316413507697       -0.07674121240702        0.00847523548958
C           19.18613552074005       -0.12933497566616       -1.21616313790515
C           19.85580681691508       -0.22265855725801       -2.47530442789533
C           18.89754788393675       -0.15279471852798       -3.43049351941677
C           17.64503649965616       -0.01221148617230       -2.74940990416722
C           16.42499439579919        0.14247416879074       -3.39373995811443
C           16.41057920674324        0.23490731680452       -4.87164800703187
C           15.73129275001526       -0.72065487707725       -5.63233618881682
C           15.71646975741027       -0.63237424138618       -7.01199759708602
C           16.37757227717475        0.41452589025828       -7.65708312280589
C           16.32759501462435        0.46926817376569       -9.13801711586325
O           17.00435118159537        1.50313096737056       -9.66021561593209
O           15.74090889250113       -0.32481260086523       -9.82823611004355
C           17.05804574337854        1.37044054170662       -6.90230794661284
C           17.07520178617344        1.27793144030918       -5.52150867149971
C           15.21324153376359        0.19328338090128       -2.71279189848049
C           13.94059468410931        0.37018440815996       -3.35132516032157
C           12.99925495635243        0.25501622482616       -2.38550822054876
C           13.69811004138470        0.02766564709071       -1.15677807989116
N           15.05297969066847        0.03206515314101       -1.36299728517211
N           17.83726646859368       -0.02944476830808       -1.38883494730611
C           16.48054023107424       -0.24071759294707        4.94040585901019
C           16.15142600503895       -1.41552053179951        5.62048505665619
C           16.16177191487253       -1.44598994101113        7.00301259670216
C           16.49644515189302       -0.30174756199125        7.72943690145206
C           16.49158925864083       -0.38367008766795        9.21001497072390
O           16.83352782388235        0.76526303251850        9.81218892114920
O           16.21007433429372       -1.37406815331033        9.83532412468830
C           16.82386195034974        0.87416698537724        7.05387190290299
C           16.81822950225826        0.90121461993229        5.67007089445468
H           11.98450465445731       -0.24146436595800        0.05369980433137
H           11.98323524109576       -0.68019937199449        2.60604060295901
H           13.87669272739987       -0.64927338051144        4.52645878375849
H           19.08186983552806        0.09374825379888        4.52729742176697
H           20.96410104933796        0.13847059243109        2.59839668215821
H           20.92181159062694       -0.32775461476659       -2.59674048324863
H           19.01724194666621       -0.20265105726765       -4.50040911900738
H           15.22856613848032       -1.54162662199985       -5.13393636718519
H           15.19431555723613       -1.37240253116616       -7.60849471377728
H           16.92145173108278        1.46800011515191      -10.62704931895857
H           17.57079666118021        2.18563349355492       -7.39897123339047
H           17.59309767139921        2.02791849642860       -4.93442505105264
H           13.79854439659277        0.56023158972043       -4.40271350530556
H           11.92660668631731        0.31861326522026       -2.47621331559513
H           15.90248926734814       -2.30772507104608        5.05741606298911
H           15.91271416946179       -2.35549288361021        7.53860488997803
H           16.80563163208832        0.62902735943496       10.77317993939011
H           17.08159618961653        1.76515530594954        7.61407424346526
H           17.06341210003412        1.81691007143459        5.14405993019937
Fe          32.43688931515698       -0.11707483884154       -0.04194969501499
C           35.82472724830828       -0.19409565718856       -0.07141457778315
C           35.16906767681784       -0.21247518851764       -1.28499060081727
C           35.84354900506017       -0.26270502543063       -2.54710592550804
C           34.89101744738113       -0.13933285001510       -3.50072292544905
C           33.63345306409171       -0.02907524606589       -2.81906498955889
N           33.81648453456297       -0.08568874760077       -1.46403205622963
C           32.41961559372053        0.19646906054520       -3.45890903970553
C           31.21300168836196        0.28920699878408       -2.78044929388150
C           29.94632645824981        0.45655894366879       -3.42903185321579
C           28.99885847747524        0.36258432552306       -2.46571736808213
N           31.03764140236061        0.11944068573035       -1.42735673543840
C           29.68840837988109        0.13970507820394       -1.23362873104834
C           29.02890464372526       -0.07495344135359       -0.01701318828344
C           29.70573479459783       -0.26447258246819        1.19404837649120
C           29.03566241683267       -0.49746154393671        2.43474430346358
C           29.99398070539576       -0.53832669361770        3.39150523903490
C           31.24692764127200       -0.32503835565567        2.73037856779957
C           32.46734381720755       -0.24972509384993        3.38792322172154
C           32.48166404203069       -0.32847433652759        4.86668782827888
C           33.15497618454545       -1.36940807494595        5.51183237405529
C           33.16928047694849       -1.44125636115127        6.89246165122051
C           32.51380059329736       -0.47206158543969        7.65416666449503
C           32.56290197887478       -0.58914775942660        9.13150571321132
O           31.89208003742337        0.38162307019459        9.76961162789370
O           33.14393409751511       -1.46141444264023        9.72539976009025
C           31.83951599747921        0.56869559434031        7.01489371982983
C           31.82273345359232        0.63640994568633        5.63265170211204
C           33.67943348805055       -0.12453471747761        2.71736274985032
C           34.95227874650072       -0.02657991157760        3.37226431724874
C           35.89357839663089       -0.02908011377617        2.39959252415887
C           35.19451286407148       -0.10906388144383        1.15267989547247
N           33.83962876183391       -0.12707211690339        1.35797438410283
N           31.05480453652273       -0.18731299786672        1.37666149083280
C           32.41190503512586        0.33029340678844       -4.93545357466835
C           32.74825333507233       -0.75611510951388       -5.74641638747709
C           32.73817129048535       -0.62684962965459       -7.12321699913283
C           32.39646484879007        0.59152861033329       -7.71296396444488
C           32.40305896869961        0.68142652941492       -9.19307644410652
O           32.05165225678207        1.88933438836616       -9.65893818510930
O           32.69118919945080       -0.22835612000487       -9.92831648879895
C           32.06136515953726        1.67944937953570       -6.90641310049922
C           32.06701933289310        1.54668113530046       -5.52873568324844
H           36.90816134989882       -0.23299998660709       -0.08101392334471
H           36.91036191767293       -0.36486628673281       -2.66676747780337
H           35.01704310388269       -0.11273199730111       -4.57082559998346
H           29.80935657006105        0.60461071442302       -4.48772747198715
H           27.92749830420688        0.42747565572922       -2.56621807551832
H           27.96938715948464       -0.61293732083926        2.54373477882273
H           29.87407659646158       -0.70827991814786        4.44898440104937
H           33.65341145142268       -2.13011598860964        4.92190294875468
H           33.68668457890490       -2.24830774627380        7.39946976446752
H           31.97391153600723        0.23443919492177       10.72591369727676
H           31.33120699773638        1.32405788366517        7.60241012157007
H           31.30952296734052        1.45214364513838        5.13610820025928
H           35.09444988189432        0.03814276893000        4.43871327918631
H           36.96632330352622        0.02153448214741        2.49707418093231
H           33.00246061556071       -1.70588836496652       -5.28996050496058
H           32.99310561007432       -1.46683478389593       -7.76002484153669
H           32.08020519512708        1.86501153174721      -10.62921356382105
H           31.79843370822794        2.62763481083363       -7.36017736748884
H           31.81642302776332        2.39409222357759       -4.90074216328306
C           25.06118283794613       -0.10699750418678       -0.00303768833371
C           23.83091028828444       -0.10494169768423       -0.00628934275113
C           22.48959929953464       -0.10052513536845       -0.00303938857276
C           21.26393997299721       -0.09293398136354        0.00047633554488
C           26.40248571506226       -0.10216404594761       -0.01012602202650
C           27.62810925127227       -0.09140139089844       -0.01085765533361

          :  Hamiltonian                  GFN1-xTB          :
         :: total energy            -245.968805867357 Eh    ::
         :: gradient norm              0.000727508491 Eh/a0 ::
         :: HOMO-LUMO gap              0.094883926423 eV    ::
         :: SCC energy              -249.599455772453 Eh    ::
         :: repulsion energy           3.745289669253 Eh    ::

    * Orbital Energies and Occupations

         #    Occupation            Energy/Eh            Energy/eV
      -------------------------------------------------------------
         1        2.0000           -0.8340762             -22.6964
       ...           ...                  ...                  ...
       207        2.0000           -0.4371866             -11.8965
       208        2.0000           -0.4331609             -11.7869
       209        2.0000           -0.4270126             -11.6196
       210        2.0000           -0.4070817             -11.0773
       211        2.0000           -0.4070744             -11.0771
       212        2.0000           -0.4065974             -11.0641
       213        1.9922           -0.3995665             -10.8728
       214        1.9915           -0.3994898             -10.8707
       215        1.9446           -0.3976848             -10.8216
       216        1.9433           -0.3976608             -10.8209
       217        1.9369           -0.3975570             -10.8181
       218        1.9368           -0.3975548             -10.8180
       219        1.7432           -0.3961232             -10.7791 (HOMO)
       220        0.2948           -0.3926362             -10.6842 (LUMO)
       221        0.2166           -0.3923007             -10.6750
       222                         -0.3496967              -9.5157
       223                         -0.3397104              -9.2440
       224                         -0.3397016              -9.2438
       225                         -0.3371525              -9.1744
       226                         -0.3171027              -8.6288
       227                         -0.3155369              -8.5862
       228                         -0.3119116              -8.4875
       229                         -0.3118534              -8.4860
       230                         -0.3104278              -8.4472
       ...                                ...                  ...
       454                          1.5630050              42.5315
      -------------------------------------------------------------
                  HL-Gap            0.0034869 Eh            0.0949 eV

Wiberg/Mayer (AO) data.
largest (>0.10) Wiberg bond orders for each atom

     #   Z sym  total        # sym  WBO       # sym  WBO       # sym  WBO
 ---------------------------------------------------------------------------
     1  26 Fe   3.165 --    33 N    0.674     7 N    0.668    12 N    0.665
                            34 N    0.661
     2   6 C    3.926 --    32 C    1.363     3 C    1.363    44 H    0.970
     3   6 C    3.923 --     2 C    1.363     7 N    1.209     4 C    1.172
     4   6 C    3.959 --     5 C    1.651     3 C    1.172    45 H    0.975
     5   6 C    3.961 --     4 C    1.651     6 C    1.174    46 H    0.972
     6   6 C    3.920 --     8 C    1.313     7 N    1.225     5 C    1.174
     7   7 N    3.382 --     6 C    1.225     3 C    1.209     1 Fe   0.668
     8   6 C    3.927 --     9 C    1.335     6 C    1.313    35 C    1.025
     9   6 C    3.916 --     8 C    1.335    12 N    1.199    10 C    1.179
    10   6 C    3.956 --    11 C    1.639     9 C    1.179    47 H    0.973
    11   6 C    3.960 --    10 C    1.639    13 C    1.188    48 H    0.973
    12   7 N    3.383 --    13 C    1.246     9 C    1.199     1 Fe   0.665
    13   6 C    3.903 --    14 C    1.250    12 N    1.246    11 C    1.188
    14   6 C    3.926 --    15 C    1.250    13 C    1.250   128 C    1.204
    15   6 C    3.903 --    14 C    1.250    34 N    1.244    16 C    1.189
    16   6 C    3.959 --    17 C    1.637    15 C    1.189    49 H    0.973
    17   6 C    3.957 --    16 C    1.637    18 C    1.180    50 H    0.973
    18   6 C    3.916 --    19 C    1.330    34 N    1.202    17 C    1.180
    19   6 C    3.928 --    18 C    1.330    29 C    1.313    20 C    1.032
    20   6 C    3.986 --    28 C    1.386    21 C    1.384    19 C    1.032
    21   6 C    3.986 --    22 C    1.464    20 C    1.384    51 H    0.972
                            27 C    0.103
    22   6 C    3.990 --    21 C    1.464    23 C    1.385    52 H    0.968
                            28 C    0.103
    23   6 C    3.982 --    27 C    1.389    22 C    1.385    24 C    1.009
    24   6 C    3.836 --    26 O    1.690    25 O    1.088    23 C    1.009
    25   8 O    2.097 --    24 C    1.088    53 H    0.838    26 O    0.129
    26   8 O    1.958 --    24 C    1.690    25 O    0.129
    27   6 C    3.991 --    28 C    1.461    23 C    1.389    54 H    0.969
                            21 C    0.103
    28   6 C    3.987 --    27 C    1.461    20 C    1.386    55 H    0.972
                            22 C    0.103
    29   6 C    3.920 --    19 C    1.313    33 N    1.224    30 C    1.174
    30   6 C    3.961 --    31 C    1.650    29 C    1.174    56 H    0.972
    31   6 C    3.959 --    30 C    1.650    32 C    1.173    57 H    0.975
    32   6 C    3.923 --     2 C    1.363    33 N    1.209    31 C    1.173
    33   7 N    3.384 --    29 C    1.224    32 C    1.209     1 Fe   0.674
    34   7 N    3.381 --    15 C    1.244    18 C    1.202     1 Fe   0.661
    35   6 C    3.986 --    43 C    1.388    36 C    1.387     8 C    1.025
    36   6 C    3.987 --    37 C    1.463    35 C    1.387    58 H    0.972
                            42 C    0.103
    37   6 C    3.990 --    36 C    1.463    38 C    1.386    59 H    0.968
                            43 C    0.103
    38   6 C    3.984 --    42 C    1.389    37 C    1.386    39 C    1.009
    39   6 C    3.836 --    41 O    1.691    40 O    1.088    38 C    1.009
    40   8 O    2.097 --    39 C    1.088    60 H    0.838    41 O    0.129
    41   8 O    1.959 --    39 C    1.691    40 O    0.129
    42   6 C    3.991 --    43 C    1.460    38 C    1.389    61 H    0.969
                            36 C    0.103
    43   6 C    3.988 --    42 C    1.460    35 C    1.388    62 H    0.972
                            37 C    0.103
    44   1 H    1.000 --     2 C    0.970
    45   1 H    0.997 --     4 C    0.975
    46   1 H    1.004 --     5 C    0.972
    47   1 H    1.004 --    10 C    0.973
    48   1 H    1.001 --    11 C    0.973
    49   1 H    1.001 --    16 C    0.973
    50   1 H    1.004 --    17 C    0.973
    51   1 H    1.004 --    21 C    0.972
    52   1 H    1.005 --    22 C    0.968
    53   1 H    0.873 --    25 O    0.838
    54   1 H    1.005 --    27 C    0.969
    55   1 H    1.004 --    28 C    0.972
    56   1 H    1.004 --    30 C    0.972
    57   1 H    0.997 --    31 C    0.975
    58   1 H    1.003 --    36 C    0.972
    59   1 H    1.005 --    37 C    0.968
    60   1 H    0.873 --    40 O    0.838
    61   1 H    1.005 --    42 C    0.969
    62   1 H    1.003 --    43 C    0.972
    63  26 Fe   3.163 --    95 N    0.674    69 N    0.668    74 N    0.665
                            96 N    0.661
    64   6 C    3.926 --    94 C    1.363    65 C    1.363   106 H    0.970
    65   6 C    3.923 --    64 C    1.363    69 N    1.209    66 C    1.172
    66   6 C    3.959 --    67 C    1.651    65 C    1.172   107 H    0.975
    67   6 C    3.961 --    66 C    1.651    68 C    1.174   108 H    0.972
    68   6 C    3.920 --    70 C    1.313    69 N    1.225    67 C    1.174
    69   7 N    3.382 --    68 C    1.225    65 C    1.209    63 Fe   0.668
    70   6 C    3.927 --    71 C    1.335    68 C    1.313    97 C    1.025
    71   6 C    3.916 --    70 C    1.335    74 N    1.199    72 C    1.179
    72   6 C    3.956 --    73 C    1.639    71 C    1.179   109 H    0.973
    73   6 C    3.960 --    72 C    1.639    75 C    1.188   110 H    0.973
    74   7 N    3.383 --    75 C    1.246    71 C    1.199    63 Fe   0.665
    75   6 C    3.903 --    76 C    1.250    74 N    1.246    73 C    1.188
    76   6 C    3.926 --    77 C    1.250    75 C    1.250   130 C    1.204
    77   6 C    3.903 --    76 C    1.250    96 N    1.244    78 C    1.189
    78   6 C    3.959 --    79 C    1.637    77 C    1.189   111 H    0.973
    79   6 C    3.957 --    78 C    1.637    80 C    1.180   112 H    0.973
    80   6 C    3.916 --    81 C    1.330    96 N    1.202    79 C    1.180
    81   6 C    3.928 --    80 C    1.330    91 C    1.313    82 C    1.031
    82   6 C    3.986 --    90 C    1.386    83 C    1.384    81 C    1.031
    83   6 C    3.986 --    84 C    1.464    82 C    1.384   113 H    0.972
                            89 C    0.103
    84   6 C    3.990 --    83 C    1.464    85 C    1.385   114 H    0.968
                            90 C    0.103
    85   6 C    3.982 --    89 C    1.389    84 C    1.385    86 C    1.009
    86   6 C    3.836 --    88 O    1.690    87 O    1.088    85 C    1.009
    87   8 O    2.097 --    86 C    1.088   115 H    0.838    88 O    0.129
    88   8 O    1.958 --    86 C    1.690    87 O    0.129
    89   6 C    3.991 --    90 C    1.461    85 C    1.389   116 H    0.969
                            83 C    0.103
    90   6 C    3.987 --    89 C    1.461    82 C    1.386   117 H    0.972
                            84 C    0.103
    91   6 C    3.920 --    81 C    1.313    95 N    1.224    92 C    1.174
    92   6 C    3.961 --    93 C    1.650    91 C    1.174   118 H    0.972
    93   6 C    3.959 --    92 C    1.650    94 C    1.173   119 H    0.975
    94   6 C    3.923 --    64 C    1.363    95 N    1.209    93 C    1.173
    95   7 N    3.384 --    91 C    1.224    94 C    1.209    63 Fe   0.674
    96   7 N    3.381 --    77 C    1.244    80 C    1.202    63 Fe   0.661
    97   6 C    3.986 --   105 C    1.388    98 C    1.387    70 C    1.025
    98   6 C    3.987 --    99 C    1.463    97 C    1.387   120 H    0.972
                           104 C    0.103
    99   6 C    3.990 --    98 C    1.463   100 C    1.386   121 H    0.968
                           105 C    0.103
   100   6 C    3.984 --   104 C    1.389    99 C    1.386   101 C    1.009
   101   6 C    3.836 --   103 O    1.690   102 O    1.088   100 C    1.009
   102   8 O    2.097 --   101 C    1.088   122 H    0.838   103 O    0.129
   103   8 O    1.959 --   101 C    1.690   102 O    0.129
   104   6 C    3.991 --   105 C    1.460   100 C    1.389   123 H    0.969
                            98 C    0.103
   105   6 C    3.988 --   104 C    1.460    97 C    1.388   124 H    0.972
                            99 C    0.103
   106   1 H    1.000 --    64 C    0.970
   107   1 H    0.997 --    66 C    0.975
   108   1 H    1.004 --    67 C    0.972
   109   1 H    1.004 --    72 C    0.973
   110   1 H    1.001 --    73 C    0.973
   111   1 H    1.001 --    78 C    0.973
   112   1 H    1.004 --    79 C    0.973
   113   1 H    1.004 --    83 C    0.972
   114   1 H    1.005 --    84 C    0.968
   115   1 H    0.873 --    87 O    0.838
   116   1 H    1.005 --    89 C    0.969
   117   1 H    1.004 --    90 C    0.972
   118   1 H    1.004 --    92 C    0.972
   119   1 H    0.997 --    93 C    0.975
   120   1 H    1.003 --    98 C    0.972
   121   1 H    1.005 --    99 C    0.968
   122   1 H    0.873 --   102 O    0.838
   123   1 H    1.005 --   104 C    0.969
   124   1 H    1.003 --   105 C    0.972
   125   6 C    3.914 --   126 C    2.341   129 C    1.352   128 C    0.186
   126   6 C    3.914 --   125 C    2.341   127 C    1.352   130 C    0.186
   127   6 C    3.922 --   128 C    2.423   126 C    1.352
   128   6 C    3.880 --   127 C    2.423    14 C    1.204   125 C    0.186
   129   6 C    3.922 --   130 C    2.423   125 C    1.352
   130   6 C    3.879 --   129 C    2.423    76 C    1.204   126 C    0.186
 ---------------------------------------------------------------------------

           -------------------------------------------------
          | TOTAL ENERGY             -245.968805867357 Eh   |
          | GRADIENT NORM               0.000727508491 Eh/α |
          | HOMO-LUMO GAP               0.094883926423 eV   |
           -------------------------------------------------

 * finished run on 2022/07/29 at 22:06:08.380
