   * xtb version 6.5.1 (b24c23e) compiled by 'conda@728c89f4b128' on 2022-07-12
          program call               : xtb Fe_Ph_C4_2.xyz --gfn 1 --opt -T 48

   ID    Z sym.   atoms
    1   26 Fe     1, 57
    2    6 C      2-6, 8-11, 13-29, 32-37, 58-62, 64-67, 69-85, 88-93, 113-116
    3    7 N      7, 12, 30, 31, 63, 68, 86, 87
    4    1 H      38-56, 94-112
########################################################################
[WARNING] Please study the warnings concerning your input carefully
-1- prog_main_parseArguments: Unknown option '-T' provided
########################################################################

          :  Hamiltonian                  GFN1-xTB          :
 * total energy  :  -195.4187348 Eh     change       -0.1725624E-08 Eh
 * total energy  :  -195.5665653 Eh     change       -0.1478305E+00 Eh
 * total energy  :  -195.6079829 Eh     change       -0.4141763E-01 Eh
 * total energy  :  -195.6315482 Eh     change       -0.2356528E-01 Eh
 * total energy  :  -195.6405471 Eh     change       -0.8998929E-02 Eh
 * total energy  :  -195.6469715 Eh     change       -0.6424417E-02 Eh
 * total energy  :  -195.6494107 Eh     change       -0.2439166E-02 Eh
 * total energy  :  -195.6507921 Eh     change       -0.1381463E-02 Eh
 * total energy  :  -195.6509188 Eh     change       -0.1266567E-03 Eh
 * total energy  :  -195.6521878 Eh     change       -0.1269013E-02 Eh
 * total energy  :  -195.6542275 Eh     change       -0.2248400E-04 Eh
 * total energy  :  -195.6542567 Eh     change       -0.2917690E-04 Eh
 * total energy  :  -195.6542783 Eh     change       -0.2164490E-04 Eh
 * total energy  :  -195.6542966 Eh     change       -0.1822639E-04 Eh
 * total energy  :  -195.6543243 Eh     change       -0.2777674E-04 Eh
 * total energy  :  -195.6543334 Eh     change       -0.9008402E-05 Eh
 * total energy  :  -195.6543451 Eh     change       -0.1173560E-04 Eh
 * total energy  :  -195.6543519 Eh     change       -0.6826864E-05 Eh
 * total energy  :  -195.6543567 Eh     change       -0.4815070E-05 Eh
   *** GEOMETRY OPTIMIZATION CONVERGED AFTER 32 ITERATIONS ***

 final structure:
================
116
 xtb: 6.5.1 (b24c23e)
Fe          14.05929219620279       -0.04024689661245       -0.05591691852847
C           10.66960742849571       -0.06919341399454       -0.03351769120419
C           11.32407834432467       -1.26566845349280       -0.24317133429348
C           10.65018346394241       -2.51004696307600       -0.46058876343452
C           11.60710003260381       -3.46670472481212       -0.50392320046044
C           12.86579114370004       -2.80343028334675       -0.32088679549576
N           12.67965649994154       -1.45488809429550       -0.17867282404170
C           14.08162596490307       -3.46641575077470       -0.19400280906173
C           15.28673978817613       -2.80449827071858       -0.00892273156850
C           16.55318432872579       -3.46752988473762        0.08613943143106
C           17.49999058987564       -2.49927735581163        0.12123000749411
N           15.46155301872109       -1.44044016672223       -0.00528323639953
C           16.81049466916726       -1.24965968449129        0.04472356107961
C           17.46876614178427       -0.01601436114335       -0.03538868528407
C           16.78850719773256        1.20673333435644       -0.09811439195184
C           17.45292641777134        2.46628824138065       -0.21793092862145
C           16.49223599932121        3.41958847485989       -0.14990539579643
C           15.24404678733595        2.73726529239144        0.01903758953432
C           14.02768417508999        3.38038865906375        0.20343550364000
C           14.01355614910377        4.85950926096146        0.29478127586690
C           13.31253374436720        5.61971941249117       -0.64243120766382
C           13.30253944913457        7.00363154599254       -0.55560384506609
C           13.98583041978051        7.64395542273611        0.46931823941943
C           14.68346309398570        6.89436503860575        1.40671415044462
C           14.70125699301862        5.51049543769488        1.31987441920756
C           12.82027200794662        2.69609715334708        0.29702512144685
C           11.55340637681034        3.33135912414522        0.51948526218457
C           10.61089654217245        2.36241132551166        0.44264134828612
C           11.30386409381783        1.13584801941726        0.18786016461604
N           12.65741765152075        1.34594789141105        0.14234767978728
N           15.44061190707199        1.37685135642399        0.01510850070354
C           14.09033116809495       -4.94879129686085       -0.26084603340866
C           13.76392966666440       -5.60574571671322       -1.44729176871339
C           13.77530022932474       -6.99141791245039       -1.50522273161203
C           14.10617189446722       -7.73471422191360       -0.38036566642658
C           14.42940795233477       -7.08700369646525        0.80418737650296
C           14.42502786279536       -5.70147237659652        0.86492636787595
H            9.58536649490503       -0.07766457627862       -0.03573856073217
H            9.58120569506165       -2.61889470431826       -0.55303538853450
H           11.48361305500286       -4.52959995971386       -0.63377808656789
H           16.69057463251771       -4.53636639891072        0.10355329686779
H           18.57100220896299       -2.60662933886001        0.18214904102222
H           18.51712393584159        2.58935686096138       -0.33937459653963
H           16.60751194651320        4.48909747804443       -0.21674367230769
H           12.78860915821634        5.12167228588622       -1.45061952612797
H           12.75897220898473        7.58473804242387       -1.29227980537726
H           13.97477183268724        8.72586166776149        0.53723171146261
H           15.21647326142905        7.38963997270947        2.21071529779710
H           15.23674018182633        4.92565363972286        2.05942300841309
H           11.41571259593315        4.38303051067150        0.71151774484651
H            9.54102800943740        2.45039096152030        0.54647139325122
H           13.51579103494697       -5.02581940014351       -2.32922403021801
H           13.52518506678355       -7.49303307189555       -2.43348738937811
H           14.11226483803691       -8.81779967550903       -0.42687961896505
H           14.68597582162428       -7.66324808256503        1.68619528812453
H           14.66771443133691       -5.19586432978861        1.79290972164092
Fe          27.47525185154142        0.04330718165931       -0.05437505754449
C           30.86486182047870        0.07091507200179       -0.03055704293047
C           30.21047446311581        1.27527464560676       -0.18909036636567
C           30.88438098597564        2.52778040494311       -0.35333597899213
C           29.92756482268298        3.48552009939572       -0.35485610948129
C           28.66890128361904        2.81512036851411       -0.19968073422667
N           28.85494480508638        1.46170462309595       -0.11585018648797
C           27.45324387007563        3.47210678725944       -0.04324895383851
C           26.24818886117337        2.80286758228684        0.11369814288429
C           24.98186441951276        3.46119515056994        0.23844654165005
C           24.03497058237516        2.49241925926396        0.23165524419123
N           26.07323579623316        1.43997697905726        0.05776912441678
C           24.72427024512008        1.24729522570131        0.09995939501513
C           24.06590873084344        0.01846135652082       -0.03466788565500
C           24.74599080370562       -1.20037681390128       -0.15196885160209
C           24.08173005145255       -2.45333619674698       -0.32831321924626
C           25.04240910562823       -3.40873914246025       -0.30202928954324
C           26.29042285729298       -2.73463455189165       -0.10173978141657
C           27.50655301336229       -3.38523162985539        0.05616727437432
C           27.52074013737715       -4.86691721659365        0.08319299097706
C           28.22360120996536       -5.58560224836816       -0.88490904831036
C           28.23405583883173       -6.97196869234062       -0.85805871308888
C           27.54937889794516       -7.65628922445678        0.13707189093098
C           26.84983619728782       -6.94822970403853        1.10483951532892
C           26.83156815905120       -5.56189954264206        1.07795650600250
C           28.71382670898331       -2.70567902249070        0.18099661954403
C           29.98046705470779       -3.34997261687171        0.37724512166681
C           30.92312583838565       -2.37874146999735        0.34236495404905
C           30.23046191992926       -1.14236538738559        0.13953414628399
N           28.87691130206990       -1.35017218411598        0.08436762413302
N           26.09382599923215       -1.37539295589425       -0.04558724686291
C           27.44476789149727        4.95598903927456       -0.04572700013207
C           27.77014159982422        5.66363904436924       -1.20294080409132
C           27.75916001115952        7.05051970335128       -1.20077757605196
C           27.42971241295475        7.74446982754831       -0.04441894729466
C           27.10752719737186        7.04613359374066        1.11130120663901
C           27.11150909926475        5.65926390225550        1.11195415983351
H           31.94910329583700        0.07936456870929       -0.03252326026469
H           31.95331261157543        2.64039135982505       -0.44170854813106
H           30.05113945773391        4.55300121694547       -0.43892824964983
H           24.84463402184880        4.52826195136814        0.30270998873870
H           22.96398509084600        2.59698567066611        0.29777751287753
H           23.01764698821837       -2.57093460175426       -0.45602619392345
H           24.92731296358802       -4.47421878376912       -0.41656943817742
H           28.74866237784629       -5.05280704707587       -1.66986349424656
H           28.77911268672486       -7.52044144020580       -1.61827681467565
H           27.56086575936489       -8.74011731591490        0.15816300333786
H           26.31573644283165       -7.47804502479754        1.88576493128547
H           26.29462051612411       -5.00981148722193        1.84123728104761
H           30.11792910825439       -4.40887441145168        0.52448417488904
H           31.99291070054101       -2.47120626969028        0.44311239116837
H           28.01719127624320        5.12238051374585       -2.10941255415413
H           28.00845501723404        7.59180193226186       -2.10670468644794
H           27.42390937367893        8.82855485837925       -0.04395898819424
H           26.85212076587260        7.58369399595274        2.01773083908465
H           26.86967069332263        5.11400842689268        2.01743269175224
C           20.09394812637068       -0.00243515347592       -0.05461651481582
C           18.86992154912811       -0.00532327459453       -0.05076766622658
C           21.44073726689840        0.00426241821223       -0.05426791983980
C           22.66473726453826        0.00886930312510       -0.05040401935799

          :  Hamiltonian                  GFN1-xTB          :
         :: total energy            -195.654356728371 Eh    ::
         :: gradient norm              0.000533916386 Eh/a0 ::
         :: HOMO-LUMO gap              0.094669296442 eV    ::
         :: SCC energy              -198.882709268221 Eh    ::
         :: repulsion energy           3.332987313293 Eh    ::

    * Orbital Energies and Occupations

         #    Occupation            Energy/Eh            Energy/eV
      -------------------------------------------------------------
         1        2.0000           -0.7692689             -20.9329
       ...           ...                  ...                  ...
       171        2.0000           -0.4272143             -11.6251
       172        2.0000           -0.4266550             -11.6099
       173        2.0000           -0.4265238             -11.6063
       174        2.0000           -0.3974567             -10.8153
       175        2.0000           -0.3969174             -10.8007
       176        2.0000           -0.3969137             -10.8006
       177        1.9917           -0.3886853             -10.5767
       178        1.9914           -0.3886594             -10.5760
       179        1.9476           -0.3869176             -10.5286
       180        1.9457           -0.3868818             -10.5276
       181        1.9423           -0.3868225             -10.5260
       182        1.9422           -0.3868210             -10.5259
       183        1.7409           -0.3852922             -10.4843 (HOMO)
       184        0.2944           -0.3818131             -10.3897 (LUMO)
       185        0.2038           -0.3814146             -10.3788
       186                         -0.3393434              -9.2340
       187                         -0.3276400              -8.9155
       188                         -0.3276341              -8.9154
       189                         -0.3247672              -8.8374
       190                         -0.3009875              -8.1903
       191                         -0.3009591              -8.1895
       192                         -0.2985526              -8.1240
       193                         -0.2909459              -7.9170
       194                         -0.2660886              -7.2406
       ...                                ...                  ...
       398                          1.5093300              41.0710
      -------------------------------------------------------------
                  HL-Gap            0.0034790 Eh            0.0947 eV

Wiberg/Mayer (AO) data.
largest (>0.10) Wiberg bond orders for each atom

     #   Z sym  total        # sym  WBO       # sym  WBO       # sym  WBO
 ---------------------------------------------------------------------------
     1  26 Fe   3.170 --    30 N    0.673     7 N    0.667    12 N    0.665
                            31 N    0.660
     2   6 C    3.925 --    29 C    1.363     3 C    1.362    38 H    0.970
     3   6 C    3.925 --     2 C    1.362     7 N    1.210     4 C    1.173
     4   6 C    3.959 --     5 C    1.649     3 C    1.173    39 H    0.975
     5   6 C    3.962 --     4 C    1.649     6 C    1.176    40 H    0.973
     6   6 C    3.921 --     8 C    1.314     7 N    1.225     5 C    1.176
     7   7 N    3.380 --     6 C    1.225     3 C    1.210     1 Fe   0.667
     8   6 C    3.927 --     9 C    1.336     6 C    1.314    32 C    1.022
     9   6 C    3.917 --     8 C    1.336    12 N    1.199    10 C    1.180
    10   6 C    3.957 --    11 C    1.638     9 C    1.180    41 H    0.973
    11   6 C    3.960 --    10 C    1.638    13 C    1.189    42 H    0.973
    12   7 N    3.381 --    13 C    1.247     9 C    1.199     1 Fe   0.665
    13   6 C    3.905 --    14 C    1.250    12 N    1.247    11 C    1.189
    14   6 C    3.923 --    13 C    1.250    15 C    1.249   114 C    1.203
    15   6 C    3.905 --    14 C    1.249    31 N    1.245    16 C    1.190
    16   6 C    3.960 --    17 C    1.636    15 C    1.190    43 H    0.973
    17   6 C    3.957 --    16 C    1.636    18 C    1.181    44 H    0.973
    18   6 C    3.918 --    19 C    1.331    31 N    1.201    17 C    1.181
    19   6 C    3.927 --    18 C    1.331    26 C    1.313    20 C    1.029
    20   6 C    3.988 --    25 C    1.394    21 C    1.394    19 C    1.029
                            23 C    0.108
    21   6 C    3.987 --    22 C    1.448    20 C    1.394    45 H    0.973
                            24 C    0.109
    22   6 C    3.995 --    21 C    1.448    23 C    1.437    46 H    0.973
                            25 C    0.109
    23   6 C    3.989 --    24 C    1.438    22 C    1.437    47 H    0.974
                            20 C    0.108
    24   6 C    3.995 --    25 C    1.447    23 C    1.438    48 H    0.973
                            21 C    0.109
    25   6 C    3.987 --    24 C    1.447    20 C    1.394    49 H    0.973
                            22 C    0.109
    26   6 C    3.921 --    19 C    1.313    30 N    1.225    27 C    1.176
    27   6 C    3.962 --    28 C    1.648    26 C    1.176    50 H    0.973
    28   6 C    3.959 --    27 C    1.648    29 C    1.174    51 H    0.975
    29   6 C    3.925 --     2 C    1.363    30 N    1.209    28 C    1.174
    30   7 N    3.382 --    26 C    1.225    29 C    1.209     1 Fe   0.673
    31   7 N    3.380 --    15 C    1.245    18 C    1.201     1 Fe   0.660
    32   6 C    3.988 --    33 C    1.397    37 C    1.397     8 C    1.022
                            35 C    0.109
    33   6 C    3.988 --    34 C    1.446    32 C    1.397    52 H    0.973
                            36 C    0.110
    34   6 C    3.995 --    33 C    1.446    35 C    1.438    53 H    0.973
                            37 C    0.110
    35   6 C    3.991 --    36 C    1.438    34 C    1.438    54 H    0.974
                            32 C    0.109
    36   6 C    3.995 --    37 C    1.446    35 C    1.438    55 H    0.973
                            33 C    0.110
    37   6 C    3.988 --    36 C    1.446    32 C    1.397    56 H    0.973
                            34 C    0.110
    38   1 H    1.001 --     2 C    0.970
    39   1 H    0.998 --     4 C    0.975
    40   1 H    1.005 --     5 C    0.973
    41   1 H    1.005 --    10 C    0.973
    42   1 H    1.002 --    11 C    0.973
    43   1 H    1.002 --    16 C    0.973
    44   1 H    1.004 --    17 C    0.973
    45   1 H    1.005 --    21 C    0.973
    46   1 H    1.002 --    22 C    0.973
    47   1 H    1.003 --    23 C    0.974
    48   1 H    1.002 --    24 C    0.973
    49   1 H    1.005 --    25 C    0.973
    50   1 H    1.005 --    27 C    0.973
    51   1 H    0.998 --    28 C    0.975
    52   1 H    1.004 --    33 C    0.973
    53   1 H    1.002 --    34 C    0.973
    54   1 H    1.003 --    35 C    0.974
    55   1 H    1.002 --    36 C    0.973
    56   1 H    1.004 --    37 C    0.973
    57  26 Fe   3.171 --    86 N    0.673    63 N    0.667    68 N    0.665
                            87 N    0.660
    58   6 C    3.925 --    85 C    1.363    59 C    1.362    94 H    0.970
    59   6 C    3.925 --    58 C    1.362    63 N    1.210    60 C    1.173
    60   6 C    3.959 --    61 C    1.649    59 C    1.173    95 H    0.975
    61   6 C    3.962 --    60 C    1.649    62 C    1.176    96 H    0.973
    62   6 C    3.921 --    64 C    1.314    63 N    1.225    61 C    1.176
    63   7 N    3.380 --    62 C    1.225    59 C    1.210    57 Fe   0.667
    64   6 C    3.927 --    65 C    1.336    62 C    1.314    88 C    1.021
    65   6 C    3.917 --    64 C    1.336    68 N    1.199    66 C    1.180
    66   6 C    3.957 --    67 C    1.638    65 C    1.180    97 H    0.973
    67   6 C    3.960 --    66 C    1.638    69 C    1.189    98 H    0.973
    68   7 N    3.381 --    69 C    1.247    65 C    1.199    57 Fe   0.665
    69   6 C    3.905 --    70 C    1.250    68 N    1.247    67 C    1.189
    70   6 C    3.923 --    69 C    1.250    71 C    1.249   116 C    1.203
    71   6 C    3.905 --    70 C    1.249    87 N    1.245    72 C    1.190
    72   6 C    3.960 --    73 C    1.636    71 C    1.190    99 H    0.973
    73   6 C    3.957 --    72 C    1.636    74 C    1.181   100 H    0.973
    74   6 C    3.918 --    75 C    1.331    87 N    1.201    73 C    1.181
    75   6 C    3.927 --    74 C    1.331    82 C    1.313    76 C    1.029
    76   6 C    3.988 --    81 C    1.394    77 C    1.394    75 C    1.029
                            79 C    0.108
    77   6 C    3.987 --    78 C    1.448    76 C    1.394   101 H    0.973
                            80 C    0.109
    78   6 C    3.995 --    77 C    1.448    79 C    1.437   102 H    0.973
                            81 C    0.109
    79   6 C    3.989 --    80 C    1.438    78 C    1.437   103 H    0.974
                            76 C    0.108
    80   6 C    3.995 --    81 C    1.447    79 C    1.438   104 H    0.973
                            77 C    0.109
    81   6 C    3.987 --    80 C    1.447    76 C    1.394   105 H    0.973
                            78 C    0.109
    82   6 C    3.921 --    75 C    1.313    86 N    1.225    83 C    1.176
    83   6 C    3.962 --    84 C    1.648    82 C    1.176   106 H    0.973
    84   6 C    3.959 --    83 C    1.648    85 C    1.174   107 H    0.975
    85   6 C    3.925 --    58 C    1.363    86 N    1.209    84 C    1.174
    86   7 N    3.382 --    82 C    1.225    85 C    1.209    57 Fe   0.673
    87   7 N    3.380 --    71 C    1.245    74 C    1.201    57 Fe   0.660
    88   6 C    3.988 --    89 C    1.397    93 C    1.397    64 C    1.021
                            91 C    0.109
    89   6 C    3.988 --    90 C    1.446    88 C    1.397   108 H    0.973
                            92 C    0.110
    90   6 C    3.995 --    89 C    1.446    91 C    1.438   109 H    0.973
                            93 C    0.110
    91   6 C    3.991 --    92 C    1.438    90 C    1.438   110 H    0.974
                            88 C    0.109
    92   6 C    3.995 --    93 C    1.446    91 C    1.438   111 H    0.973
                            89 C    0.110
    93   6 C    3.988 --    92 C    1.446    88 C    1.397   112 H    0.973
                            90 C    0.110
    94   1 H    1.001 --    58 C    0.970
    95   1 H    0.998 --    60 C    0.975
    96   1 H    1.005 --    61 C    0.973
    97   1 H    1.005 --    66 C    0.973
    98   1 H    1.002 --    67 C    0.973
    99   1 H    1.002 --    72 C    0.973
   100   1 H    1.004 --    73 C    0.973
   101   1 H    1.005 --    77 C    0.973
   102   1 H    1.002 --    78 C    0.973
   103   1 H    1.003 --    79 C    0.974
   104   1 H    1.002 --    80 C    0.973
   105   1 H    1.005 --    81 C    0.973
   106   1 H    1.005 --    83 C    0.973
   107   1 H    0.998 --    84 C    0.975
   108   1 H    1.004 --    89 C    0.973
   109   1 H    1.002 --    90 C    0.973
   110   1 H    1.003 --    91 C    0.974
   111   1 H    1.002 --    92 C    0.973
   112   1 H    1.004 --    93 C    0.973
   113   6 C    3.922 --   114 C    2.449   115 C    1.325
   114   6 C    3.916 --   113 C    2.449    14 C    1.203   116 C    0.195
   115   6 C    3.922 --   116 C    2.449   113 C    1.325
   116   6 C    3.916 --   115 C    2.449    70 C    1.203   114 C    0.195
 ---------------------------------------------------------------------------

           -------------------------------------------------
          | TOTAL ENERGY             -195.654356728371 Eh   |
          | GRADIENT NORM               0.000533916386 Eh/α |
          | HOMO-LUMO GAP               0.094669296442 eV   |
           -------------------------------------------------

 * finished run on 2022/07/29 at 19:38:22.033
