   * xtb version 6.5.1 (b24c23e) compiled by 'conda@728c89f4b128' on 2022-07-12
          program call               : xtb Fe_p-CP_C8_2.xyz --gfn 1 --opt -T 48

   ID    Z sym.   atoms
    1   26 Fe     1, 63
    2    6 C      2-6, 8-11, 13-24, 27-32, 35-39, 42, 43, 64-68, 70-73,
                  75-86, 89-94, 97-101, 104, 105, 125-132
    3    7 N      7, 12, 33, 34, 69, 74, 95, 96
    4    8 O      25, 26, 40, 41, 87, 88, 102, 103
    5    1 H      44-62, 106-124
########################################################################
[WARNING] Please study the warnings concerning your input carefully
-1- prog_main_parseArguments: Unknown option '-T' provided
########################################################################

          :  Hamiltonian                  GFN1-xTB          :
 * total energy  :  -249.7577827 Eh     change        0.2233716E-07 Eh
 * total energy  :  -250.0044828 Eh     change       -0.2467002E+00 Eh
 * total energy  :  -250.0823164 Eh     change       -0.7783357E-01 Eh
 * total energy  :  -250.1142956 Eh     change       -0.3197918E-01 Eh
 * total energy  :  -250.1277694 Eh     change       -0.1347381E-01 Eh
 * total energy  :  -250.1339342 Eh     change       -0.6164869E-02 Eh
 * total energy  :  -250.1368162 Eh     change       -0.2881998E-02 Eh
 * total energy  :  -250.1374351 Eh     change       -0.6189002E-03 Eh
 * total energy  :  -250.1393098 Eh     change       -0.1874676E-02 Eh
 * total energy  :  -250.1399859 Eh     change       -0.6760749E-03 Eh
 * total energy  :  -250.1425494 Eh     change       -0.9509748E-05 Eh
 * total energy  :  -250.1425583 Eh     change       -0.8832907E-05 Eh
 * total energy  :  -250.1425697 Eh     change       -0.1141756E-04 Eh
 * total energy  :  -250.1425789 Eh     change       -0.9184170E-05 Eh
 * total energy  :  -250.1425868 Eh     change       -0.7894918E-05 Eh
 * total energy  :  -250.1425955 Eh     change       -0.8774407E-05 Eh
 * total energy  :  -250.1426046 Eh     change       -0.9050505E-05 Eh
 * total energy  :  -250.1426119 Eh     change       -0.7361941E-05 Eh
 * total energy  :  -250.1426139 Eh     change       -0.1927867E-05 Eh
   *** GEOMETRY OPTIMIZATION CONVERGED AFTER 44 ITERATIONS ***

 final structure:
================
132
 xtb: 6.5.1 (b24c23e)
Fe          15.17822588887774       -0.11936826490446        0.01624617858551
C           11.79039428714034       -0.19615945964645        0.04448312604536
C           12.44832129587624       -0.35390629656429        1.24660034853827
C           11.77625567475198       -0.54661810432634        2.49618737621447
C           12.73114125730340       -0.53706339226487        3.45536868184571
C           13.98770359928536       -0.35296079719377        2.78799965449980
N           13.80172308159267       -0.25293533804572        1.43586598217358
C           15.20338626989589       -0.20466228895276        3.44672995850710
C           16.40835383357888       -0.03453562207304        2.78053859304848
C           17.67658063198910        0.05762643795277        3.44102513043526
C           18.62151485762879        0.07926693890182        2.47097094213171
N           16.58037043221760       -0.04546786613375        1.41637001226373
C           17.92897977170609        0.00074021057276        1.22299674006631
C           18.58609542629642       -0.07023939115694       -0.01171241727891
C           17.90712813937271       -0.12265117681422       -1.23515678257509
C           18.57491074755007       -0.21122030683612       -2.49564583967677
C           17.61443123433951       -0.14534887307681       -3.44882942674176
C           16.36248859732138       -0.01171248733308       -2.76511424864140
C           15.14047115070857        0.13600292970430       -3.40717226625000
C           15.12311718403160        0.22800701967052       -4.88517690187874
C           14.44927641272011       -0.73198250773120       -5.64510115642551
C           14.43312151560545       -0.64428757383198       -7.02480834882837
C           15.08707150791172        0.40661416092349       -7.67071108323706
C           15.03702300914120        0.45983982102474       -9.15169044161521
O           15.70612913059179        1.49841389049056       -9.67447191851430
O           14.45806908293458       -0.34019675392827       -9.84161033590999
C           15.76129828869074        1.36747732337805       -6.91663595546725
C           15.77994383671351        1.27547277486476       -5.53582204945568
C           13.92985856753937        0.18306723783680       -2.72401904045663
C           12.65563656388205        0.35501361135677       -3.36069445840813
C           11.71653067918691        0.24468277543268       -2.39216198362372
C           12.41825294546277        0.02446106692516       -1.16377937277763
N           13.77259768330756        0.02736421419197       -1.37316742186769
N           16.55752111016736       -0.02900220138050       -1.40492438382568
C           15.21420641291582       -0.23985952671428        4.92881311981724
C           14.87215546459192       -1.40904315890441        5.61234007583307
C           14.88316321113712       -1.43602294965450        6.99492630839649
C           15.23222725128384       -0.29404482364751        7.71820516165623
C           15.22602965617606       -0.37164912997873        9.19898875381829
O           15.58554766597968        0.77368076744221        9.79786595199603
O           14.92848608389487       -1.35557756772404        9.82718477447860
C           15.57388559359743        0.87588457279796        7.03929888235295
C           15.56683083738647        0.89957863567875        5.65546700754209
H           10.70686785399290       -0.23298324994222        0.05211862188813
H           10.70935482487864       -0.65824068791555        2.60623463523927
H           12.60687048064919       -0.63342046797614        4.52165807797374
H           17.81658700768982        0.08067245500065        4.50936710963800
H           19.69300618861284        0.13383199730888        2.57599339556176
H           19.64121177894201       -0.31091175264660       -2.61920450037822
H           17.73225481038675       -0.19332713107046       -4.51904265422934
H           13.95208946375326       -1.55597944856096       -5.14613424449393
H           13.91534061701211       -1.38789638163647       -7.62066729515085
H           15.62487497113655        1.46133418674984      -10.64136363772864
H           16.26815680132036        2.18603948566088       -7.41381491548086
H           16.29320856559562        2.02910681468318       -4.94933660674357
H           12.51088898739940        0.53899199014823       -4.41279671809071
H           10.64366811378507        0.30732373629417       -2.48094401105116
H           14.61227755920224       -2.29976131165276        5.05184884826375
H           14.62311590235741       -2.34097971062506        7.53303843838790
H           15.55487694647778        0.64093343433741       10.75925983851602
H           15.84316942535725        1.76507025208239        7.59692951086425
H           15.82229629679972        1.81107101632293        5.12701308400308
Fe          33.72625504713852       -0.11618124093318       -0.03249463737317
C           37.11417178655709       -0.18990507738689       -0.06719704350972
C           36.45695440458081       -0.20674146327144       -1.27989506564783
C           37.13001534298892       -0.25276586309166       -2.54288181446709
C           36.17584816289428       -0.13191592016819       -3.49518198200198
C           34.91869444882126       -0.02711408743261       -2.81192609526456
N           35.10367755504428       -0.08467416011989       -1.45716175957468
C           33.70328859094544        0.19503799569503       -3.45009783481148
C           32.49753856592079        0.28525713195766       -2.76975695088242
C           31.22949544673649        0.45051573016992       -3.41624505077165
C           30.28396999874532        0.35917970832378       -2.45079996987782
N           32.32472642914343        0.11745207334077       -1.41601572732231
C           30.97595291495199        0.13927916100438       -1.21955419733524
C           30.31829870424056       -0.07202686843401       -0.00131401845241
C           30.99663751211125       -0.26255681307569        1.20872446591751
C           30.32793857376088       -0.49325174953718        2.45060091495986
C           31.28780613925848       -0.53703800795007        3.40560877855422
C           32.54027654573884       -0.32754886774356        2.74223204502698
C           33.76194909676108       -0.25641444807060        3.39770456242196
C           33.77855715388910       -0.33615383756808        4.87642487879963
C           34.45060634213966       -1.37893896655329        5.51991264058147
C           34.46732051177359       -1.45139382978996        6.90048183488187
C           33.81556833294687       -0.48097765693268        7.66385646576325
C           33.86773291405491       -0.59849181063899        9.14104347477918
O           33.20062758058445        0.37371870183535        9.78088146654107
O           34.44726214694957       -1.47280888116663        9.73345193216465
C           33.14240481990844        0.56151589283530        7.02625973018364
C           33.12328568137349        0.62988942985603        5.64407055692054
C           34.97315721429303       -0.13249670036065        2.72530324241654
C           36.24705119377715       -0.03661100352435        3.37840946373045
C           37.18674610466404       -0.03486094649178        2.40419062567660
C           36.48570336544135       -0.11076827365566        1.15814986610819
N           35.13120501540848       -0.13111648631419        1.36564660235055
N           32.34616075364732       -0.18937164917126        1.38880050100681
C           33.69346618208341        0.33127155226132       -4.92634557161368
C           34.03800414757745       -0.75052429198624       -5.74011953565329
C           34.02682785349148       -0.61793403982065       -7.11660007585736
C           33.67520729486743        0.59906517140720       -7.70342065444323
C           33.68021796483621        0.69239754056894       -9.18329556624386
O           33.31767719473798        1.89815853707057       -9.64622730468249
O           33.97806958267869       -0.21243152463078       -9.92071452425278
C           33.33165411537145        1.68232137379963       -6.89415794787742
C           33.33888587637649        1.54631023915639       -5.51682141873681
H           38.19769417886923       -0.22594169553397       -0.07850190867414
H           38.19702986095463       -0.35067715141677       -2.66429704302621
H           36.30099343031465       -0.10360315034594       -4.56533717225996
H           31.09003425071888        0.59574395419646       -4.47499579306720
H           29.21241279890452        0.42363949563930       -2.54952387235074
H           29.26151296037467       -0.60545586890092        2.56156975349028
H           31.16915567580748       -0.70628509985670        4.46334370842749
H           34.94620918119116       -2.14052409783671        4.92873079239568
H           34.98400336721335       -2.25976996391624        7.40610873333397
H           33.28401151316564        0.22600153247711       10.73696350793496
H           32.63688868689216        1.31781538160044        7.61498754968350
H           32.61108509823077        1.44710711453359        5.14891593195468
H           36.39116538386358        0.02424227741800        4.44482774833285
H           38.25959243573442        0.01620216477617        2.50028714412412
H           34.29970430031053       -1.69943445363860       -5.28608647756027
H           34.28865626083917       -1.45426796659364       -7.75545392042843
H           33.34678231370282        1.87660374545304      -10.61655219125342
H           33.06071233770279        2.62939455248298       -7.34555129865651
H           33.08185361071315        2.39032684681140       -4.88681967332521
C           19.98652169074353       -0.08173010820111       -0.02083163423587
C           21.21291249126019       -0.09132985604814       -0.01639788921138
C           22.55221918505293       -0.09627432783574       -0.01143830540967
C           23.78495318557969       -0.09818620907259        0.00156826324650
C           25.11944651787089       -0.09792496262137        0.00461226143903
C           26.35223255711685       -0.09653258718881        0.01312264922268
C           27.69153827589923       -0.09146451848455        0.01543202076561
C           28.91789337399784       -0.08543057822873        0.00736190927065

          :  Hamiltonian                  GFN1-xTB          :
         :: total energy            -250.142613879174 Eh    ::
         :: gradient norm              0.000786492704 Eh/a0 ::
         :: HOMO-LUMO gap              0.092736738930 eV    ::
         :: SCC energy              -253.905346382953 Eh    ::
         :: repulsion energy           3.878353298129 Eh    ::

    * Orbital Energies and Occupations

         #    Occupation            Energy/Eh            Energy/eV
      -------------------------------------------------------------
         1        2.0000           -0.8339232             -22.6922
       ...           ...                  ...                  ...
       211        2.0000           -0.4370320             -11.8922
       212        2.0000           -0.4290205             -11.6742
       213        2.0000           -0.4205251             -11.4431
       214        2.0000           -0.4069351             -11.0733
       215        2.0000           -0.4069339             -11.0732
       216        2.0000           -0.4051783             -11.0255
       217        1.9921           -0.3995126             -10.8713
       218        1.9916           -0.3994436             -10.8694
       219        1.9445           -0.3976331             -10.8201
       220        1.9434           -0.3976130             -10.8196
       221        1.9369           -0.3975067             -10.8167
       222        1.9367           -0.3975043             -10.8166
       223        1.7261           -0.3960025             -10.7758 (HOMO)
       224        0.2970           -0.3925945             -10.6830 (LUMO)
       225        0.2316           -0.3923222             -10.6756
       226                         -0.3500601              -9.5256
       227                         -0.3395692              -9.2401
       228                         -0.3395653              -9.2400
       229                         -0.3388085              -9.2194
       230                         -0.3176297              -8.6431
       231                         -0.3159601              -8.5977
       232                         -0.3143598              -8.5542
       233                         -0.3118909              -8.4870
       234                         -0.3118263              -8.4852
       ...                                ...                  ...
       462                          1.5900462              43.2674
      -------------------------------------------------------------
                  HL-Gap            0.0034080 Eh            0.0927 eV

Wiberg/Mayer (AO) data.
largest (>0.10) Wiberg bond orders for each atom

     #   Z sym  total        # sym  WBO       # sym  WBO       # sym  WBO
 ---------------------------------------------------------------------------
     1  26 Fe   3.156 --    33 N    0.673     7 N    0.668    12 N    0.665
                            34 N    0.660
     2   6 C    3.925 --    32 C    1.363     3 C    1.363    44 H    0.970
     3   6 C    3.923 --     2 C    1.363     7 N    1.209     4 C    1.172
     4   6 C    3.959 --     5 C    1.651     3 C    1.172    45 H    0.975
     5   6 C    3.961 --     4 C    1.651     6 C    1.174    46 H    0.972
     6   6 C    3.920 --     8 C    1.313     7 N    1.225     5 C    1.174
     7   7 N    3.382 --     6 C    1.225     3 C    1.209     1 Fe   0.668
     8   6 C    3.927 --     9 C    1.335     6 C    1.313    35 C    1.025
     9   6 C    3.916 --     8 C    1.335    12 N    1.199    10 C    1.179
    10   6 C    3.956 --    11 C    1.639     9 C    1.179    47 H    0.973
    11   6 C    3.960 --    10 C    1.639    13 C    1.188    48 H    0.973
    12   7 N    3.383 --    13 C    1.246     9 C    1.199     1 Fe   0.665
    13   6 C    3.902 --    14 C    1.249    12 N    1.246    11 C    1.188
    14   6 C    3.926 --    15 C    1.250    13 C    1.249   125 C    1.205
    15   6 C    3.902 --    14 C    1.250    34 N    1.244    16 C    1.188
    16   6 C    3.959 --    17 C    1.637    15 C    1.188    49 H    0.973
    17   6 C    3.957 --    16 C    1.637    18 C    1.180    50 H    0.973
    18   6 C    3.916 --    19 C    1.330    34 N    1.202    17 C    1.180
    19   6 C    3.928 --    18 C    1.330    29 C    1.313    20 C    1.031
    20   6 C    3.986 --    28 C    1.386    21 C    1.384    19 C    1.031
    21   6 C    3.986 --    22 C    1.464    20 C    1.384    51 H    0.972
                            27 C    0.103
    22   6 C    3.990 --    21 C    1.464    23 C    1.385    52 H    0.968
                            28 C    0.103
    23   6 C    3.982 --    27 C    1.389    22 C    1.385    24 C    1.009
    24   6 C    3.836 --    26 O    1.690    25 O    1.088    23 C    1.009
    25   8 O    2.097 --    24 C    1.088    53 H    0.838    26 O    0.129
    26   8 O    1.958 --    24 C    1.690    25 O    0.129
    27   6 C    3.991 --    28 C    1.461    23 C    1.389    54 H    0.969
                            21 C    0.103
    28   6 C    3.987 --    27 C    1.461    20 C    1.386    55 H    0.972
                            22 C    0.103
    29   6 C    3.920 --    19 C    1.313    33 N    1.224    30 C    1.174
    30   6 C    3.961 --    31 C    1.650    29 C    1.174    56 H    0.972
    31   6 C    3.959 --    30 C    1.650    32 C    1.173    57 H    0.975
    32   6 C    3.923 --     2 C    1.363    33 N    1.209    31 C    1.173
    33   7 N    3.384 --    29 C    1.224    32 C    1.209     1 Fe   0.673
    34   7 N    3.381 --    15 C    1.244    18 C    1.202     1 Fe   0.660
    35   6 C    3.986 --    43 C    1.388    36 C    1.387     8 C    1.025
    36   6 C    3.987 --    37 C    1.463    35 C    1.387    58 H    0.972
                            42 C    0.103
    37   6 C    3.990 --    36 C    1.463    38 C    1.386    59 H    0.968
                            43 C    0.103
    38   6 C    3.984 --    42 C    1.389    37 C    1.386    39 C    1.009
    39   6 C    3.836 --    41 O    1.690    40 O    1.088    38 C    1.009
    40   8 O    2.097 --    39 C    1.088    60 H    0.838    41 O    0.129
    41   8 O    1.959 --    39 C    1.690    40 O    0.129
    42   6 C    3.991 --    43 C    1.460    38 C    1.389    61 H    0.969
                            36 C    0.103
    43   6 C    3.988 --    42 C    1.460    35 C    1.388    62 H    0.972
                            37 C    0.103
    44   1 H    1.000 --     2 C    0.970
    45   1 H    0.997 --     4 C    0.975
    46   1 H    1.004 --     5 C    0.972
    47   1 H    1.004 --    10 C    0.973
    48   1 H    1.001 --    11 C    0.973
    49   1 H    1.001 --    16 C    0.973
    50   1 H    1.004 --    17 C    0.973
    51   1 H    1.004 --    21 C    0.972
    52   1 H    1.005 --    22 C    0.968
    53   1 H    0.873 --    25 O    0.838
    54   1 H    1.005 --    27 C    0.969
    55   1 H    1.004 --    28 C    0.972
    56   1 H    1.004 --    30 C    0.972
    57   1 H    0.997 --    31 C    0.975
    58   1 H    1.003 --    36 C    0.972
    59   1 H    1.005 --    37 C    0.968
    60   1 H    0.873 --    40 O    0.838
    61   1 H    1.005 --    42 C    0.969
    62   1 H    1.003 --    43 C    0.972
    63  26 Fe   3.155 --    95 N    0.673    69 N    0.668    74 N    0.665
                            96 N    0.661
    64   6 C    3.925 --    94 C    1.363    65 C    1.363   106 H    0.970
    65   6 C    3.923 --    64 C    1.363    69 N    1.209    66 C    1.172
    66   6 C    3.959 --    67 C    1.651    65 C    1.172   107 H    0.975
    67   6 C    3.961 --    66 C    1.651    68 C    1.174   108 H    0.972
    68   6 C    3.920 --    70 C    1.313    69 N    1.225    67 C    1.174
    69   7 N    3.382 --    68 C    1.225    65 C    1.209    63 Fe   0.668
    70   6 C    3.927 --    71 C    1.335    68 C    1.313    97 C    1.025
    71   6 C    3.916 --    70 C    1.335    74 N    1.199    72 C    1.179
    72   6 C    3.956 --    73 C    1.639    71 C    1.179   109 H    0.973
    73   6 C    3.960 --    72 C    1.639    75 C    1.188   110 H    0.973
    74   7 N    3.383 --    75 C    1.246    71 C    1.199    63 Fe   0.665
    75   6 C    3.902 --    76 C    1.249    74 N    1.246    73 C    1.188
    76   6 C    3.926 --    77 C    1.250    75 C    1.249   132 C    1.205
    77   6 C    3.902 --    76 C    1.250    96 N    1.244    78 C    1.188
    78   6 C    3.959 --    79 C    1.637    77 C    1.188   111 H    0.973
    79   6 C    3.957 --    78 C    1.637    80 C    1.180   112 H    0.973
    80   6 C    3.916 --    81 C    1.330    96 N    1.202    79 C    1.180
    81   6 C    3.928 --    80 C    1.330    91 C    1.313    82 C    1.031
    82   6 C    3.986 --    90 C    1.386    83 C    1.384    81 C    1.031
    83   6 C    3.986 --    84 C    1.464    82 C    1.384   113 H    0.972
                            89 C    0.103
    84   6 C    3.990 --    83 C    1.464    85 C    1.385   114 H    0.968
                            90 C    0.103
    85   6 C    3.982 --    89 C    1.389    84 C    1.385    86 C    1.009
    86   6 C    3.836 --    88 O    1.690    87 O    1.088    85 C    1.009
    87   8 O    2.097 --    86 C    1.088   115 H    0.838    88 O    0.129
    88   8 O    1.958 --    86 C    1.690    87 O    0.129
    89   6 C    3.991 --    90 C    1.461    85 C    1.389   116 H    0.969
                            83 C    0.103
    90   6 C    3.987 --    89 C    1.461    82 C    1.386   117 H    0.972
                            84 C    0.103
    91   6 C    3.920 --    81 C    1.313    95 N    1.224    92 C    1.174
    92   6 C    3.961 --    93 C    1.650    91 C    1.174   118 H    0.972
    93   6 C    3.959 --    92 C    1.650    94 C    1.173   119 H    0.975
    94   6 C    3.923 --    64 C    1.363    95 N    1.209    93 C    1.173
    95   7 N    3.384 --    91 C    1.224    94 C    1.209    63 Fe   0.673
    96   7 N    3.381 --    77 C    1.244    80 C    1.202    63 Fe   0.661
    97   6 C    3.986 --   105 C    1.388    98 C    1.387    70 C    1.025
    98   6 C    3.987 --    99 C    1.463    97 C    1.387   120 H    0.972
                           104 C    0.103
    99   6 C    3.990 --    98 C    1.463   100 C    1.386   121 H    0.968
                           105 C    0.103
   100   6 C    3.984 --   104 C    1.389    99 C    1.386   101 C    1.009
   101   6 C    3.836 --   103 O    1.690   102 O    1.088   100 C    1.009
   102   8 O    2.097 --   101 C    1.088   122 H    0.838   103 O    0.129
   103   8 O    1.959 --   101 C    1.690   102 O    0.129
   104   6 C    3.991 --   105 C    1.460   100 C    1.389   123 H    0.969
                            98 C    0.103
   105   6 C    3.988 --   104 C    1.460    97 C    1.388   124 H    0.972
                            99 C    0.103
   106   1 H    1.000 --    64 C    0.970
   107   1 H    0.997 --    66 C    0.975
   108   1 H    1.004 --    67 C    0.972
   109   1 H    1.004 --    72 C    0.973
   110   1 H    1.001 --    73 C    0.973
   111   1 H    1.001 --    78 C    0.973
   112   1 H    1.004 --    79 C    0.973
   113   1 H    1.004 --    83 C    0.972
   114   1 H    1.005 --    84 C    0.968
   115   1 H    0.873 --    87 O    0.838
   116   1 H    1.005 --    89 C    0.969
   117   1 H    1.004 --    90 C    0.972
   118   1 H    1.004 --    92 C    0.972
   119   1 H    0.997 --    93 C    0.975
   120   1 H    1.003 --    98 C    0.972
   121   1 H    1.005 --    99 C    0.968
   122   1 H    0.873 --   102 O    0.838
   123   1 H    1.005 --   104 C    0.969
   124   1 H    1.003 --   105 C    0.972
   125   6 C    3.865 --   126 C    2.412    14 C    1.205   128 C    0.182
   126   6 C    3.923 --   125 C    2.412   127 C    1.363
   127   6 C    3.880 --   128 C    2.306   126 C    1.363   130 C    0.178
   128   6 C    3.914 --   127 C    2.306   129 C    1.389   125 C    0.182
   129   6 C    3.914 --   130 C    2.306   128 C    1.389   132 C    0.182
   130   6 C    3.880 --   129 C    2.306   131 C    1.363   127 C    0.178
   131   6 C    3.924 --   132 C    2.412   130 C    1.363
   132   6 C    3.865 --   131 C    2.412    76 C    1.205   129 C    0.182
 ---------------------------------------------------------------------------

           -------------------------------------------------
          | TOTAL ENERGY             -250.142613879174 Eh   |
          | GRADIENT NORM               0.000786492704 Eh/α |
          | HOMO-LUMO GAP               0.092736738930 eV   |
           -------------------------------------------------

 * finished run on 2022/07/29 at 22:27:42.787
