   * xtb version 6.5.1 (b24c23e) compiled by 'conda@728c89f4b128' on 2022-07-12
          program call               : xtb Ni_BSA_C6_2.xyz --gfn 1 --opt -T 48

   ID    Z sym.   atoms
    1   28 Ni     1, 65
    2    6 C      2-6, 8-12, 17-21, 23-28, 30-34, 39-44, 66-70, 72-76, 81-85,
                  87-92, 94-98, 103-108, 129-134
    3    7 N      7, 22, 29, 45, 71, 86, 93, 109
    4   16 S      13, 35, 77, 99
    5    8 O      14-16, 36-38, 78-80, 100-102
    6    1 H      46-64, 110-128
########################################################################
[WARNING] Please study the warnings concerning your input carefully
-1- prog_main_parseArguments: Unknown option '-T' provided
########################################################################

          :  Hamiltonian                  GFN1-xTB          :
 * total energy  :  -271.8300931 Eh     change       -0.4440039E-09 Eh
 * total energy  :  -272.6516245 Eh     change       -0.8215314E+00 Eh
 * total energy  :  -272.7912173 Eh     change       -0.1395928E+00 Eh
 * total energy  :  -272.8650231 Eh     change       -0.7380587E-01 Eh
 * total energy  :  -272.8945696 Eh     change       -0.2954645E-01 Eh
 * total energy  :  -272.9101517 Eh     change       -0.1558212E-01 Eh
 * total energy  :  -272.9198445 Eh     change       -0.9692766E-02 Eh
 * total energy  :  -272.9266137 Eh     change       -0.6769195E-02 Eh
 * total energy  :  -272.9316661 Eh     change       -0.5052446E-02 Eh
 * total energy  :  -272.9355041 Eh     change       -0.3837979E-02 Eh
 * total energy  :  -272.9478439 Eh     change       -0.8945562E-05 Eh
 * total energy  :  -272.9478476 Eh     change       -0.3703462E-05 Eh
 * total energy  :  -272.9478569 Eh     change       -0.9313015E-05 Eh
 * total energy  :  -272.9478729 Eh     change       -0.1605897E-04 Eh
 * total energy  :  -272.9478840 Eh     change       -0.1102624E-04 Eh
 * total energy  :  -272.9479023 Eh     change       -0.1834538E-04 Eh
 * total energy  :  -272.9479136 Eh     change       -0.1130553E-04 Eh
 * total energy  :  -272.9479237 Eh     change       -0.1004928E-04 Eh
 * total energy  :  -272.9479282 Eh     change       -0.4527803E-05 Eh
   *** GEOMETRY OPTIMIZATION CONVERGED AFTER 55 ITERATIONS ***

 final structure:
================
134
 xtb: 6.5.1 (b24c23e)
Ni          15.73993512986189        0.01839327759060        0.04722321852138
C           12.34999925824879        0.11772287815110        0.08443899512315
C           12.99797340546058       -0.32602316271248        1.21830113517541
C           12.31875760710746       -0.77417632634226        2.39575630355111
C           13.27242658342192       -1.02160424796595        3.32362704901499
C           14.53354807932964       -0.71297682847943        2.71463611991636
N           14.35710196918418       -0.32591196438801        1.41025383451017
C           15.75043437917154       -0.75385812422093        3.38296670945901
C           15.75776576481906       -1.08796307731902        4.82682536034183
C           15.10123229695120       -0.26372427439052        5.74391421346879
C           15.11076803605484       -0.56840022441729        7.09515706718157
C           15.77719403108805       -1.70809054591632        7.51500079415244
S           15.79994303188879       -2.09564427112713        9.22463920694422
O           15.56474542989038       -0.92262267833078       10.01340313765943
O           14.46591518651944       -3.02104781873798        9.27310433001961
O           16.92526422292840       -2.92301202308644        9.54742505135211
C           16.43741438197166       -2.54464435144075        6.62968436063164
C           16.42636445342350       -2.22728588113089        5.28148962694062
C           16.96193929538372       -0.49287764985338        2.75617567365203
C           18.22254188054648       -0.46854658893229        3.43454523295510
C           19.17209064405741       -0.27735971836847        2.48754963721143
N           17.13560519747926       -0.27227960702652        1.40902622877993
C           18.48940855438419       -0.17693211497872        1.23702272489441
C           19.15008647655157       -0.08108857558049        0.00931698534631
C           18.46861556116584        0.05022993969742       -1.20387219066701
C           19.12765043158783        0.10750851262293       -2.46958384581440
C           18.17014457880663        0.35476168929856       -3.39553880100088
C           16.92924920062568        0.45767389586951       -2.68890868313254
N           17.11949110629210        0.22571826195733       -1.34591049521653
C           15.72292765119601        0.79903990508865       -3.28687532900017
C           15.71780798051492        1.14380037117387       -4.72789004906639
C           14.96712555678093        0.38800227478191       -5.63177199855282
C           14.95455417216229        0.71120818291880       -6.97869800752072
C           15.69862683413039        1.79768305013838       -7.40883569446898
S           15.67357709218639        2.22318418808344       -9.11036208851335
O           16.00417394498938        3.60579024764682       -9.30094902911405
O           16.95044793520868        1.35079733737569       -9.60661938248249
O           14.49222807700643        1.70541587244714       -9.73165700609883
C           16.45106250385945        2.56736701818689       -6.53647993892621
C           16.45891474119789        2.23345593862344       -5.19230519912132
C           14.52158103084996        0.83248230246697       -2.59002360029742
C           13.26828605598138        1.22270364494609       -3.16783727207494
C           12.32180500395566        1.02343293065946       -2.22131404250275
C           12.99846638221035        0.52650033434137       -1.06223257925743
N           14.35078602499547        0.44734773069801       -1.28417090152617
H           11.26687245045464        0.14919942793407        0.09596484986783
H           11.24897935523957       -0.87828985885688        2.48165748354363
H           13.14716871658566       -1.38325895296075        4.33127152316974
H           14.59571358854866        0.62928186040432        5.39539958017724
H           14.61564576320393        0.06944952780970        7.81649731500047
H           14.35210050240852       -3.39798334365423       10.15403934826854
H           16.95300446121164       -3.42452366952058        6.99347475553083
H           16.92916863215050       -2.87257494506818        4.57066195072404
H           18.35367859581640       -0.57860415532502        4.49855306639395
H           20.24104021453478       -0.20966013959227        2.60893147149322
H           20.18752551422647       -0.02536412573499       -2.61452635609837
H           18.28364581098964        0.45415724975803       -4.46263065322444
H           14.40064953471499       -0.46472962248840       -5.27619759342989
H           14.37428343256714        0.13382596951508       -7.68736847538561
H           17.31765141270024        1.73283519438233      -10.41318353479324
H           17.01213246339595        3.41689607490809       -6.90520795385928
H           17.02997890462768        2.83079124129780       -4.49119487370277
H           13.14254305971166        1.60226504313244       -4.16873515657447
H           11.25861229024448        1.19202033303583       -2.28285000937069
Ni          31.73325982356528        0.03438669410309       -0.03677140919400
C           35.12324622278675        0.13993435931092       -0.03417950756456
C           34.47555770053685        0.14650784714596       -1.25190151314244
C           35.15502220411710        0.16537361630103       -2.51147130167759
C           34.20155664814759        0.27863487817060       -3.46527143676537
C           32.94029107507146        0.34016353856919       -2.78559441813496
N           33.11646053438921        0.21768306405042       -1.43050101785527
C           31.72341332950396        0.54858829553765       -3.42193423821036
C           31.71600395937978        0.77132009158656       -4.88710544917902
C           32.37240051072924        1.87598349220428       -5.43514495598477
C           32.36226488474500        2.09205203677554       -6.80334909541900
C           31.69534214432085        1.18817907491932       -7.61423626426299
S           31.67129844178960        1.45977840296007       -9.34606227875985
O           31.90608469140976        2.84123065884461       -9.64585760080150
O           33.00511572465855        0.61791387728526       -9.73409623831095
O           30.54556291081427        0.81007517058676       -9.95077810300894
C           31.03546650349747        0.08367223197765       -7.10029818097944
C           31.04716246340117       -0.11951421695199       -5.73024905110652
C           30.51183338258647        0.55925634551271       -2.74314696039427
C           29.25130339397713        0.83213422015355       -3.36481894474763
C           28.30164289337586        0.66043741993974       -2.41420369460345
N           30.33800777146428        0.26709855928530       -1.40967556555838
C           28.98414222766820        0.29223942681677       -1.21484147536895
C           28.32315043367650       -0.07154207757771       -0.03850359290408
C           29.00436348143732       -0.39800308453576        1.13740407395650
C           28.34517849319013       -0.81232509540751        2.33468061203301
C           29.30262927295172       -0.92479932220690        3.28651685416075
C           30.54355034717954       -0.56806676108070        2.66803268845671
N           30.35345802203896       -0.28745629121389        1.33432575505544
C           31.74973062453774       -0.47108826931859        3.34991275166072
C           31.75489862229239       -0.68302927828343        4.81637521313091
C           32.50560464240387       -1.71940565966486        5.37680270602136
C           32.51871734428730       -1.91652903233129        6.74785029607448
C           31.77512303761571       -1.06562465465774        7.54917070719296
S           31.80184333702347       -1.29864161508409        9.28749228750754
O           31.47268886145453       -0.08419735251354        9.97588692533658
O           30.52474395649899       -2.29218533728798        9.42737031367978
O           32.98330685004664       -2.00999134909769        9.67216775736753
C           31.02246276021724       -0.02814544874353        7.02314293227571
C           31.01408604585525        0.15802716132739        5.65067153553992
C           32.95103989550957       -0.18222960761812        2.71482897665195
C           34.20418368690544       -0.03267109806098        3.39613609964924
C           35.15088883149532        0.13110073914633        2.44305965958483
C           34.47447443528697        0.09685092386576        1.18225797523540
N           33.12210571986544       -0.05838454080607        1.35904454086922
H           36.20638059615067        0.17309561490356       -0.03293283040924
H           36.22482348460882        0.10039808375703       -2.62959074722188
H           34.32710018653256        0.31532992779821       -4.53518785592990
H           32.87817755052777        2.57706779687488       -4.78158136504319
H           32.85721095167893        2.95125513526519       -7.23824214446635
H           33.11822849500850        0.59335195597033      -10.69205488122780
H           30.51957274880445       -0.59952694382118       -7.76321588138455
H           30.54458098222148       -0.98179963778596       -5.30792074521094
H           29.12027382486365        1.12250000426238       -4.39434587863506
H           27.23269735419302        0.76799015381734       -2.50223056831697
H           27.28530374030017       -0.98942169668395        2.42013410273344
H           29.18903089485409       -1.22663581411096        4.31483171044011
H           33.07179017776055       -2.38052842391890        4.73118413649073
H           33.09908576598302       -2.71486355643889        7.19295532695282
H           30.16243015690817       -2.24035097983993       10.32027477418356
H           30.46166514487926        0.62517522419417        7.67975015240872
H           30.44292059465860        0.97209596891442        5.21991974060247
H           34.32965522732574       -0.04902542646936        4.46649456677267
H           36.21406664305254        0.26498628339555        2.56268277715453
C           24.35049730655516       -0.13525350862375       -0.03010910101086
C           23.12270126917875       -0.13820918218696       -0.02555682379209
C           21.77772014235537       -0.12772123415108       -0.01620951368722
C           20.55470663848158       -0.11199818469061       -0.00558576538878
C           25.69547514157896       -0.12346051481070       -0.03445658219494
C           26.91850297303398       -0.10510191855085       -0.03642457153476

          :  Hamiltonian                  GFN1-xTB          :
         :: total energy            -272.947928187106 Eh    ::
         :: gradient norm              0.000584698519 Eh/a0 ::
         :: HOMO-LUMO gap              1.237121815451 eV    ::
         :: SCC energy              -276.592675292473 Eh    ::
         :: repulsion energy           3.766775403198 Eh    ::

    * Orbital Energies and Occupations

         #    Occupation            Energy/Eh            Energy/eV
      -------------------------------------------------------------
         1        2.0000           -1.0369166             -28.2159
       ...           ...                  ...                  ...
       225        2.0000           -0.4305988             -11.7172
       226        2.0000           -0.4159411             -11.3183
       227        2.0000           -0.4159372             -11.3182
       228        2.0000           -0.4155590             -11.3079
       229        2.0000           -0.4155578             -11.3079
       230        2.0000           -0.4146782             -11.2840
       231        2.0000           -0.4146774             -11.2839
       232        2.0000           -0.4136006             -11.2546
       233        2.0000           -0.4135976             -11.2546
       234        2.0000           -0.4134979             -11.2519
       235        2.0000           -0.4134956             -11.2518
       236        2.0000           -0.4129169             -11.2360
       237        2.0000           -0.4023663             -10.9489 (HOMO)
       238                         -0.3569029              -9.7118 (LUMO)
       239                         -0.3491204              -9.5001
       240                         -0.3491181              -9.5000
       241                         -0.3456555              -9.4058
       242                         -0.3454716              -9.4008
       243                         -0.3452415              -9.3945
       244                         -0.3219910              -8.7618
       245                         -0.3186363              -8.6705
       246                         -0.3102642              -8.4427
       247                         -0.3102344              -8.4419
       248                         -0.3072619              -8.3610
       ...                                ...                  ...
       490                          1.5649392              42.5842
      -------------------------------------------------------------
                  HL-Gap            0.0454634 Eh            1.2371 eV

Wiberg/Mayer (AO) data.
largest (>0.10) Wiberg bond orders for each atom

     #   Z sym  total        # sym  WBO       # sym  WBO       # sym  WBO
 ---------------------------------------------------------------------------
     1  28 Ni   3.013 --    45 N    0.664     7 N    0.664    29 N    0.660
                            22 N    0.660
     2   6 C    3.936 --    44 C    1.364     3 C    1.364    46 H    0.970
     3   6 C    3.921 --     2 C    1.364     7 N    1.212     4 C    1.174
     4   6 C    3.960 --     5 C    1.651     3 C    1.174    47 H    0.975
     5   6 C    3.963 --     4 C    1.651     6 C    1.175    48 H    0.973
     6   6 C    3.921 --     8 C    1.322     7 N    1.222     5 C    1.175
     7   7 N    3.402 --     6 C    1.222     3 C    1.212     1 Ni   0.664
     8   6 C    3.938 --    19 C    1.326     6 C    1.322     9 C    1.028
     9   6 C    3.986 --    10 C    1.391    18 C    1.391     8 C    1.028
    10   6 C    3.987 --    11 C    1.449     9 C    1.391    49 H    0.971
                            17 C    0.106
    11   6 C    3.989 --    10 C    1.449    12 C    1.408    50 H    0.967
                            18 C    0.106
    12   6 C    3.931 --    11 C    1.408    17 C    1.407    13 S    0.754
    13  16 S    5.265 --    14 O    1.722    16 O    1.717    15 O    1.013
                            12 C    0.754
    14   8 O    2.080 --    13 S    1.722    16 O    0.139
    15   8 O    2.087 --    13 S    1.013    51 H    0.828
    16   8 O    2.076 --    13 S    1.717    14 O    0.139
    17   6 C    3.989 --    18 C    1.450    12 C    1.407    52 H    0.967
                            10 C    0.106
    18   6 C    3.987 --    17 C    1.450     9 C    1.391    53 H    0.971
                            11 C    0.106
    19   6 C    3.915 --     8 C    1.326    22 N    1.208    20 C    1.183
    20   6 C    3.958 --    21 C    1.637    19 C    1.183    54 H    0.973
    21   6 C    3.961 --    20 C    1.637    23 C    1.191    55 H    0.973
    22   7 N    3.405 --    23 C    1.237    19 C    1.208     1 Ni   0.660
    23   6 C    3.902 --    24 C    1.264    22 N    1.237    21 C    1.191
    24   6 C    3.945 --    23 C    1.264    25 C    1.263   132 C    1.184
    25   6 C    3.902 --    24 C    1.263    29 N    1.237    26 C    1.191
    26   6 C    3.961 --    27 C    1.636    25 C    1.191    56 H    0.973
    27   6 C    3.958 --    26 C    1.636    28 C    1.183    57 H    0.973
    28   6 C    3.915 --    30 C    1.326    29 N    1.208    27 C    1.183
    29   7 N    3.406 --    25 C    1.237    28 C    1.208     1 Ni   0.660
    30   6 C    3.938 --    28 C    1.326    41 C    1.322    31 C    1.029
    31   6 C    3.986 --    32 C    1.391    40 C    1.390    30 C    1.029
    32   6 C    3.987 --    33 C    1.449    31 C    1.391    58 H    0.971
                            39 C    0.106
    33   6 C    3.989 --    32 C    1.449    34 C    1.408    59 H    0.966
                            40 C    0.106
    34   6 C    3.931 --    33 C    1.408    39 C    1.407    35 S    0.753
    35  16 S    5.269 --    38 O    1.731    36 O    1.712    37 O    1.016
                            34 C    0.753
    36   8 O    2.071 --    35 S    1.712    38 O    0.138
    37   8 O    2.090 --    35 S    1.016    60 H    0.828
    38   8 O    2.088 --    35 S    1.731    36 O    0.138
    39   6 C    3.989 --    40 C    1.450    34 C    1.407    61 H    0.967
                            32 C    0.106
    40   6 C    3.987 --    39 C    1.450    31 C    1.390    62 H    0.971
                            33 C    0.106
    41   6 C    3.921 --    30 C    1.322    45 N    1.222    42 C    1.175
    42   6 C    3.963 --    43 C    1.651    41 C    1.175    63 H    0.972
    43   6 C    3.960 --    42 C    1.651    44 C    1.174    64 H    0.974
    44   6 C    3.921 --     2 C    1.364    45 N    1.212    43 C    1.174
    45   7 N    3.402 --    41 C    1.222    44 C    1.212     1 Ni   0.664
    46   1 H    1.000 --     2 C    0.970
    47   1 H    0.997 --     4 C    0.975
    48   1 H    1.003 --     5 C    0.973
    49   1 H    1.003 --    10 C    0.971
    50   1 H    0.999 --    11 C    0.967
    51   1 H    0.854 --    15 O    0.828
    52   1 H    0.999 --    17 C    0.967
    53   1 H    1.003 --    18 C    0.971
    54   1 H    1.003 --    20 C    0.973
    55   1 H    1.001 --    21 C    0.973
    56   1 H    1.001 --    26 C    0.973
    57   1 H    1.003 --    27 C    0.973
    58   1 H    1.003 --    32 C    0.971
    59   1 H    0.999 --    33 C    0.966
    60   1 H    0.855 --    37 O    0.828
    61   1 H    1.000 --    39 C    0.967
    62   1 H    1.003 --    40 C    0.971
    63   1 H    1.003 --    42 C    0.972
    64   1 H    0.997 --    43 C    0.974
    65  28 Ni   3.013 --   109 N    0.664    71 N    0.664    86 N    0.660
                            93 N    0.660
    66   6 C    3.936 --   108 C    1.364    67 C    1.364   110 H    0.970
    67   6 C    3.921 --    66 C    1.364    71 N    1.212    68 C    1.174
    68   6 C    3.960 --    69 C    1.651    67 C    1.174   111 H    0.975
    69   6 C    3.963 --    68 C    1.651    70 C    1.175   112 H    0.973
    70   6 C    3.921 --    72 C    1.322    71 N    1.222    69 C    1.175
    71   7 N    3.401 --    70 C    1.222    67 C    1.212    65 Ni   0.664
    72   6 C    3.938 --    83 C    1.326    70 C    1.322    73 C    1.028
    73   6 C    3.986 --    74 C    1.391    82 C    1.391    72 C    1.028
    74   6 C    3.987 --    75 C    1.449    73 C    1.391   113 H    0.971
                            81 C    0.106
    75   6 C    3.989 --    74 C    1.449    76 C    1.408   114 H    0.967
                            82 C    0.106
    76   6 C    3.931 --    75 C    1.408    81 C    1.407    77 S    0.754
    77  16 S    5.265 --    78 O    1.722    80 O    1.717    79 O    1.013
                            76 C    0.754
    78   8 O    2.080 --    77 S    1.722    80 O    0.139
    79   8 O    2.087 --    77 S    1.013   115 H    0.828
    80   8 O    2.076 --    77 S    1.717    78 O    0.139
    81   6 C    3.989 --    82 C    1.450    76 C    1.407   116 H    0.967
                            74 C    0.106
    82   6 C    3.987 --    81 C    1.450    73 C    1.391   117 H    0.971
                            75 C    0.106
    83   6 C    3.915 --    72 C    1.326    86 N    1.208    84 C    1.183
    84   6 C    3.958 --    85 C    1.637    83 C    1.183   118 H    0.973
    85   6 C    3.961 --    84 C    1.637    87 C    1.191   119 H    0.973
    86   7 N    3.406 --    87 C    1.237    83 C    1.208    65 Ni   0.660
    87   6 C    3.902 --    88 C    1.264    86 N    1.237    85 C    1.191
    88   6 C    3.945 --    87 C    1.264    89 C    1.263   134 C    1.184
    89   6 C    3.902 --    88 C    1.263    93 N    1.237    90 C    1.191
    90   6 C    3.961 --    91 C    1.636    89 C    1.191   120 H    0.973
    91   6 C    3.958 --    90 C    1.636    92 C    1.183   121 H    0.973
    92   6 C    3.915 --    94 C    1.326    93 N    1.208    91 C    1.183
    93   7 N    3.406 --    89 C    1.237    92 C    1.208    65 Ni   0.660
    94   6 C    3.938 --    92 C    1.326   105 C    1.322    95 C    1.029
    95   6 C    3.986 --    96 C    1.391   104 C    1.390    94 C    1.029
    96   6 C    3.987 --    97 C    1.449    95 C    1.391   122 H    0.971
                           103 C    0.106
    97   6 C    3.989 --    96 C    1.449    98 C    1.408   123 H    0.966
                           104 C    0.106
    98   6 C    3.931 --    97 C    1.408   103 C    1.407    99 S    0.753
    99  16 S    5.269 --   102 O    1.730   100 O    1.712   101 O    1.015
                            98 C    0.753
   100   8 O    2.071 --    99 S    1.712   102 O    0.138
   101   8 O    2.090 --    99 S    1.015   124 H    0.828
   102   8 O    2.088 --    99 S    1.730   100 O    0.138
   103   6 C    3.989 --   104 C    1.450    98 C    1.407   125 H    0.967
                            96 C    0.106
   104   6 C    3.987 --   103 C    1.450    95 C    1.390   126 H    0.971
                            97 C    0.106
   105   6 C    3.921 --    94 C    1.322   109 N    1.222   106 C    1.175
   106   6 C    3.963 --   107 C    1.651   105 C    1.175   127 H    0.972
   107   6 C    3.960 --   106 C    1.651   108 C    1.174   128 H    0.974
   108   6 C    3.921 --    66 C    1.364   109 N    1.212   107 C    1.174
   109   7 N    3.402 --   105 C    1.222   108 C    1.212    65 Ni   0.664
   110   1 H    1.000 --    66 C    0.970
   111   1 H    0.997 --    68 C    0.975
   112   1 H    1.003 --    69 C    0.973
   113   1 H    1.003 --    74 C    0.971
   114   1 H    0.999 --    75 C    0.967
   115   1 H    0.854 --    79 O    0.828
   116   1 H    0.999 --    81 C    0.967
   117   1 H    1.003 --    82 C    0.971
   118   1 H    1.003 --    84 C    0.973
   119   1 H    1.001 --    85 C    0.973
   120   1 H    1.001 --    90 C    0.973
   121   1 H    1.003 --    91 C    0.973
   122   1 H    1.003 --    96 C    0.971
   123   1 H    0.999 --    97 C    0.966
   124   1 H    0.855 --   101 O    0.828
   125   1 H    1.000 --   103 C    0.967
   126   1 H    1.003 --   104 C    0.971
   127   1 H    1.003 --   106 C    0.972
   128   1 H    0.997 --   107 C    0.974
   129   6 C    3.928 --   130 C    2.376   133 C    1.330   132 C    0.191
   130   6 C    3.928 --   129 C    2.376   131 C    1.330   134 C    0.191
   131   6 C    3.938 --   132 C    2.458   130 C    1.330
   132   6 C    3.892 --   131 C    2.458    24 C    1.184   129 C    0.191
   133   6 C    3.938 --   134 C    2.458   129 C    1.330
   134   6 C    3.892 --   133 C    2.458    88 C    1.184   130 C    0.191
 ---------------------------------------------------------------------------

           -------------------------------------------------
          | TOTAL ENERGY             -272.947928187106 Eh   |
          | GRADIENT NORM               0.000584698519 Eh/α |
          | HOMO-LUMO GAP               1.237121815451 eV   |
           -------------------------------------------------

 * finished run on 2022/07/30 at 11:05:38.733
