   * xtb version 6.5.1 (b24c23e) compiled by 'conda@728c89f4b128' on 2022-07-12
          program call               : xtb Co_PhCN_C4_3.xyz --gfn 1 --opt -T 48

   ID    Z sym.   atoms
    1   27 Co     1, 59, 125
    2    6 C      2-6, 8-13, 15-19, 21-26, 28-33, 35-40, 60-64, 66-71, 73-77,
                  79-84, 86-91, 93-98, 117-124, 126-130, 132-137, 139-143,
                  145-150, 152-157, 159-164
    3    7 N      7, 14, 20, 27, 34, 41, 65, 72, 78, 85, 92, 99, 131, 138,
                  144, 151, 158, 165
    4    1 H      42-58, 100-116, 166-181

          :  Hamiltonian                  GFN1-xTB          :
 * total energy  :  -326.3250777 Eh     change        0.6402104E-08 Eh
 * total energy  :  -326.6192959 Eh     change       -0.2942182E+00 Eh
 * total energy  :  -326.7377055 Eh     change       -0.1184096E+00 Eh
 * total energy  :  -326.8137265 Eh     change       -0.7602094E-01 Eh
 * total energy  :  -326.8754283 Eh     change       -0.6170181E-01 Eh
 * total energy  :  -326.9102675 Eh     change       -0.3483920E-01 Eh
 * total energy  :  -326.9326599 Eh     change       -0.2239244E-01 Eh
 * total energy  :  -326.9477653 Eh     change       -0.1510532E-01 Eh
 * total energy  :  -326.9604458 Eh     change       -0.1268055E-01 Eh
 * total energy  :  -326.9715945 Eh     change       -0.1114871E-01 Eh
 * total energy  :  -327.0524739 Eh     change       -0.1361691E-04 Eh
 * total energy  :  -327.0524878 Eh     change       -0.1392097E-04 Eh
 * total energy  :  -327.0524983 Eh     change       -0.1045667E-04 Eh
 * total energy  :  -327.0525167 Eh     change       -0.1843377E-04 Eh
 * total energy  :  -327.0525282 Eh     change       -0.1154866E-04 Eh
 * total energy  :  -327.0525453 Eh     change       -0.1710992E-04 Eh
 * total energy  :  -327.0525568 Eh     change       -0.1145367E-04 Eh
 * total energy  :  -327.0525638 Eh     change       -0.6949911E-05 Eh
 * total energy  :  -327.0525642 Eh     change       -0.4063731E-06 Eh
   *** GEOMETRY OPTIMIZATION CONVERGED AFTER 68 ITERATIONS ***

 final structure:
================
181
 xtb: 6.5.1 (b24c23e)
Co          33.83922123239267        0.03264061436225        0.05514786373834
C           30.47098668033144        0.03285247976678        0.19857461210659
C           31.12293251269211        1.24398401037672        0.10405984675168
C           30.45870301733530        2.50915491550814        0.02402977845845
C           31.41742763629910        3.45882279366912        0.13433528173636
C           32.66451750512683        2.77106906413957        0.30100714493411
N           32.48057147075441        1.41536640018104        0.20855187953948
C           33.86080416363926        3.38923971337109        0.64262534412928
C           33.87530610923115        4.84651386398522        0.89774741703841
C           33.06834023958512        5.40112424355512        1.89412566220506
C           33.08888371549793        6.76198218312655        2.14101085828727
C           33.91722713492776        7.59880602564844        1.38726759141179
C           33.94019204456146        9.00002969927854        1.63765750529321
N           33.96022599441812       10.13232231532556        1.84206616152512
C           34.72383333778340        7.04934949188722        0.38623734554062
C           34.70302601054064        5.68684732467724        0.14906241571591
C           35.04357264095764        2.67457870587743        0.76640334971946
C           36.28700905326563        3.24037624322096        1.19605693674945
C           37.23244200528929        2.28595311522079        1.01913668444248
N           35.21771258098345        1.36114307087431        0.39606009991780
C           36.56311293431900        1.14054720123138        0.48935349630422
C           37.22910447900428        0.01574519551411       -0.00423636796480
C           36.53679954950655       -1.09374680278662       -0.49702204982246
C           37.17595104948807       -2.22973234001389       -1.08130526505265
C           36.21115369615489       -3.16146650921920       -1.27399913231835
C           34.98842010774472       -2.59582584080122       -0.78800083763668
N           35.19147084636048       -1.29775047488477       -0.37768663232555
C           33.80675227097174       -3.30472993261438       -0.63140651145130
C           33.78736457944363       -4.75079979591911       -0.94421750172739
C           32.91541760160916       -5.25275704902020       -1.91336219746731
C           32.89893100027004       -6.60259593803658       -2.21482520000214
C           33.75394010449423       -7.48129314144682       -1.54294088631016
C           33.73874785694085       -8.87147493429721       -1.84927025300714
N           33.72782124903640       -9.99519528995670       -2.09689811635244
C           34.62442812475323       -6.98483147593665       -0.56810387443579
C           34.64060405321355       -5.63276625752837       -0.27668352061887
C           32.64155773460159       -2.69562496786254       -0.18165886757399
C           31.41318941402783       -3.38975638734286        0.07299535718390
C           30.47323907499498       -2.44591334334942        0.31547835432373
C           31.12958302676316       -1.17789553864199        0.21484488777711
N           32.47094853508143       -1.34472973651198       -0.02535224779453
H           29.38875703886952        0.03219351164308        0.25176478380006
H           29.39440338214778        2.63373871692200       -0.09638275428190
H           31.30382834404575        4.53049932405737        0.11124437871596
H           32.43556408116154        4.75391478228372        2.49082945803325
H           32.46551810561033        7.18395149180422        2.92060131505378
H           35.36451742880837        7.69545239308085       -0.20237634029357
H           35.32175050445236        5.26582235465617       -0.63534981713778
H           36.40931877640472        4.23880871886623        1.58311568309795
H           38.29113258523278        2.34010369694779        1.21524136664458
H           38.22867475196144       -2.29199599782326       -1.30525932890042
H           36.30861715833028       -4.14587061867349       -1.70185096332615
H           32.25957598053635       -4.57262869078596       -2.44500750449315
H           32.22523327745731       -6.98358168007458       -2.97335623869806
H           35.28515586574154       -7.66381081434267       -0.04195580639950
H           35.30829834487666       -5.25342805373667        0.48859654298456
H           31.29933057357573       -4.46164486731368        0.06388221630874
H           29.42517166601841       -2.57561895811800        0.53331994876667
Co          60.61210081802485        0.00372465860173        0.08032480921815
C           63.98362309473272        0.01751480218114        0.24835311944196
C           63.33408847225637       -1.19781312581065        0.23033808145397
C           64.00487205830558       -2.46203507078236        0.23958735131987
C           63.04766264696687       -3.40855297405817        0.38042374199139
C           61.79422175512751       -2.71891702949013        0.47807469081381
N           61.97504754344678       -1.36842860552881        0.31706529651773
C           60.59321640968775       -3.32823672326024        0.81339146369989
C           60.57866995122671       -4.77415976432060        1.12977633029601
C           61.34664552891352       -5.27818214432474        2.18207680134996
C           61.32546318778441       -6.62740153278288        2.48640590895293
C           60.53574054084446       -7.50305956990152        1.73534001518498
C           60.51155321579026       -8.89216681130122        2.04564771673056
N           60.49115631207663      -10.01478329110589        2.29716678390132
C           59.76819932199970       -7.00419442315976        0.67861844747902
C           59.78933385597958       -5.65289478855645        0.38400553459935
C           59.40436906746741       -2.61621534017929        0.87901427685645
C           58.15643591998297       -3.17663375283960        1.30259202283011
C           57.21057854820484       -2.23131462871284        1.08758035911263
N           59.23196513313579       -1.31516512233624        0.46777835015864
C           57.88331395640303       -1.09642779344181        0.53924757684954
C           57.21811734543424        0.01776910851868        0.02798423306638
C           57.90549692748049        1.11523654173463       -0.49082774355446
C           57.25936956249822        2.23498302933217       -1.09871976637410
C           58.22407620637008        3.15337829647356       -1.34484904068870
C           59.45447667096981        2.59785099536939       -0.86665193904848
N           59.25509662620117        1.31774847166250       -0.40266751405303
C           60.64362085393148        3.30555440684802       -0.77680574804080
C           60.66319947436725        4.73379929326060       -1.16605790468661
C           61.49663849987168        5.17348564626703       -2.19707985180298
C           61.51327334431019        6.50550428033247       -2.56983740432782
C           60.69756099558251        7.42843609815531       -1.90855730988050
C           60.71179833401205        8.80033802513569       -2.28845109657193
N           60.72024396194484        9.90920659205372       -2.59627174995545
C           59.86661723174642        6.99446688345488       -0.87136014624322
C           59.84974376358213        5.65969568955647       -0.50878383739778
C           61.81459673944190        2.71645865412066       -0.31980104232293
C           63.04778126254524        3.42200566125722       -0.12684825254774
C           63.98599566550547        2.49483490450936        0.17642379764374
C           63.32503701907451        1.22516791777439        0.17073586884758
N           61.98283164076764        1.37775926726839       -0.07508155816271
H           65.06526742382127        0.02322976992533        0.31151340351468
H           65.07223058088189       -2.58734720703466        0.15106365436546
H           63.16540737162855       -4.47926270210276        0.42089354730489
H           61.94948585225622       -4.60039140406750        2.77583798900426
H           61.91819348846556       -7.01006818884183        3.30899949440402
H           59.15743444494684       -7.68062021289984        0.09224787284004
H           59.20057622357984       -5.27097388007327       -0.44236784940781
H           58.03234340755812       -4.16553087433229        1.71282215459878
H           56.14927883261752       -2.28445399144041        1.26927648257855
H           56.20241651647382        2.29486062697671       -1.30248326886586
H           58.12239740281226        4.12316459903974       -1.80395430000438
H           62.12241167745230        4.45854410670054       -2.71922612018222
H           62.15661067700150        6.83810128338102       -3.37601263980005
H           59.23714482938835        7.70827424588806       -0.35303739423083
H           59.21253772959663        5.32876648611504        0.30350958942623
H           63.16485428213166        4.48999961018346       -0.21452092173818
H           65.03608726591460        2.63546839126149        0.37714625678382
C           39.85386972952129       -0.00316580539684       -0.02548365110498
C           38.63126053818252        0.00474292043220       -0.01666811757832
C           41.20168177143179       -0.00480539262766       -0.03589454928988
C           42.42449234486164       -0.00547141967290       -0.04105206441288
C           53.23918989423808        0.03857915018992        0.00675757491319
C           52.01779108605896        0.03770543427119        0.00238492125300
C           54.59031225169518        0.03405700934624        0.01898110409752
C           55.81141309533159        0.02768800977001        0.02228842308054
Co          47.21929784011731        0.00886707735768       -0.00353646328489
C           43.82590660323287        0.00193731328543       -0.04475270588008
C           44.51409078544849       -1.20332525931874       -0.21382924284513
C           43.87064307019162       -2.47161252159659       -0.34375788359417
C           44.83177192672754       -3.35950378154642       -0.69825990042734
C           46.05653729536223       -2.62460977035971       -0.79270710373837
N           45.85811767887971       -1.31285962693186       -0.43052641822084
C           47.24102799784504       -3.13584308997860       -1.30492326834598
C           47.25084446732362       -4.50854239212729       -1.85624236071474
C           46.40292540033413       -4.85315719684105       -2.91164202160326
C           46.41240802463923       -6.13419283381784       -3.43325071359004
C           47.26963294227244       -7.10157857669789       -2.90050276574334
C           47.28004934503504       -8.42198921683950       -3.43272500051254
N           47.29053417109615       -9.48892397186171       -3.86346709240403
C           48.11669576819333       -6.76305116369727       -1.84105679193207
C           48.10735872572496       -5.47817605169868       -1.32906790633671
C           48.41789707902139       -2.39869778441083       -1.31013681176546
C           49.65492031871818       -2.85817064983142       -1.86549250318399
C           50.60524432747925       -1.96806585314923       -1.48972804697788
N           48.59604494037323       -1.19382437583997       -0.67219501440963
C           49.94276715902708       -0.96287294931097       -0.72096781979231
C           50.61253889610565        0.03485758626866       -0.00965976977526
C           49.92414368410136        1.03101214916032        0.68614074854906
C           50.56518860236101        2.04413403105730        1.46224503143847
C           49.60339431335242        2.93471805184313        1.80779098735571
C           48.38082018143745        2.46496610827311        1.23034564957539
N           48.57971239795913        1.26156418619224        0.59728078238006
C           47.19718786534465        3.19128210682434        1.20205736136445
C           47.18861886306176        4.56734879389161        1.74549043164085
C           46.33607705930913        4.90716260671217        2.79862293614943
C           46.33211835888358        6.19020093745135        3.31540654963843
C           47.17990438902972        7.16417489630692        2.77961428323490
C           47.17750298127507        8.48606405365946        3.30830377268147
N           47.17667491439177        9.55419222848091        3.73622326713691
C           48.03115957196730        6.83038411005276        1.72201022810793
C           48.03589224387655        5.54332478185851        1.21538237739415
C           46.02293311017348        2.66216388135562        0.68611730465295
C           44.78791310041762        3.37986293986608        0.58970200546257
C           43.83802523097482        2.47625887874821        0.24615361462317
C           44.49899799985607        1.21623293690295        0.12060514212411
N           45.84341345432944        1.34722422804654        0.32264614913947
H           42.81758226011096       -2.64273103065536       -0.18886196992590
H           44.73098515540734       -4.41698005483260       -0.88054657543098
H           45.74572948324566       -4.10232673601506       -3.33551202396489
H           45.75703315773928       -6.39216557629348       -4.25682963220622
H           48.77920297187156       -7.51164910558079       -1.42267832259881
H           48.75649597424565       -5.22296658569133       -0.49911961312986
H           49.77116670599149       -3.74884714937376       -2.46106542187042
H           51.66256518130714       -1.98079769853761       -1.69952953649975
H           51.61709392192174        2.06144737345479        1.69747022037495
H           49.70262972684735        3.83062160208270        2.39865227083645
H           45.68644531458329        4.15116010482177        3.22497747322678
H           45.67383202796463        6.44445527167655        4.13782933960444
H           48.68633846017224        7.58414208842524        1.30136698606874
H           48.68940623549650        5.29079035839469        0.38806725469122
H           44.67271063670830        4.43646588936508        0.76828198140872
H           42.78194427977053        2.63152291025066        0.09534993469637

          :  Hamiltonian                  GFN1-xTB          :
         :: total energy            -327.052564161601 Eh    ::
         :: gradient norm              0.000879720603 Eh/a0 ::
         :: HOMO-LUMO gap              0.005079809962 eV    ::
         :: SCC energy              -332.614978603440 Eh    ::
         :: repulsion energy           5.730021016055 Eh    ::

    * Orbital Energies and Occupations

         #    Occupation            Energy/Eh            Energy/eV
      -------------------------------------------------------------
         1        2.0000           -0.7872380             -21.4218
       ...           ...                  ...                  ...
       292        2.0000           -0.4091951             -11.1348
       293        2.0000           -0.4089573             -11.1283
       294        2.0000           -0.4085329             -11.1167
       295        1.9998           -0.4059797             -11.0473
       296        1.9998           -0.4058359             -11.0434
       297        1.9998           -0.4055908             -11.0367
       298        1.9997           -0.4054562             -11.0330
       299        1.9997           -0.4053388             -11.0298
       300        1.9996           -0.4051789             -11.0255
       301        1.9976           -0.4034174             -10.9775
       302        1.8031           -0.3990872             -10.8597
       303        1.1222           -0.3970966             -10.8055
       304        1.0839           -0.3970157             -10.8033 (HOMO)
       305        0.9947           -0.3968290             -10.7983 (LUMO)
       306                         -0.3555449              -9.6749
       307                         -0.3451977              -9.3933
       308                         -0.3449609              -9.3869
       309                         -0.3432206              -9.3395
       310                         -0.3412891              -9.2869
       311                         -0.3402069              -9.2575
       312                         -0.3212560              -8.7418
       313                         -0.3150997              -8.5743
       314                         -0.3140853              -8.5467
       315                         -0.3082595              -8.3882
       ...                                ...                  ...
       639                          1.5026431              40.8890
      -------------------------------------------------------------
                  HL-Gap            0.0001867 Eh            0.0051 eV

Wiberg/Mayer (AO) data.
largest (>0.10) Wiberg bond orders for each atom

     #   Z sym  total        # sym  WBO       # sym  WBO       # sym  WBO
 ---------------------------------------------------------------------------
     1  27 Co   3.029 --    41 N    0.637     7 N    0.637    20 N    0.632
                            27 N    0.631
     2   6 C    3.926 --    40 C    1.366     3 C    1.364    42 H    0.969
     3   6 C    3.923 --     2 C    1.364     7 N    1.200     4 C    1.175
     4   6 C    3.958 --     5 C    1.648     3 C    1.175    43 H    0.975
     5   6 C    3.963 --     4 C    1.648     6 C    1.176    44 H    0.973
     6   6 C    3.920 --     8 C    1.316     7 N    1.213     5 C    1.176
     7   7 N    3.344 --     6 C    1.213     3 C    1.200     1 Co   0.637
     8   6 C    3.929 --    17 C    1.329     6 C    1.316     9 C    1.034
     9   6 C    3.963 --    10 C    1.384    16 C    1.384     8 C    1.034
    10   6 C    3.987 --    11 C    1.464     9 C    1.384    45 H    0.971
                            15 C    0.102
    11   6 C    3.993 --    10 C    1.464    12 C    1.364    46 H    0.972
                            16 C    0.102
    12   6 C    3.984 --    11 C    1.364    15 C    1.364    13 C    1.098
    13   6 C    3.958 --    14 N    2.820    12 C    1.098
    14   7 N    2.973 --    13 C    2.820
    15   6 C    3.993 --    16 C    1.464    12 C    1.364    47 H    0.972
                            10 C    0.102
    16   6 C    3.986 --    15 C    1.464     9 C    1.384    48 H    0.971
                            11 C    0.102
    17   6 C    3.916 --     8 C    1.329    20 N    1.195    18 C    1.181
    18   6 C    3.958 --    19 C    1.636    17 C    1.181    49 H    0.973
    19   6 C    3.961 --    18 C    1.636    21 C    1.190    50 H    0.973
    20   7 N    3.345 --    21 C    1.230    17 C    1.195     1 Co   0.632
    21   6 C    3.903 --    22 C    1.259    20 N    1.230    19 C    1.190
    22   6 C    3.930 --    21 C    1.259    23 C    1.257   118 C    1.193
    23   6 C    3.903 --    22 C    1.257    27 N    1.232    24 C    1.190
    24   6 C    3.961 --    25 C    1.637    23 C    1.190    51 H    0.973
    25   6 C    3.957 --    24 C    1.637    26 C    1.181    52 H    0.973
    26   6 C    3.916 --    28 C    1.332    27 N    1.192    25 C    1.181
    27   7 N    3.345 --    23 C    1.232    26 C    1.192     1 Co   0.631
    28   6 C    3.929 --    26 C    1.332    37 C    1.314    29 C    1.033
    29   6 C    3.963 --    30 C    1.384    36 C    1.384    28 C    1.033
    30   6 C    3.987 --    31 C    1.464    29 C    1.384    53 H    0.971
                            35 C    0.102
    31   6 C    3.993 --    30 C    1.464    32 C    1.364    54 H    0.972
                            36 C    0.102
    32   6 C    3.984 --    35 C    1.364    31 C    1.364    33 C    1.098
    33   6 C    3.958 --    34 N    2.820    32 C    1.098
    34   7 N    2.973 --    33 C    2.820
    35   6 C    3.993 --    36 C    1.464    32 C    1.364    55 H    0.972
                            30 C    0.102
    36   6 C    3.987 --    35 C    1.464    29 C    1.384    56 H    0.971
                            31 C    0.102
    37   6 C    3.919 --    28 C    1.314    41 N    1.215    38 C    1.176
    38   6 C    3.963 --    39 C    1.649    37 C    1.176    57 H    0.973
    39   6 C    3.959 --    38 C    1.649    40 C    1.174    58 H    0.975
    40   6 C    3.923 --     2 C    1.366    41 N    1.198    39 C    1.174
    41   7 N    3.345 --    37 C    1.215    40 C    1.198     1 Co   0.637
    42   1 H    0.999 --     2 C    0.969
    43   1 H    0.997 --     4 C    0.975
    44   1 H    1.003 --     5 C    0.973
    45   1 H    1.004 --    10 C    0.971
    46   1 H    1.000 --    11 C    0.972
    47   1 H    1.000 --    15 C    0.972
    48   1 H    1.004 --    16 C    0.971
    49   1 H    1.003 --    18 C    0.973
    50   1 H    1.001 --    19 C    0.973
    51   1 H    1.001 --    24 C    0.973
    52   1 H    1.003 --    25 C    0.973
    53   1 H    1.003 --    30 C    0.971
    54   1 H    1.000 --    31 C    0.972
    55   1 H    1.000 --    35 C    0.972
    56   1 H    1.004 --    36 C    0.971
    57   1 H    1.003 --    38 C    0.973
    58   1 H    0.997 --    39 C    0.975
    59  27 Co   3.034 --    99 N    0.641    65 N    0.641    78 N    0.636
                            85 N    0.636
    60   6 C    3.934 --    98 C    1.368    61 C    1.365   100 H    0.969
    61   6 C    3.923 --    60 C    1.365    65 N    1.200    62 C    1.174
    62   6 C    3.960 --    63 C    1.650    61 C    1.174   101 H    0.975
    63   6 C    3.963 --    62 C    1.650    64 C    1.175   102 H    0.973
    64   6 C    3.920 --    66 C    1.322    65 N    1.210    63 C    1.175
    65   7 N    3.350 --    64 C    1.210    61 C    1.200    59 Co   0.641
    66   6 C    3.937 --    75 C    1.327    64 C    1.322    67 C    1.032
    67   6 C    3.963 --    68 C    1.385    74 C    1.385    66 C    1.032
    68   6 C    3.987 --    69 C    1.464    67 C    1.385   103 H    0.971
                            73 C    0.102
    69   6 C    3.993 --    68 C    1.464    70 C    1.364   104 H    0.972
                            74 C    0.102
    70   6 C    3.984 --    69 C    1.364    73 C    1.364    71 C    1.098
    71   6 C    3.958 --    72 N    2.820    70 C    1.098
    72   7 N    2.973 --    71 C    2.820
    73   6 C    3.993 --    74 C    1.464    70 C    1.364   105 H    0.972
                            68 C    0.102
    74   6 C    3.988 --    73 C    1.464    67 C    1.385   106 H    0.971
                            69 C    0.102
    75   6 C    3.916 --    66 C    1.327    78 N    1.197    76 C    1.181
    76   6 C    3.959 --    77 C    1.638    75 C    1.181   107 H    0.973
    77   6 C    3.961 --    76 C    1.638    79 C    1.188   108 H    0.973
    78   7 N    3.352 --    79 C    1.223    75 C    1.197    59 Co   0.636
    79   6 C    3.906 --    80 C    1.270    78 N    1.223    77 C    1.188
    80   6 C    3.940 --    79 C    1.270    81 C    1.268   124 C    1.174
    81   6 C    3.906 --    80 C    1.268    85 N    1.225    82 C    1.189
    82   6 C    3.961 --    83 C    1.638    81 C    1.189   109 H    0.973
    83   6 C    3.959 --    82 C    1.638    84 C    1.180   110 H    0.973
    84   6 C    3.916 --    86 C    1.330    85 N    1.195    83 C    1.180
    85   7 N    3.351 --    81 C    1.225    84 C    1.195    59 Co   0.636
    86   6 C    3.937 --    84 C    1.330    95 C    1.319    87 C    1.031
    87   6 C    3.963 --    88 C    1.385    94 C    1.385    86 C    1.031
    88   6 C    3.987 --    89 C    1.464    87 C    1.385   111 H    0.971
                            93 C    0.102
    89   6 C    3.993 --    88 C    1.464    90 C    1.364   112 H    0.972
                            94 C    0.102
    90   6 C    3.984 --    89 C    1.364    93 C    1.364    91 C    1.098
    91   6 C    3.958 --    92 N    2.820    90 C    1.098
    92   7 N    2.973 --    91 C    2.820
    93   6 C    3.993 --    94 C    1.464    90 C    1.364   113 H    0.972
                            88 C    0.102
    94   6 C    3.988 --    93 C    1.464    87 C    1.385   114 H    0.971
                            89 C    0.102
    95   6 C    3.920 --    86 C    1.319    99 N    1.212    96 C    1.175
    96   6 C    3.963 --    97 C    1.650    95 C    1.175   115 H    0.973
    97   6 C    3.960 --    96 C    1.650    98 C    1.173   116 H    0.975
    98   6 C    3.923 --    60 C    1.368    99 N    1.198    97 C    1.173
    99   7 N    3.350 --    95 C    1.212    98 C    1.198    59 Co   0.641
   100   1 H    1.000 --    60 C    0.969
   101   1 H    0.997 --    62 C    0.975
   102   1 H    1.003 --    63 C    0.973
   103   1 H    1.004 --    68 C    0.971
   104   1 H    1.000 --    69 C    0.972
   105   1 H    1.000 --    73 C    0.972
   106   1 H    1.003 --    74 C    0.971
   107   1 H    1.003 --    76 C    0.973
   108   1 H    1.001 --    77 C    0.973
   109   1 H    1.001 --    82 C    0.973
   110   1 H    1.003 --    83 C    0.973
   111   1 H    1.003 --    88 C    0.971
   112   1 H    1.000 --    89 C    0.972
   113   1 H    1.000 --    93 C    0.972
   114   1 H    1.004 --    94 C    0.971
   115   1 H    1.003 --    96 C    0.973
   116   1 H    0.997 --    97 C    0.975
   117   6 C    3.929 --   118 C    2.464   119 C    1.316
   118   6 C    3.916 --   117 C    2.464    22 C    1.193   120 C    0.197
   119   6 C    3.925 --   120 C    2.461   117 C    1.316
   120   6 C    3.920 --   119 C    2.461   126 C    1.197   118 C    0.197
   121   6 C    3.926 --   122 C    2.481   123 C    1.299
   122   6 C    3.919 --   121 C    2.481   146 C    1.180   124 C    0.196
   123   6 C    3.933 --   124 C    2.485   121 C    1.299
   124   6 C    3.914 --   123 C    2.485    80 C    1.174   122 C    0.196
   125  27 Co   3.046 --   144 N    0.633   165 N    0.632   151 N    0.628
                           131 N    0.627
   126   6 C    3.922 --   164 C    1.255   127 C    1.254   120 C    1.197
   127   6 C    3.905 --   126 C    1.254   131 N    1.233   128 C    1.192
   128   6 C    3.960 --   129 C    1.633   127 C    1.192   166 H    0.974
   129   6 C    3.959 --   128 C    1.633   130 C    1.184   167 H    0.973
   130   6 C    3.915 --   132 C    1.323   131 N    1.196   129 C    1.184
   131   7 N    3.340 --   127 C    1.233   130 C    1.196   125 Co   0.627
   132   6 C    3.927 --   130 C    1.323   141 C    1.320   133 C    1.034
   133   6 C    3.963 --   134 C    1.384   140 C    1.383   132 C    1.034
   134   6 C    3.985 --   135 C    1.464   133 C    1.384   168 H    0.971
                           139 C    0.102
   135   6 C    3.993 --   134 C    1.464   136 C    1.364   169 H    0.972
                           140 C    0.102
   136   6 C    3.984 --   135 C    1.364   139 C    1.364   137 C    1.098
   137   6 C    3.958 --   138 N    2.821   136 C    1.098
   138   7 N    2.973 --   137 C    2.821
   139   6 C    3.993 --   140 C    1.464   136 C    1.364   170 H    0.972
                           134 C    0.102
   140   6 C    3.987 --   139 C    1.464   133 C    1.383   171 H    0.971
                           135 C    0.102
   141   6 C    3.914 --   132 C    1.320   144 N    1.200   142 C    1.183
   142   6 C    3.961 --   143 C    1.635   141 C    1.183   172 H    0.973
   143   6 C    3.959 --   142 C    1.635   145 C    1.191   173 H    0.973
   144   7 N    3.340 --   145 C    1.228   141 C    1.200   125 Co   0.633
   145   6 C    3.907 --   146 C    1.263   144 N    1.228   143 C    1.191
   146   6 C    3.924 --   145 C    1.263   147 C    1.262   122 C    1.180
   147   6 C    3.907 --   146 C    1.262   151 N    1.228   148 C    1.192
   148   6 C    3.960 --   149 C    1.633   147 C    1.192   174 H    0.973
   149   6 C    3.960 --   148 C    1.633   150 C    1.185   175 H    0.973
   150   6 C    3.914 --   152 C    1.317   151 N    1.201   149 C    1.185
   151   7 N    3.341 --   147 C    1.228   150 C    1.201   125 Co   0.628
   152   6 C    3.927 --   161 C    1.327   150 C    1.317   153 C    1.034
   153   6 C    3.963 --   154 C    1.384   160 C    1.384   152 C    1.034
   154   6 C    3.987 --   155 C    1.464   153 C    1.384   176 H    0.971
                           159 C    0.102
   155   6 C    3.993 --   154 C    1.464   156 C    1.364   177 H    0.972
                           160 C    0.102
   156   6 C    3.984 --   155 C    1.364   159 C    1.364   157 C    1.098
   157   6 C    3.958 --   158 N    2.821   156 C    1.098
   158   7 N    2.973 --   157 C    2.821
   159   6 C    3.993 --   160 C    1.464   156 C    1.364   178 H    0.972
                           154 C    0.102
   160   6 C    3.987 --   159 C    1.464   153 C    1.384   179 H    0.971
                           155 C    0.102
   161   6 C    3.915 --   152 C    1.327   165 N    1.194   162 C    1.183
   162   6 C    3.959 --   163 C    1.635   161 C    1.183   180 H    0.973
   163   6 C    3.960 --   162 C    1.635   164 C    1.191   181 H    0.973
   164   6 C    3.904 --   126 C    1.255   165 N    1.234   163 C    1.191
   165   7 N    3.339 --   164 C    1.234   161 C    1.194   125 Co   0.632
   166   1 H    1.001 --   128 C    0.974
   167   1 H    1.003 --   129 C    0.973
   168   1 H    1.004 --   134 C    0.971
   169   1 H    1.000 --   135 C    0.972
   170   1 H    1.000 --   139 C    0.972
   171   1 H    1.004 --   140 C    0.971
   172   1 H    1.003 --   142 C    0.973
   173   1 H    1.001 --   143 C    0.973
   174   1 H    1.001 --   148 C    0.973
   175   1 H    1.003 --   149 C    0.973
   176   1 H    1.004 --   154 C    0.971
   177   1 H    1.000 --   155 C    0.972
   178   1 H    1.000 --   159 C    0.972
   179   1 H    1.003 --   160 C    0.971
   180   1 H    1.003 --   162 C    0.973
   181   1 H    1.001 --   163 C    0.973
 ---------------------------------------------------------------------------

           -------------------------------------------------
          | TOTAL ENERGY             -327.052564161601 Eh   |
          | GRADIENT NORM               0.000879720603 Eh/α |
          | HOMO-LUMO GAP               0.005079809962 eV   |
           -------------------------------------------------

 * finished run on 2022/07/30 at 08:32:00.541
