   * xtb version 6.5.1 (b24c23e) compiled by 'conda@728c89f4b128' on 2022-07-12
          program call               : xtb Cu_H_C8_3.xyz --gfn 1 --opt -T 48

   ID    Z sym.   atoms
    1   29 Cu     1, 37, 89
    2    6 C      2-6, 8-11, 13-18, 20-24, 38-42, 44-47, 49-54, 56-60, 73-88,
                  90-94, 96-99, 101-106, 108-112
    3    7 N      7, 12, 19, 25, 43, 48, 55, 61, 95, 100, 107, 113
    4    1 H      26-36, 62-72, 114-123

          :  Hamiltonian                  GFN1-xTB          :
 * total energy  :  -226.3810578 Eh     change        0.5243805E-09 Eh
 * total energy  :  -228.3258948 Eh     change       -0.1944837E+01 Eh
 * total energy  :  -228.6443444 Eh     change       -0.3184496E+00 Eh
 * total energy  :  -228.7748495 Eh     change       -0.1305051E+00 Eh
 * total energy  :  -228.8505991 Eh     change       -0.7574962E-01 Eh
 * total energy  :  -228.9063570 Eh     change       -0.5575788E-01 Eh
 * total energy  :  -228.9628904 Eh     change       -0.5653339E-01 Eh
 * total energy  :  -229.0294208 Eh     change       -0.6653045E-01 Eh
 * total energy  :  -229.0962315 Eh     change       -0.6681065E-01 Eh
 * total energy  :  -229.1460157 Eh     change       -0.4978421E-01 Eh
 * total energy  :  -229.3268484 Eh     change       -0.2246961E-02 Eh
 * total energy  :  -229.3284314 Eh     change       -0.1582983E-02 Eh
 * total energy  :  -229.3294421 Eh     change       -0.1010692E-02 Eh
 * total energy  :  -229.3299642 Eh     change       -0.5220998E-03 Eh
 * total energy  :  -229.3301095 Eh     change       -0.1453430E-03 Eh
 * total energy  :  -229.3301131 Eh     change       -0.3632259E-05 Eh
 * total energy  :  -229.3301245 Eh     change       -0.1131962E-04 Eh
 * total energy  :  -229.3301289 Eh     change       -0.4431264E-05 Eh
 * total energy  :  -229.3301323 Eh     change       -0.3427131E-05 Eh
   *** GEOMETRY OPTIMIZATION CONVERGED AFTER 43 ITERATIONS ***

 final structure:
================
123
 xtb: 6.5.1 (b24c23e)
Cu          11.00563911320330       -0.01699928819829       -0.01512454207225
C            7.58137370784802       -0.04849050588133       -0.04779492280130
C            8.22692831171484       -0.91524216383945       -0.91813320724861
C            7.57001829877143       -1.81710894670085       -1.82432658690334
C            8.54261175178499       -2.48426737245009       -2.49386489422684
C            9.80144489897859       -1.99547305855015       -2.00221493291719
N            9.57912980549713       -1.04552123540481       -1.04831260491138
C           11.04795559504478       -2.42609960314882       -2.43378078088143
C           12.27771312209218       -1.97421122299285       -1.97947345595018
C           13.54946396214586       -2.44353418821127       -2.45013473440564
C           14.50121206604316       -1.76043034256867       -1.76472215433023
N           12.47327200262498       -1.01764449218724       -1.01944551714501
C           13.81663876166225       -0.87059854328670       -0.87181850232350
C           14.45282292356797        0.01548786238666        0.01686647388721
C           13.78429921717944        0.88880398924609        0.89407639967472
C           14.43524631779375        1.79063056985567        1.79995160870396
C           13.45813988377270        2.45501392743658        2.46795642873471
C           12.20438183736379        1.96246407074406        1.97321763429152
N           12.43580059198259        1.01049885463409        1.01667297428209
C           10.95793948001469        2.39133291081334        2.40394449816413
C            9.72800889362671        1.93820075659455        1.94842982383640
C            8.45124035699258        2.40394643936659        2.41570592133099
C            7.50397609717632        1.71933596575795        1.72774232922946
C            8.19442796476775        0.82968446860475        0.83450868376323
N            9.54131460960948        0.98454660698376        0.99057501741990
H            6.49639510693229       -0.05832832358510       -0.05810967240708
H            6.50019982235317       -1.91493764208074       -1.92318314757344
H            8.43430117458847       -3.24154165201225       -3.25457075983075
H           11.06260856805909       -3.19188665230719       -3.20259941369995
H           13.68270601662180       -3.19919157491643       -3.20823202226390
H           15.57336056433304       -1.84259466154044       -1.84698109823842
H           15.50398831514080        1.89254963576098        1.90221827720755
H           13.56294053955972        3.21221448416584        3.22899309924144
H           10.94364954152122        3.15689399182919        3.17300148126449
H            8.31451861776819        3.15905893370178        3.17397347145256
H            6.43084067545165        1.79765759415544        1.80595329245625
Cu          48.29567594541454        0.00311311513460       -0.00850274705712
C           51.71981115096411        0.05460720115586       -0.00762827105768
C           51.07205093237162        1.28020861431325       -0.06889642040857
C           51.72668286421669        2.55836794036514       -0.13120526404612
C           50.75242362639054        3.50066907503282       -0.17766267966030
C           49.49479306567272        2.80594836288982       -0.14425539522124
N           49.71951777989273        1.46171315431325       -0.07864468038054
C           48.24723167948115        3.41266362756618       -0.17408966448669
C           47.01860625186774        2.77037641469836       -0.14337804582158
C           45.74564296136155        3.43200071458607       -0.17650527670217
C           44.79560123228232        2.46377393333021       -0.13062500304460
N           46.82549208996588        1.41646046869037       -0.07791699068352
C           45.48236203312320        1.20581621951330       -0.06921372200377
C           44.84870770147604       -0.04883208403410       -0.01168522392217
C           45.51931463803786       -1.28386007981558        0.04727200669530
C           44.87062357545083       -2.56188213729126        0.10769301321369
C           45.84935234496856       -3.50099849256971        0.15654178804583
C           47.10191322884410       -2.80131795192544        0.12591251093067
N           46.86821096882909       -1.45392487068154        0.05913280264328
C           48.34938144939122       -3.40614590674993        0.15939785407680
C           49.57814788976741       -2.76213503910075        0.13032777198152
C           50.85609502910373       -3.41872562868183        0.16504678254509
C           51.80163689025902       -2.44766410453941        0.11770822698768
C           51.10896466713518       -1.18978735166214        0.05397096616276
N           49.76246838902364       -1.41181959898422        0.06343975514452
H           52.80476264005409        0.07081591393243       -0.00759740846638
H           52.79625482196315        2.69920090301923       -0.13759043959773
H           50.85881873552388        4.57296237633584       -0.22995675394431
H           48.23064043883330        4.49648579182703       -0.22677239545383
H           45.61057072348697        4.50089845474915       -0.22850717113356
H           43.72325031221355        2.57796428291217       -0.13745039794178
H           43.80214010594601       -2.70811210208817        0.11189419082506
H           45.74646254679590       -4.57346452937337        0.20886301976577
H           48.36550480374116       -4.48992240126509        0.21320049771366
H           50.99468004358395       -4.48726660342978        0.21865208296224
H           52.87496342941034       -2.55626155702828        0.12449234491054
C           15.85802217456040        0.02796526964691        0.02655257939455
C           17.08251881347107        0.03666438839471        0.03141220226492
C           18.42546769910896        0.03882551914654        0.03070470854240
C           19.65605504718708        0.03332822082983        0.03576006785472
C           20.99407955786748        0.02541897512289        0.02714463265652
C           22.22468949159647        0.01600470674711        0.02018859964352
C           23.56729418123973        0.00746176684700        0.00983657212734
C           24.79189937710430       -0.00210186764231        0.00059142913078
C           34.50870648121139       -0.05888999813606       -0.02761554804237
C           35.73318206815705       -0.06817082448626       -0.02663755242442
C           37.07618807658176       -0.07757710837337       -0.02322896945916
C           38.30668840236476       -0.08342900694169       -0.02177455682825
C           39.64509503252048       -0.08595727150377       -0.01681428391861
C           40.87553079435467       -0.08597802558509       -0.01534372907494
C           42.21882139287447       -0.07851634385879       -0.01221350798321
C           43.44304863627269       -0.06797016486670       -0.01338429305473
Cu          29.65010768961994       -0.02674414305242       -0.01949431239851
C           26.19643690568313       -0.01068001346252       -0.00534603705777
C           26.85732651920502        0.91795717285621        0.82051879126572
C           26.19844158501127        1.87051083314250        1.66671096643093
C           27.17007997418916        2.58003423673878        2.29561729290010
C           28.42737786293166        2.06380478972737        1.83620429602504
N           28.20407621857528        1.05370934728075        0.93994073054909
C           29.67119577480750        2.52341115956624        2.24283243485722
C           30.90735801631204        2.05267310271026        1.82550918772979
C           32.17308755086098        2.55732974723811        2.27455956323850
C           33.13298408429726        1.83754253159812        1.63933303947717
N           31.11392120378889        1.03990676154687        0.92837719651501
C           32.45845334966770        0.89042659451390        0.79931894879539
C           33.10363273297418       -0.04830304568922       -0.02721825993418
C           32.44312681255582       -0.97683733272106       -0.85309515046319
C           33.10201686248689       -1.92976327229553       -1.69890326560634
C           32.13036716149198       -2.63525172242980       -2.33231558105148
C           30.87302504193203       -2.11663311455708       -1.87560629050952
N           31.09625852215790       -1.10893849268856       -0.97677184527372
C           29.62913290278242       -2.57261444852837       -2.28637591925275
C           28.39292323314900       -2.10178574984718       -1.86936200659150
C           27.12718219992509       -2.60550213085866       -2.31947288476423
C           26.16723154503655       -1.88883986118840       -1.68072920344005
C           26.84170641563563       -0.94423818041120       -0.83792026878338
N           28.18618773442140       -1.09166159581195       -0.96916123805372
H           25.12891555296314        1.97349693999357        1.75913438301769
H           27.05881740693810        3.38233463873337        3.00795095424369
H           29.67792211474873        3.33548325600515        2.96297720960057
H           32.29746978386438        3.35931195166523        2.98508630882070
H           34.20413941392807        1.93008090271825        1.72361749623867
H           34.17156751681750       -2.03517541073202       -1.78837159227453
H           32.24166873373026       -3.43631639832900       -3.04603790383680
H           29.62248152249746       -3.38277605373029       -3.00868017448760
H           27.00281024794347       -3.40522563416405       -3.03255180206312
H           25.09605808015234       -1.98203431840885       -1.76415254300676

          :  Hamiltonian                  GFN1-xTB          :
         :: total energy            -229.330132322747 Eh    ::
         :: gradient norm              0.000763478998 Eh/a0 ::
         :: HOMO-LUMO gap              0.000015179878 eV    ::
         :: SCC energy              -233.183629077148 Eh    ::
         :: repulsion energy           3.957033798132 Eh    ::

    * Orbital Energies and Occupations

         #    Occupation            Energy/Eh            Energy/eV
      -------------------------------------------------------------
         1        2.0000           -0.7656784             -20.8352
       ...           ...                  ...                  ...
       203        2.0000           -0.4089755             -11.1288
       204        2.0000           -0.4088818             -11.1262
       205        2.0000           -0.4087718             -11.1232
       206        2.0000           -0.4075080             -11.0889
       207        2.0000           -0.4067975             -11.0695
       208        2.0000           -0.3968767             -10.7996
       209        2.0000           -0.3968607             -10.7991
       210        2.0000           -0.3966127             -10.7924
       211        2.0000           -0.3926098             -10.6835
       212        2.0000           -0.3880847             -10.5603
       213        2.0000           -0.3812699             -10.3749
       214        1.0236           -0.3565986              -9.7035
       215        0.9883           -0.3565233              -9.7015 (HOMO)
       216        0.9881           -0.3565227              -9.7015 (LUMO)
       217        0.0000           -0.3422076              -9.3119
       218                         -0.3351169              -9.1190
       219                         -0.3304760              -8.9927
       220                         -0.3288803              -8.9493
       221                         -0.3288663              -8.9489
       222                         -0.3283411              -8.9346
       223                         -0.3080518              -8.3825
       224                         -0.3007143              -8.1829
       225                         -0.2994886              -8.1495
       226                         -0.2962185              -8.0605
       ...                                ...                  ...
       443                          1.6064016              43.7124
      -------------------------------------------------------------
                  HL-Gap            0.0000006 Eh            0.0000 eV

Wiberg/Mayer (AO) data.
largest (>0.10) Wiberg bond orders for each atom

     #   Z sym  total        # sym  WBO       # sym  WBO       # sym  WBO
 ---------------------------------------------------------------------------
     1  29 Cu   2.194 --    25 N    0.507     7 N    0.507    12 N    0.504
                            19 N    0.504
     2   6 C    3.934 --    24 C    1.362     3 C    1.362    26 H    0.972
     3   6 C    3.917 --     2 C    1.362     7 N    1.234     4 C    1.166
     4   6 C    3.955 --     5 C    1.662     3 C    1.166    27 H    0.976
     5   6 C    3.957 --     4 C    1.662     6 C    1.167    28 H    0.976
     6   6 C    3.914 --     8 C    1.359     7 N    1.234     5 C    1.167
     7   7 N    3.247 --     3 C    1.234     6 C    1.234     1 Cu   0.507
     8   6 C    3.940 --     9 C    1.368     6 C    1.359    29 H    0.971
     9   6 C    3.909 --     8 C    1.368    12 N    1.216    10 C    1.173
    10   6 C    3.953 --    11 C    1.649     9 C    1.173    30 H    0.976
    11   6 C    3.956 --    10 C    1.649    13 C    1.181    31 H    0.974
    12   7 N    3.252 --    13 C    1.262     9 C    1.216     1 Cu   0.504
    13   6 C    3.896 --    12 N    1.262    14 C    1.259    11 C    1.181
    14   6 C    3.944 --    15 C    1.259    13 C    1.259    73 C    1.190
    15   6 C    3.896 --    19 N    1.262    14 C    1.259    16 C    1.181
    16   6 C    3.956 --    17 C    1.649    15 C    1.181    32 H    0.974
    17   6 C    3.953 --    16 C    1.649    18 C    1.173    33 H    0.976
    18   6 C    3.909 --    20 C    1.368    19 N    1.216    17 C    1.173
    19   7 N    3.251 --    15 C    1.262    18 C    1.216     1 Cu   0.504
    20   6 C    3.940 --    18 C    1.368    21 C    1.360    34 H    0.971
    21   6 C    3.914 --    20 C    1.360    25 N    1.234    22 C    1.167
    22   6 C    3.957 --    23 C    1.662    21 C    1.167    35 H    0.976
    23   6 C    3.955 --    22 C    1.662    24 C    1.166    36 H    0.976
    24   6 C    3.917 --     2 C    1.362    25 N    1.234    23 C    1.166
    25   7 N    3.247 --    24 C    1.234    21 C    1.234     1 Cu   0.507
    26   1 H    1.001 --     2 C    0.972
    27   1 H    0.998 --     4 C    0.976
    28   1 H    0.998 --     5 C    0.976
    29   1 H    1.001 --     8 C    0.971
    30   1 H    0.998 --    10 C    0.976
    31   1 H    1.002 --    11 C    0.974
    32   1 H    1.002 --    16 C    0.974
    33   1 H    0.998 --    17 C    0.976
    34   1 H    1.001 --    20 C    0.971
    35   1 H    0.998 --    22 C    0.976
    36   1 H    0.998 --    23 C    0.976
    37  29 Cu   2.195 --    61 N    0.507    43 N    0.507    48 N    0.504
                            55 N    0.504
    38   6 C    3.935 --    60 C    1.362    39 C    1.362    62 H    0.972
    39   6 C    3.917 --    38 C    1.362    43 N    1.234    40 C    1.166
    40   6 C    3.955 --    41 C    1.662    39 C    1.166    63 H    0.976
    41   6 C    3.957 --    40 C    1.662    42 C    1.167    64 H    0.976
    42   6 C    3.914 --    44 C    1.360    43 N    1.234    41 C    1.167
    43   7 N    3.248 --    39 C    1.234    42 C    1.234    37 Cu   0.507
    44   6 C    3.940 --    45 C    1.368    42 C    1.360    65 H    0.971
    45   6 C    3.909 --    44 C    1.368    48 N    1.216    46 C    1.173
    46   6 C    3.954 --    47 C    1.650    45 C    1.173    66 H    0.976
    47   6 C    3.956 --    46 C    1.650    49 C    1.181    67 H    0.974
    48   7 N    3.252 --    49 C    1.261    45 C    1.216    37 Cu   0.504
    49   6 C    3.897 --    48 N    1.261    50 C    1.260    47 C    1.181
    50   6 C    3.945 --    51 C    1.260    49 C    1.260    88 C    1.188
    51   6 C    3.897 --    55 N    1.261    50 C    1.260    52 C    1.181
    52   6 C    3.956 --    53 C    1.650    51 C    1.181    68 H    0.974
    53   6 C    3.954 --    52 C    1.650    54 C    1.173    69 H    0.976
    54   6 C    3.909 --    56 C    1.368    55 N    1.216    53 C    1.173
    55   7 N    3.252 --    51 C    1.261    54 C    1.216    37 Cu   0.504
    56   6 C    3.940 --    54 C    1.368    57 C    1.360    70 H    0.971
    57   6 C    3.914 --    56 C    1.360    61 N    1.233    58 C    1.167
    58   6 C    3.957 --    59 C    1.662    57 C    1.167    71 H    0.976
    59   6 C    3.955 --    58 C    1.662    60 C    1.166    72 H    0.976
    60   6 C    3.917 --    38 C    1.362    61 N    1.234    59 C    1.166
    61   7 N    3.248 --    60 C    1.234    57 C    1.233    37 Cu   0.507
    62   1 H    1.001 --    38 C    0.972
    63   1 H    0.998 --    40 C    0.976
    64   1 H    0.998 --    41 C    0.976
    65   1 H    1.001 --    44 C    0.971
    66   1 H    0.998 --    46 C    0.976
    67   1 H    1.002 --    47 C    0.974
    68   1 H    1.002 --    52 C    0.974
    69   1 H    0.998 --    53 C    0.976
    70   1 H    1.001 --    56 C    0.971
    71   1 H    0.998 --    58 C    0.976
    72   1 H    0.998 --    59 C    0.976
    73   6 C    3.877 --    74 C    2.442    14 C    1.190    76 C    0.187
    74   6 C    3.937 --    73 C    2.442    75 C    1.343
    75   6 C    3.893 --    76 C    2.338    74 C    1.343    78 C    0.182
    76   6 C    3.927 --    75 C    2.338    77 C    1.368    73 C    0.187
    77   6 C    3.925 --    78 C    2.337    76 C    1.368    80 C    0.187
    78   6 C    3.894 --    77 C    2.337    79 C    1.344    75 C    0.182
    79   6 C    3.934 --    80 C    2.439    78 C    1.344
    80   6 C    3.878 --    79 C    2.439    90 C    1.193    77 C    0.187
    81   6 C    3.877 --    82 C    2.441   102 C    1.191    84 C    0.187
    82   6 C    3.934 --    81 C    2.441    83 C    1.342
    83   6 C    3.894 --    84 C    2.339    82 C    1.342    86 C    0.182
    84   6 C    3.925 --    83 C    2.339    85 C    1.366    81 C    0.187
    85   6 C    3.926 --    86 C    2.340    84 C    1.366    88 C    0.187
    86   6 C    3.893 --    85 C    2.340    87 C    1.341    83 C    0.182
    87   6 C    3.937 --    88 C    2.444    86 C    1.341
    88   6 C    3.877 --    87 C    2.444    50 C    1.188    85 C    0.187
    89  29 Cu   2.161 --   113 N    0.498   107 N    0.498    95 N    0.498
                           100 N    0.498
    90   6 C    3.933 --   112 C    1.256    91 C    1.256    80 C    1.193
    91   6 C    3.897 --    95 N    1.265    90 C    1.256    92 C    1.182
    92   6 C    3.955 --    93 C    1.648    91 C    1.182   114 H    0.974
    93   6 C    3.954 --    92 C    1.648    94 C    1.175   115 H    0.976
    94   6 C    3.907 --    96 C    1.365    95 N    1.217    93 C    1.175
    95   7 N    3.244 --    91 C    1.265    94 C    1.217    89 Cu   0.498
    96   6 C    3.936 --    94 C    1.365    97 C    1.364   116 H    0.971
    97   6 C    3.907 --    96 C    1.364   100 N    1.217    98 C    1.174
    98   6 C    3.954 --    99 C    1.648    97 C    1.174   117 H    0.976
    99   6 C    3.955 --    98 C    1.648   101 C    1.182   118 H    0.974
   100   7 N    3.244 --   101 C    1.264    97 C    1.217    89 Cu   0.498
   101   6 C    3.897 --   100 N    1.264   102 C    1.257    99 C    1.182
   102   6 C    3.933 --   103 C    1.257   101 C    1.257    81 C    1.191
   103   6 C    3.897 --   107 N    1.264   102 C    1.257   104 C    1.182
   104   6 C    3.955 --   105 C    1.648   103 C    1.182   119 H    0.974
   105   6 C    3.954 --   104 C    1.648   106 C    1.174   120 H    0.976
   106   6 C    3.907 --   108 C    1.364   107 N    1.217   105 C    1.174
   107   7 N    3.244 --   103 C    1.264   106 C    1.217    89 Cu   0.498
   108   6 C    3.936 --   109 C    1.365   106 C    1.364   121 H    0.971
   109   6 C    3.907 --   108 C    1.365   113 N    1.217   110 C    1.175
   110   6 C    3.954 --   111 C    1.648   109 C    1.175   122 H    0.976
   111   6 C    3.955 --   110 C    1.648   112 C    1.182   123 H    0.974
   112   6 C    3.897 --   113 N    1.265    90 C    1.256   111 C    1.182
   113   7 N    3.244 --   112 C    1.265   109 C    1.217    89 Cu   0.498
   114   1 H    1.002 --    92 C    0.974
   115   1 H    0.998 --    93 C    0.976
   116   1 H    1.002 --    96 C    0.971
   117   1 H    0.998 --    98 C    0.976
   118   1 H    1.002 --    99 C    0.974
   119   1 H    1.002 --   104 C    0.974
   120   1 H    0.998 --   105 C    0.976
   121   1 H    1.002 --   108 C    0.971
   122   1 H    0.998 --   110 C    0.976
   123   1 H    1.002 --   111 C    0.974
 ---------------------------------------------------------------------------

           -------------------------------------------------
          | TOTAL ENERGY             -229.330132322747 Eh   |
          | GRADIENT NORM               0.000763478998 Eh/α |
          | HOMO-LUMO GAP               0.000015179878 eV   |
           -------------------------------------------------

 * finished run on 2022/07/30 at 04:25:12.238
