   * xtb version 6.5.1 (b24c23e) compiled by 'conda@728c89f4b128' on 2022-07-12
          program call               : xtb Fe_p-CP_C2_2.xyz --gfn 1 --opt -T 48

   ID    Z sym.   atoms
    1   26 Fe     1, 63
    2    6 C      2-6, 8-11, 13-24, 27-32, 35-39, 42, 43, 64-68, 70-73,
                  75-86, 89-94, 97-101, 104, 105, 125, 126
    3    7 N      7, 12, 33, 34, 69, 74, 95, 96
    4    8 O      25, 26, 40, 41, 87, 88, 102, 103
    5    1 H      44-62, 106-124
########################################################################
[WARNING] Please study the warnings concerning your input carefully
-1- prog_main_parseArguments: Unknown option '-T' provided
########################################################################

          :  Hamiltonian                  GFN1-xTB          :
 * total energy  :  -237.0098283 Eh     change       -0.6239958E-08 Eh
 * total energy  :  -237.4015120 Eh     change       -0.3916838E+00 Eh
 * total energy  :  -237.5123211 Eh     change       -0.1108091E+00 Eh
 * total energy  :  -237.5647040 Eh     change       -0.5238290E-01 Eh
 * total energy  :  -237.5895297 Eh     change       -0.2482566E-01 Eh
 * total energy  :  -237.6011955 Eh     change       -0.1166585E-01 Eh
 * total energy  :  -237.6080283 Eh     change       -0.6832801E-02 Eh
 * total energy  :  -237.6127735 Eh     change       -0.4745117E-02 Eh
 * total energy  :  -237.6163013 Eh     change       -0.3527880E-02 Eh
 * total energy  :  -237.6188656 Eh     change       -0.2564287E-02 Eh
 * total energy  :  -237.6243296 Eh     change       -0.2857320E-04 Eh
 * total energy  :  -237.6243436 Eh     change       -0.1407191E-04 Eh
 * total energy  :  -237.6243567 Eh     change       -0.1310575E-04 Eh
 * total energy  :  -237.6243643 Eh     change       -0.7532732E-05 Eh
 * total energy  :  -237.6243747 Eh     change       -0.1039166E-04 Eh
 * total energy  :  -237.6243855 Eh     change       -0.1079218E-04 Eh
 * total energy  :  -237.6243940 Eh     change       -0.8507374E-05 Eh
 * total energy  :  -237.6243996 Eh     change       -0.5651301E-05 Eh
 * total energy  :  -237.6244037 Eh     change       -0.4118740E-05 Eh
   *** GEOMETRY OPTIMIZATION CONVERGED AFTER 40 ITERATIONS ***

 final structure:
================
126
 xtb: 6.5.1 (b24c23e)
Fe          19.02260137130541       -0.04724411131212        0.04280184986910
C           15.63776450579408       -0.16782530494882        0.06883050206493
C           16.29777339921078       -0.36962623333257        1.26354584468468
C           15.63065907458429       -0.59313722328602        2.51088346133433
C           16.58787182923176       -0.59484605996724        3.46802095544608
C           17.84094907439131       -0.38344817269033        2.80223891586247
N           17.65245664876140       -0.27851023290381        1.45046319394263
C           19.05034698941145       -0.19450134070822        3.46160212140283
C           20.24915163604537        0.02040504239980        2.79551433737752
C           21.50987042440329        0.19672469844764        3.45268258775761
C           22.45486766334918        0.22548942566856        2.48248118822966
N           20.42666730962907       -0.03942645852386        1.43391116530803
C           21.77267473082906        0.05616104604096        1.23833370649581
C           22.43232528333966       -0.07875164687385        0.01060483893859
C           21.75070513992657       -0.19823084085073       -1.20600220718709
C           22.40723860307017       -0.36996531923719       -2.46356729672582
C           21.44554816064284       -0.31372490599434       -3.41631892625380
C           20.20260445637030       -0.10530663897520       -2.73534854414854
C           18.98904914096204        0.10102679771020       -3.37862642944101
C           18.98305734268109        0.19867613939683       -4.85566203848730
C           18.25156503886338       -0.70970542281734       -5.62540045631902
C           18.25794403897515       -0.61841614141933       -7.00508871525394
C           18.99148506226594        0.38505575894327       -7.64080106333985
C           18.96786326293101        0.44108497320509       -9.12243177305124
O           19.71751802164549        1.42896689651760       -9.63400161388621
O           18.34418765499883       -0.31608193910456       -9.82155790588055
C           19.72038104336621        1.29685921220321       -6.87669634589841
C           19.71674475897195        1.20077782702610       -5.49629477997311
C           17.78307315696721        0.21185081335665       -2.69414847455970
C           16.51631836495039        0.44936221412740       -3.32414419529337
C           15.57415628309096        0.35368946248797       -2.35630847222478
C           16.26758138353909        0.07888057443880       -1.13418084337027
N           17.61989578561468        0.02955236873741       -1.34758735656142
N           20.40116245320173       -0.09225287902803       -1.37583364439504
C           19.06601259992870       -0.22961589800127        4.94364076542048
C           18.78725535138128       -1.41744785661527        5.62352603212820
C           18.82192931462511       -1.45320727272817        7.00551175799479
C           19.13161662250389       -0.30162617694834        7.73144144408146
C           19.16433915094727       -0.39215673322601        9.21120174205363
O           19.50183858878519        0.75881133860531        9.81190066148415
O           18.91805872319200       -1.39154469979770        9.83686273943695
C           19.40259869657576        0.88875091221059        7.05623867812934
C           19.37123897364001        0.92167983146745        5.67289684503820
H           14.55384803138137       -0.18813170542553        0.07892469737935
H           14.56461216894100       -0.71217215039186        2.62153622258929
H           16.46790856838841       -0.71131066344406        4.53287656877042
H           21.64706892756216        0.27446094517434        4.51875679561926
H           23.52070009745066        0.34478505367178        2.58770002112171
H           23.46727565604479       -0.51838601854255       -2.58840478075624
H           21.55759265908511       -0.41190671427396       -4.48369361400310
H           17.69383315822744       -1.49903451866945       -5.13451231805256
H           17.69799664302439       -1.32385319186264       -7.60916358696443
H           19.64985742535013        1.39663755818442      -10.60212207827365
H           20.28827687872682        2.07941590701381       -7.36580853534605
H           20.27423925572141        1.91567405776658       -4.90168193692787
H           16.37836029867267        0.66225506425035       -4.37176109887490
H           14.50459381081095        0.46106809622833       -2.44214370404122
H           18.56105503274782       -2.31550700682815        5.06019765527827
H           18.61448732628095       -2.37308215692773        7.54107982505757
H           19.50200161501378        0.61607887082589       10.77234157134236
H           19.63782139403829        1.78602039081151        7.61627712629775
H           19.57300909285157        1.84817784419944        5.14740908454739
Fe          29.86983469676789       -0.04198861384013       -0.04796364342434
C           33.25467104594262       -0.15876838843516       -0.08772673511920
C           32.59466061130314       -0.22145989351990       -1.29774175417158
C           33.26177305919486       -0.29965089789741       -2.56253302882750
C           32.30455931753999       -0.19097854314174       -3.51348181683980
C           31.05148319376077       -0.05775928211034       -2.82776300999901
N           31.23997740694182       -0.10939478222822       -1.47290405801349
C           29.84208541940572        0.20596390419509       -3.46093869152031
C           28.64328235940649        0.34263506303839       -2.77451116203195
C           27.38256361239078        0.59356381752964       -3.40696160925423
C           26.43756730135388        0.51026159993147       -2.43991416426427
N           28.46576775973223        0.12619271805105       -1.42889007184005
C           27.11976080787950        0.19859321391558       -1.22359304217974
C           26.46011110056360       -0.07699585254343       -0.01961155284550
C           27.14173227851402       -0.33597227290870        1.17510100769723
C           26.48520050257144       -0.65157927644742        2.40447365301279
C           27.44689177206715       -0.70557877973615        3.35735411886411
C           28.68983448894109       -0.42002245085418        2.70495938780052
C           29.90339005701149       -0.28924110963467        3.36773830787444
C           29.90938257441646       -0.36256338698363        4.84618110628103
C           30.64087903039919       -1.35364235728698        5.50603768239976
C           30.63449976667367       -1.42205689081344        6.88704922296349
C           29.90095504458967       -0.49858693442370        7.63423319908850
C           29.92457945148473       -0.61377913692324        9.11244145235717
O           29.17491899316217        0.30851835492262        9.73451297315452
O           30.54825549208849       -1.44651250649336        9.71959353803405
C           29.17205473789164        0.49524135791813        6.98036731270228
C           29.17569106382391        0.55897779996673        5.59809466573240
C           31.10936526615914       -0.10022550935597        2.70060470421109
C           32.37612061639066        0.06305706122352        3.35378438348014
C           33.31828176661946        0.07962495417931        2.38137159760184
C           32.62485560800559       -0.05242686810525        1.13570842559245
N           31.27254144686310       -0.12603418475059        1.34200472838675
N           28.49127504959503       -0.25028387221820        1.35601932883761
C           29.82641881564042        0.34197727069102       -4.93714053699655
C           30.10516654465059       -0.75953620175496       -5.74945874660205
C           30.07048668727399       -0.63570233165062       -7.12634909653705
C           29.76081847783781        0.59190708066748       -7.71464949340537
C           29.72812302643846        0.67261577549507       -9.19498043139486
O           29.39060395304275        1.88516833156849       -9.65895478316895
O           29.97433960463867       -0.24796938119885       -9.93169719885892
C           29.48984443299064        1.69648840629091       -6.90668894227932
C           29.52120051755688        1.56968512837943       -5.52877716679059
H           34.33858746674748       -0.17777664134159       -0.10009638577054
H           34.32781955580481       -0.40513481267095       -2.68617503797903
H           32.42452128053272       -0.18387774508812       -4.58466403656187
H           27.24536439911787        0.79371522827096       -4.45695987266032
H           25.37173516187422        0.64089806657097       -2.53067322039416
H           25.42516385228586       -0.81340728930551        2.51136413343077
H           27.33484844915199       -0.92619033917842        4.40628651913734
H           31.19861428374871       -2.08109833908736        4.92740513757357
H           31.19445099443747       -2.19244241326793        7.40574928899671
H           29.24257874574282        0.16476819734188       10.69244736495231
H           28.60415574861566        1.21617497658659        7.55645484490198
H           28.61819321889719        1.33766871586432        5.08988429396914
H           32.51407967598878        0.15372854874907        4.41896179864570
H           34.38784426677893        0.17639015248495        2.47901522314423
H           30.33136451510330       -1.71656265035678       -5.29344250157480
H           30.27793064234017       -1.48768555390875       -7.76441549289568
H           29.39040746491360        1.85412818701983      -10.62944199780811
H           29.25462485299187        2.65235125033257       -7.35952818258812
H           29.31943407704410        2.42941042780623       -4.89996067342394
C           23.83705529191173       -0.08283883498604       -0.00079421551536
C           25.05538114132239       -0.08237574997555       -0.00876121439457

          :  Hamiltonian                  GFN1-xTB          :
         :: total energy            -237.624403739074 Eh    ::
         :: gradient norm              0.000391480192 Eh/a0 ::
         :: HOMO-LUMO gap              0.094972501685 eV    ::
         :: SCC energy              -240.988246340437 Eh    ::
         :: repulsion energy           3.478484737703 Eh    ::

    * Orbital Energies and Occupations

         #    Occupation            Energy/Eh            Energy/eV
      -------------------------------------------------------------
         1        2.0000           -0.8345875             -22.7103
       ...           ...                  ...                  ...
       199        2.0000           -0.4397592             -11.9665
       200        2.0000           -0.4376570             -11.9093
       201        2.0000           -0.4376444             -11.9089
       202        2.0000           -0.4105621             -11.1720
       203        2.0000           -0.4074812             -11.0881
       204        2.0000           -0.4074765             -11.0880
       205        1.9923           -0.3998870             -10.8815
       206        1.9921           -0.3998670             -10.8809
       207        1.9434           -0.3979739             -10.8294
       208        1.9420           -0.3979500             -10.8288
       209        1.9367           -0.3978646             -10.8264
       210        1.9367           -0.3978644             -10.8264
       211        1.7467           -0.3964488             -10.7879 (HOMO)
       212        0.2979           -0.3929586             -10.6929 (LUMO)
       213        0.2123           -0.3925905             -10.6829
       214                         -0.3493800              -9.5071
       215                         -0.3402606              -9.2590
       216                         -0.3402524              -9.2587
       217                         -0.3323807              -9.0445
       218                         -0.3170400              -8.6271
       219                         -0.3152934              -8.5796
       220                         -0.3114265              -8.4743
       221                         -0.3113755              -8.4730
       222                         -0.3107072              -8.4548
       ...                                ...                  ...
       438                          1.3246585              36.0458
      -------------------------------------------------------------
                  HL-Gap            0.0034902 Eh            0.0950 eV

Wiberg/Mayer (AO) data.
largest (>0.10) Wiberg bond orders for each atom

     #   Z sym  total        # sym  WBO       # sym  WBO       # sym  WBO
 ---------------------------------------------------------------------------
     1  26 Fe   3.176 --     7 N    0.675    34 N    0.668    33 N    0.667
                            12 N    0.661
     2   6 C    3.924 --     3 C    1.364    32 C    1.361    44 H    0.970
     3   6 C    3.923 --     2 C    1.364     7 N    1.208     4 C    1.172
     4   6 C    3.959 --     5 C    1.651     3 C    1.172    45 H    0.975
     5   6 C    3.961 --     4 C    1.651     6 C    1.174    46 H    0.973
     6   6 C    3.920 --     8 C    1.316     7 N    1.223     5 C    1.174
     7   7 N    3.382 --     6 C    1.223     3 C    1.208     1 Fe   0.675
     8   6 C    3.925 --     9 C    1.331     6 C    1.316    35 C    1.024
     9   6 C    3.917 --     8 C    1.331    12 N    1.200    10 C    1.180
    10   6 C    3.956 --    11 C    1.637     9 C    1.180    47 H    0.973
    11   6 C    3.961 --    10 C    1.637    13 C    1.189    48 H    0.969
    12   7 N    3.380 --    13 C    1.244     9 C    1.200     1 Fe   0.661
    13   6 C    3.908 --    14 C    1.254    12 N    1.244    11 C    1.189
    14   6 C    3.925 --    15 C    1.256    13 C    1.254   125 C    1.191
    15   6 C    3.908 --    14 C    1.256    34 N    1.241    16 C    1.189
    16   6 C    3.960 --    17 C    1.636    15 C    1.189    49 H    0.969
    17   6 C    3.956 --    16 C    1.636    18 C    1.180    50 H    0.973
    18   6 C    3.917 --    19 C    1.328    34 N    1.203    17 C    1.180
    19   6 C    3.926 --    18 C    1.328    29 C    1.312    20 C    1.033
    20   6 C    3.986 --    28 C    1.385    21 C    1.384    19 C    1.033
    21   6 C    3.986 --    22 C    1.464    20 C    1.384    51 H    0.972
                            27 C    0.103
    22   6 C    3.990 --    21 C    1.464    23 C    1.385    52 H    0.968
                            28 C    0.103
    23   6 C    3.982 --    27 C    1.389    22 C    1.385    24 C    1.008
    24   6 C    3.836 --    26 O    1.691    25 O    1.088    23 C    1.008
    25   8 O    2.097 --    24 C    1.088    53 H    0.838    26 O    0.129
    26   8 O    1.959 --    24 C    1.691    25 O    0.129
    27   6 C    3.991 --    28 C    1.462    23 C    1.389    54 H    0.969
                            21 C    0.103
    28   6 C    3.987 --    27 C    1.462    20 C    1.385    55 H    0.972
                            22 C    0.103
    29   6 C    3.921 --    19 C    1.312    33 N    1.224    30 C    1.175
    30   6 C    3.961 --    31 C    1.649    29 C    1.175    56 H    0.973
    31   6 C    3.959 --    30 C    1.649    32 C    1.173    57 H    0.975
    32   6 C    3.923 --     2 C    1.361    33 N    1.210    31 C    1.173
    33   7 N    3.379 --    29 C    1.224    32 C    1.210     1 Fe   0.667
    34   7 N    3.382 --    15 C    1.241    18 C    1.203     1 Fe   0.668
    35   6 C    3.986 --    43 C    1.388    36 C    1.387     8 C    1.024
    36   6 C    3.987 --    37 C    1.463    35 C    1.387    58 H    0.972
                            42 C    0.103
    37   6 C    3.990 --    36 C    1.463    38 C    1.386    59 H    0.968
                            43 C    0.103
    38   6 C    3.984 --    42 C    1.389    37 C    1.386    39 C    1.008
    39   6 C    3.836 --    41 O    1.691    40 O    1.088    38 C    1.008
    40   8 O    2.097 --    39 C    1.088    60 H    0.838    41 O    0.129
    41   8 O    1.959 --    39 C    1.691    40 O    0.129
    42   6 C    3.991 --    43 C    1.460    38 C    1.389    61 H    0.969
                            36 C    0.103
    43   6 C    3.988 --    42 C    1.460    35 C    1.388    62 H    0.972
                            37 C    0.103
    44   1 H    1.000 --     2 C    0.970
    45   1 H    0.997 --     4 C    0.975
    46   1 H    1.004 --     5 C    0.973
    47   1 H    1.004 --    10 C    0.973
    48   1 H    1.005 --    11 C    0.969
    49   1 H    1.005 --    16 C    0.969
    50   1 H    1.004 --    17 C    0.973
    51   1 H    1.004 --    21 C    0.972
    52   1 H    1.005 --    22 C    0.968
    53   1 H    0.873 --    25 O    0.838
    54   1 H    1.005 --    27 C    0.969
    55   1 H    1.004 --    28 C    0.972
    56   1 H    1.004 --    30 C    0.973
    57   1 H    0.997 --    31 C    0.975
    58   1 H    1.003 --    36 C    0.972
    59   1 H    1.005 --    37 C    0.968
    60   1 H    0.873 --    40 O    0.838
    61   1 H    1.005 --    42 C    0.969
    62   1 H    1.003 --    43 C    0.972
    63  26 Fe   3.176 --    69 N    0.675    96 N    0.668    95 N    0.667
                            74 N    0.661
    64   6 C    3.924 --    65 C    1.364    94 C    1.361   106 H    0.970
    65   6 C    3.923 --    64 C    1.364    69 N    1.208    66 C    1.172
    66   6 C    3.959 --    67 C    1.651    65 C    1.172   107 H    0.975
    67   6 C    3.961 --    66 C    1.651    68 C    1.174   108 H    0.973
    68   6 C    3.920 --    70 C    1.316    69 N    1.223    67 C    1.174
    69   7 N    3.382 --    68 C    1.223    65 C    1.208    63 Fe   0.675
    70   6 C    3.925 --    71 C    1.331    68 C    1.316    97 C    1.024
    71   6 C    3.917 --    70 C    1.331    74 N    1.200    72 C    1.180
    72   6 C    3.956 --    73 C    1.637    71 C    1.180   109 H    0.973
    73   6 C    3.961 --    72 C    1.637    75 C    1.189   110 H    0.969
    74   7 N    3.380 --    75 C    1.244    71 C    1.200    63 Fe   0.661
    75   6 C    3.908 --    76 C    1.254    74 N    1.244    73 C    1.189
    76   6 C    3.925 --    77 C    1.256    75 C    1.254   126 C    1.191
    77   6 C    3.908 --    76 C    1.256    96 N    1.241    78 C    1.189
    78   6 C    3.960 --    79 C    1.636    77 C    1.189   111 H    0.969
    79   6 C    3.956 --    78 C    1.636    80 C    1.180   112 H    0.973
    80   6 C    3.917 --    81 C    1.328    96 N    1.203    79 C    1.180
    81   6 C    3.926 --    80 C    1.328    91 C    1.312    82 C    1.033
    82   6 C    3.986 --    90 C    1.385    83 C    1.384    81 C    1.033
    83   6 C    3.986 --    84 C    1.464    82 C    1.384   113 H    0.972
                            89 C    0.103
    84   6 C    3.990 --    83 C    1.464    85 C    1.385   114 H    0.968
                            90 C    0.103
    85   6 C    3.982 --    89 C    1.389    84 C    1.385    86 C    1.008
    86   6 C    3.836 --    88 O    1.691    87 O    1.088    85 C    1.008
    87   8 O    2.097 --    86 C    1.088   115 H    0.838    88 O    0.129
    88   8 O    1.959 --    86 C    1.691    87 O    0.129
    89   6 C    3.991 --    90 C    1.462    85 C    1.389   116 H    0.969
                            83 C    0.103
    90   6 C    3.987 --    89 C    1.462    82 C    1.385   117 H    0.972
                            84 C    0.103
    91   6 C    3.921 --    81 C    1.312    95 N    1.224    92 C    1.175
    92   6 C    3.961 --    93 C    1.649    91 C    1.175   118 H    0.973
    93   6 C    3.959 --    92 C    1.649    94 C    1.173   119 H    0.975
    94   6 C    3.923 --    64 C    1.361    95 N    1.210    93 C    1.173
    95   7 N    3.379 --    91 C    1.224    94 C    1.210    63 Fe   0.667
    96   7 N    3.382 --    77 C    1.241    80 C    1.203    63 Fe   0.668
    97   6 C    3.986 --   105 C    1.388    98 C    1.387    70 C    1.024
    98   6 C    3.987 --    99 C    1.463    97 C    1.387   120 H    0.972
                           104 C    0.103
    99   6 C    3.990 --    98 C    1.463   100 C    1.386   121 H    0.968
                           105 C    0.103
   100   6 C    3.984 --   104 C    1.389    99 C    1.386   101 C    1.008
   101   6 C    3.836 --   103 O    1.691   102 O    1.088   100 C    1.008
   102   8 O    2.097 --   101 C    1.088   122 H    0.838   103 O    0.129
   103   8 O    1.959 --   101 C    1.691   102 O    0.129
   104   6 C    3.991 --   105 C    1.460   100 C    1.389   123 H    0.969
                            98 C    0.103
   105   6 C    3.988 --   104 C    1.460    97 C    1.388   124 H    0.972
                            99 C    0.103
   106   1 H    1.000 --    64 C    0.970
   107   1 H    0.997 --    66 C    0.975
   108   1 H    1.004 --    67 C    0.973
   109   1 H    1.004 --    72 C    0.973
   110   1 H    1.005 --    73 C    0.969
   111   1 H    1.005 --    78 C    0.969
   112   1 H    1.004 --    79 C    0.973
   113   1 H    1.004 --    83 C    0.972
   114   1 H    1.005 --    84 C    0.968
   115   1 H    0.873 --    87 O    0.838
   116   1 H    1.005 --    89 C    0.969
   117   1 H    1.004 --    90 C    0.972
   118   1 H    1.004 --    92 C    0.973
   119   1 H    0.997 --    93 C    0.975
   120   1 H    1.003 --    98 C    0.972
   121   1 H    1.005 --    99 C    0.968
   122   1 H    0.873 --   102 O    0.838
   123   1 H    1.005 --   104 C    0.969
   124   1 H    1.003 --   105 C    0.972
   125   6 C    3.924 --   126 C    2.554    14 C    1.191
   126   6 C    3.924 --   125 C    2.554    76 C    1.191
 ---------------------------------------------------------------------------

           -------------------------------------------------
          | TOTAL ENERGY             -237.624403739074 Eh   |
          | GRADIENT NORM               0.000391480192 Eh/α |
          | HOMO-LUMO GAP               0.094972501685 eV   |
           -------------------------------------------------

 * finished run on 2022/07/29 at 21:08:33.805
