   * xtb version 6.5.1 (b24c23e) compiled by 'conda@728c89f4b128' on 2022-07-12
          program call               : xtb Ni_NMA_C6_2.xyz --gfn 1 --opt -T 48

   ID    Z sym.   atoms
    1   28 Ni     1, 67
    2    6 C      2-6, 8-12, 14-19, 21-26, 28-32, 34-40, 68-72, 74-78, 80-85,
                  87-92, 94-98, 100-106, 133-138
    3    7 N      7, 13, 20, 27, 33, 41, 73, 79, 86, 93, 99, 107
    4    1 H      42-66, 108-132

          :  Hamiltonian                  GFN1-xTB          :
 * total energy  :  -220.0066354 Eh     change       -0.1093585E-07 Eh
 * total energy  :  -227.5937698 Eh     change       -0.7587134E+01 Eh
 * total energy  :  -228.2194134 Eh     change       -0.6256436E+00 Eh
 * total energy  :  -228.6633908 Eh     change       -0.4439775E+00 Eh
 * total energy  :  -228.8942220 Eh     change       -0.2308312E+00 Eh
 * total energy  :  -229.0301297 Eh     change       -0.1359078E+00 Eh
 * total energy  :  -229.1266258 Eh     change       -0.9649605E-01 Eh
 * total energy  :  -229.1975553 Eh     change       -0.7092951E-01 Eh
 * total energy  :  -229.2466000 Eh     change       -0.4904474E-01 Eh
 * total energy  :  -229.2836321 Eh     change       -0.3703203E-01 Eh
 * total energy  :  -229.8725499 Eh     change       -0.1127930E-04 Eh
 * total energy  :  -229.8725615 Eh     change       -0.1159199E-04 Eh
 * total energy  :  -229.8725719 Eh     change       -0.1041785E-04 Eh
 * total energy  :  -229.8725799 Eh     change       -0.7919882E-05 Eh
 * total energy  :  -229.8725869 Eh     change       -0.7017428E-05 Eh
 * total energy  :  -229.8725942 Eh     change       -0.7361690E-05 Eh
 * total energy  :  -229.8726015 Eh     change       -0.7264389E-05 Eh
 * total energy  :  -229.8726080 Eh     change       -0.6466479E-05 Eh
 * total energy  :  -229.8726103 Eh     change       -0.2332306E-05 Eh
   *** GEOMETRY OPTIMIZATION CONVERGED AFTER 68 ITERATIONS ***

 final structure:
================
138
 xtb: 6.5.1 (b24c23e)
Ni          16.33010305531306        0.02351831884643        0.00601954931831
C           12.94461780855615        0.10276621666554       -0.07959024139838
C           13.58977447796552        0.89052594237009        0.85190020482115
C           12.91241529234108        1.70226888550544        1.81535060622458
C           13.86578803825995        2.41425064457206        2.46259481255955
C           15.12411238524611        2.04946986397336        1.88152125726046
N           14.94779814760134        1.07742286194852        0.92866004010773
C           16.33373553067117        2.66161417965120        2.19174069745068
C           16.33991992092952        3.80087237620085        3.13574593909865
C           15.58393731027152        4.94822328977813        2.87832864336997
C           15.59892612452470        6.01614300824425        3.75513970743957
C           16.36409095781156        5.96468248048685        4.92710158091000
N           16.38884539104266        7.08111090293692        5.74843159182109
C           16.76369684557512        6.94219518397886        7.14894303937895
C           17.12389218567060        4.82055672554467        5.18826581159633
C           17.10865971527087        3.75844308577011        4.30060940061023
C           17.53928655281474        2.24446472675736        1.63974416508686
C           18.79266269188407        2.89616321631238        1.86966519716002
C           19.74495782026649        2.13706128576238        1.27456793578408
N           17.71883545611270        1.12327001446157        0.86095966469528
C           19.07091662468899        1.03128263016778        0.67396291350319
C           19.73591642099667       -0.04005868741998        0.06996294749580
C           19.05515422930106       -1.09144241811529       -0.55147248628654
C           19.70921002047224       -2.22706249437786       -1.11742366333778
C           18.75134497973904       -2.95769016327269       -1.73880022528922
C           17.51592813908571       -2.25672888531864       -1.56275457829638
N           17.70839171495889       -1.13579035435140       -0.78652729057677
C           16.31945031927516       -2.62682002983086       -2.16538735123981
C           16.31796634102891       -3.77059709317900       -3.10403488068197
C           17.13731515792644       -3.76668507067922       -4.23461038627093
C           17.14133812160999       -4.83057023694203       -5.12029097581337
C           16.31824357864642       -5.93716678994598       -4.89169318478684
N           16.32374916365924       -7.05397699439436       -5.71328339479006
C           16.75762531507358       -6.93010709884117       -7.09828630632510
C           15.50341158774495       -5.95125505489733       -3.75269366493669
C           15.50024434974294       -4.88157233476515       -2.87788599036356
C           15.12556712276704       -1.95759445851705       -1.91825689220062
C           13.88271156578775       -2.26594965601109       -2.56195571191262
C           12.93297025550948       -1.50313395695665       -1.96963308545176
C           13.59805115125925       -0.71850475609723       -0.97561684444276
N           14.94758845312182       -0.97125967741504       -0.98069066437780
H           11.86145283258541        0.12933098250464       -0.10771546441203
H           11.84425634045229        1.71174393705908        1.96432183934122
H           13.73996083330993        3.12264344920277        3.26535041747188
H           14.99718154668079        5.00869085746943        1.96819729269070
H           15.01746811390668        6.90570873469380        3.53670005249164
H           15.58381160203976        7.68206577430719        5.62043361355226
H           17.82209277310099        6.69088476422029        7.22930204012839
H           16.17032806335251        6.16935646934103        7.65092072248047
H           16.59504371867906        7.90102314477050        7.63917354948926
H           17.73052973704536        4.75299786104226        6.08294778606902
H           17.68888544959518        2.86957954190227        4.52367897800241
H           18.91839201109237        3.81975891320861        2.41067394882886
H           20.81034723758723        2.29815108265681        1.23823503154790
H           20.76584540847761       -2.42691108034717       -1.04036076176089
H           18.86188077389327       -3.89146224883711       -2.26550512861035
H           17.76667790280608       -2.90590299982635       -4.43320607376905
H           17.78812089954899       -4.79350036055708       -5.98823882190280
H           15.48582649913348       -7.61499411857806       -5.61894421793054
H           16.22899366952658       -6.12147056153507       -7.61587728828932
H           16.55185981884386       -7.87494500133544       -7.60131553596133
H           17.83105635613764       -6.74023492349565       -7.13801584284188
H           14.87284005128435       -6.81263239874034       -3.55896474956560
H           14.87266986975442       -4.91221885238667       -1.99387113965638
H           13.76453604392024       -2.97368418882808       -3.36646506603808
H           11.87484395049233       -1.46183830712358       -2.17434762156200
Ni          32.31518678009226       -0.01116065866246       -0.02212515418046
C           35.70073683688378        0.05544237327044       -0.11759134792944
C           35.05565647264648       -1.02535341751384       -0.68346169661135
C           35.73319484722949       -2.14241781660245       -1.26577331629677
C           34.77998703412414       -2.92921930892602       -1.81992472033232
C           33.52154856563725       -2.28286813933752       -1.59047109567294
N           33.69765147080771       -1.14110040759520       -0.84935501753657
C           32.31188743660857       -2.71966989720990       -2.11967426797592
C           32.30576078246078       -3.88962168003800       -3.02535123775377
C           33.06108741592322       -3.88872294442155       -4.20163830464310
C           33.04584406597433       -4.97754383473008       -5.05236859320266
C           32.28105475595591       -6.11013950098272       -4.74588671205068
N           32.25575485077385       -7.15532372394072       -5.65615481441874
C           31.88198437618731       -8.49191019330411       -5.21446075539254
C           31.52206043123908       -6.11546928919521       -3.57182169589388
C           31.53757466979693       -5.01737127713227       -2.72911567032300
C           31.10612904774115       -2.09064630498714       -1.83233992935042
C           29.85262297839913       -2.45808693398217       -2.41735924376480
C           28.90029311862168       -1.71184795692976       -1.80628413101373
N           30.92656395171484       -1.08575974616282       -0.90833592808623
C           29.57439626927735       -0.88372408399617       -0.85886655103611
C           28.90927883658755       -0.06041642590508        0.05468129019143
C           29.58996482653610        0.77553325531140        0.94512573889755
C           28.93598621824770        1.57527705826113        1.93024898900974
C           29.89386542011155        2.34108312106995        2.50768542138843
C           31.12915254984814        2.01674050437567        1.86156652372844
N           30.93665661777720        1.01481449242927        0.93684802522236
C           32.32546339157884        2.68601611858985        2.09073403202418
C           32.32678249510210        3.85153556527592        3.00226806135754
C           31.50768126376594        4.95409875815409        2.75149667658820
C           31.50349388229556        6.05049678201640        3.59661608308512
C           32.32614381496662        6.06858365139221        4.72670819071454
N           32.32063915817731        7.11408718385846        5.63759865027837
C           31.88723777508140        8.43866451396093        5.21380442043420
C           33.14061015190546        4.95994128716273        4.98930315440113
C           33.14399995601689        3.87289763747087        4.13616129677657
C           33.51929893987869        2.29931967696347        1.49121861310712
C           34.76200602856797        2.99504269180893        1.65178448288501
C           35.71197997669245        2.25054529728199        1.03696468510584
C           35.04714450876073        1.10911081310402        0.48815280377473
N           33.69755585072364        1.16907897972321        0.73337038156210
H           36.78391155526363        0.07700721810235       -0.14929786399165
H           36.80136451771781       -2.28977335035164       -1.24235016639988
H           34.90598530013273       -3.86690830914300       -2.33657501979037
H           33.64748688439041       -3.01361537926855       -4.45970984259516
H           33.62677840764034       -4.95845871179202       -5.96849678967946
H           33.06019301525996       -7.16124682898939       -6.27134716922445
H           30.82391230211297       -8.51592753349692       -4.95041708647286
H           32.47651140031609       -8.81282610872274       -4.35138737066114
H           32.04994515096957       -9.17953778982730       -6.04336099731990
H           30.91582121805370       -6.97397971742989       -3.31017586216524
H           30.95800707849437       -5.04117088077658       -1.81258359597515
H           29.72680517645240       -3.18805917168840       -3.20019383405809
H           27.83481045071764       -1.71215201719949       -1.97080863745459
H           27.87941320242216        1.54337332799709        2.14236010445676
H           29.78350608929553        3.05858163851344        3.30429528083681
H           30.87866117274856        4.96020542378013        1.86788200580822
H           30.85692934119303        6.88953830706268        3.37080954282432
H           33.15963520936852        7.14476342008758        6.20418687071777
H           32.41730571673506        8.76742340662221        4.31258102914287
H           32.09152589113447        9.13573871669148        6.02648740830158
H           30.81413627333301        8.43574696214235        5.01813304124240
H           33.77074646781546        4.95861152589806        5.87250362519632
H           33.77131995917997        3.01671561614314        4.35906952721173
H           34.87986649744418        3.93469914731272        2.16680603052886
H           36.77010885835681        2.44139032893140        0.95221841117780
C           24.93660429943074       -0.08049903134183        0.09939986479329
C           23.70861611263078       -0.07910729663968        0.10059487184147
C           22.36362563203085       -0.07106081845912        0.09536017504305
C           21.14021501030947       -0.05977053359639        0.08667613281821
C           26.28159133204544       -0.07784660959191        0.09036381642540
C           27.50497783245793       -0.07224826993658        0.07748571358953

          :  Hamiltonian                  GFN1-xTB          :
         :: total energy            -229.872610297740 Eh    ::
         :: gradient norm              0.000348927600 Eh/a0 ::
         :: HOMO-LUMO gap              1.150751714142 eV    ::
         :: SCC energy              -233.501699501968 Eh    ::
         :: repulsion energy           3.746314903203 Eh    ::

    * Orbital Energies and Occupations

         #    Occupation            Energy/Eh            Energy/eV
      -------------------------------------------------------------
         1        2.0000           -0.7780176             -21.1709
       ...           ...                  ...                  ...
       201        2.0000           -0.3904657             -10.6251
       202        2.0000           -0.3888184             -10.5803
       203        2.0000           -0.3888097             -10.5801
       204        2.0000           -0.3885728             -10.5736
       205        2.0000           -0.3885667             -10.5734
       206        2.0000           -0.3875490             -10.5457
       207        2.0000           -0.3875409             -10.5455
       208        2.0000           -0.3864317             -10.5153
       209        2.0000           -0.3864238             -10.5151
       210        2.0000           -0.3863915             -10.5142
       211        2.0000           -0.3863833             -10.5140
       212        2.0000           -0.3800901             -10.3428
       213        2.0000           -0.3728324             -10.1453 (HOMO)
       214                         -0.3305431              -8.9945 (LUMO)
       215                         -0.3194664              -8.6931
       216                         -0.3192249              -8.6866
       217                         -0.3192200              -8.6864
       218                         -0.3174801              -8.6391
       219                         -0.3174124              -8.6372
       220                         -0.2913937              -7.9292
       221                         -0.2842569              -7.7350
       222                         -0.2756931              -7.5020
       223                         -0.2553781              -6.9492
       224                         -0.2553633              -6.9488
       ...                                ...                  ...
       462                          1.5882600              43.2188
      -------------------------------------------------------------
                  HL-Gap            0.0422893 Eh            1.1508 eV

Wiberg/Mayer (AO) data.
largest (>0.10) Wiberg bond orders for each atom

     #   Z sym  total        # sym  WBO       # sym  WBO       # sym  WBO
 ---------------------------------------------------------------------------
     1  28 Ni   3.023 --     7 N    0.665    41 N    0.665    20 N    0.663
                            27 N    0.663
     2   6 C    3.932 --    40 C    1.363     3 C    1.363    42 H    0.970
     3   6 C    3.925 --     2 C    1.363     7 N    1.211     4 C    1.178
     4   6 C    3.957 --     5 C    1.644     3 C    1.178    43 H    0.975
     5   6 C    3.963 --     4 C    1.644     6 C    1.181    44 H    0.973
     6   6 C    3.918 --     8 C    1.317     7 N    1.222     5 C    1.181
     7   7 N    3.400 --     6 C    1.222     3 C    1.211     1 Ni   0.665
     8   6 C    3.939 --    17 C    1.325     6 C    1.317     9 C    1.036
     9   6 C    3.987 --    16 C    1.383    10 C    1.373     8 C    1.036
    10   6 C    3.988 --    11 C    1.477     9 C    1.373    45 H    0.972
    11   6 C    3.989 --    10 C    1.477    12 C    1.344    46 H    0.971
    12   6 C    3.952 --    15 C    1.352    11 C    1.344    13 N    1.111
    13   7 N    3.182 --    12 C    1.111    14 C    0.971    47 H    0.931
    14   6 C    3.968 --    50 H    0.990    48 H    0.986    49 H    0.984
                            13 N    0.971
    15   6 C    3.989 --    16 C    1.465    12 C    1.352    51 H    0.970
    16   6 C    3.986 --    15 C    1.465     9 C    1.383    52 H    0.972
    17   6 C    3.914 --     8 C    1.325    20 N    1.205    18 C    1.187
    18   6 C    3.959 --    19 C    1.632    17 C    1.187    53 H    0.973
    19   6 C    3.961 --    18 C    1.632    21 C    1.194    54 H    0.973
    20   7 N    3.404 --    21 C    1.237    17 C    1.205     1 Ni   0.663
    21   6 C    3.904 --    22 C    1.262    20 N    1.237    19 C    1.194
    22   6 C    3.942 --    21 C    1.262    23 C    1.261   136 C    1.186
    23   6 C    3.904 --    22 C    1.261    27 N    1.238    24 C    1.194
    24   6 C    3.961 --    25 C    1.632    23 C    1.194    55 H    0.974
    25   6 C    3.959 --    24 C    1.632    26 C    1.186    56 H    0.973
    26   6 C    3.914 --    28 C    1.325    27 N    1.205    25 C    1.186
    27   7 N    3.404 --    23 C    1.238    26 C    1.205     1 Ni   0.663
    28   6 C    3.939 --    26 C    1.325    37 C    1.317    29 C    1.036
    29   6 C    3.987 --    30 C    1.383    36 C    1.373    28 C    1.036
    30   6 C    3.988 --    31 C    1.465    29 C    1.383    57 H    0.972
    31   6 C    3.990 --    30 C    1.465    32 C    1.353    58 H    0.970
    32   6 C    3.952 --    31 C    1.353    35 C    1.344    33 N    1.111
    33   7 N    3.181 --    32 C    1.111    34 C    0.971    59 H    0.931
    34   6 C    3.968 --    61 H    0.990    62 H    0.986    60 H    0.984
                            33 N    0.971
    35   6 C    3.989 --    36 C    1.477    32 C    1.344    63 H    0.971
    36   6 C    3.988 --    35 C    1.477    29 C    1.373    64 H    0.972
    37   6 C    3.918 --    28 C    1.317    41 N    1.222    38 C    1.181
    38   6 C    3.963 --    39 C    1.644    37 C    1.181    65 H    0.973
    39   6 C    3.959 --    38 C    1.644    40 C    1.178    66 H    0.975
    40   6 C    3.925 --     2 C    1.363    41 N    1.211    39 C    1.178
    41   7 N    3.400 --    37 C    1.222    40 C    1.211     1 Ni   0.665
    42   1 H    1.001 --     2 C    0.970
    43   1 H    0.998 --     4 C    0.975
    44   1 H    1.005 --     5 C    0.973
    45   1 H    1.005 --    10 C    0.972
    46   1 H    0.999 --    11 C    0.971
    47   1 H    0.965 --    13 N    0.931
    48   1 H    1.012 --    14 C    0.986
    49   1 H    1.003 --    14 C    0.984
    50   1 H    1.007 --    14 C    0.990
    51   1 H    1.001 --    15 C    0.970
    52   1 H    1.005 --    16 C    0.972
    53   1 H    1.005 --    18 C    0.973
    54   1 H    1.002 --    19 C    0.973
    55   1 H    1.002 --    24 C    0.974
    56   1 H    1.005 --    25 C    0.973
    57   1 H    1.006 --    30 C    0.972
    58   1 H    1.001 --    31 C    0.970
    59   1 H    0.966 --    33 N    0.931
    60   1 H    1.003 --    34 C    0.984
    61   1 H    1.007 --    34 C    0.990
    62   1 H    1.012 --    34 C    0.986
    63   1 H    0.999 --    35 C    0.971
    64   1 H    1.005 --    36 C    0.972
    65   1 H    1.005 --    38 C    0.973
    66   1 H    0.998 --    39 C    0.975
    67  28 Ni   3.023 --    73 N    0.665   107 N    0.665    86 N    0.663
                            93 N    0.662
    68   6 C    3.932 --   106 C    1.363    69 C    1.363   108 H    0.970
    69   6 C    3.925 --    68 C    1.363    73 N    1.211    70 C    1.178
    70   6 C    3.957 --    71 C    1.644    69 C    1.178   109 H    0.975
    71   6 C    3.963 --    70 C    1.644    72 C    1.181   110 H    0.973
    72   6 C    3.918 --    74 C    1.317    73 N    1.222    71 C    1.181
    73   7 N    3.400 --    72 C    1.222    69 C    1.211    67 Ni   0.665
    74   6 C    3.939 --    83 C    1.325    72 C    1.317    75 C    1.036
    75   6 C    3.987 --    82 C    1.383    76 C    1.373    74 C    1.036
    76   6 C    3.988 --    77 C    1.477    75 C    1.373   111 H    0.972
    77   6 C    3.989 --    76 C    1.477    78 C    1.344   112 H    0.971
    78   6 C    3.952 --    81 C    1.352    77 C    1.344    79 N    1.111
    79   7 N    3.182 --    78 C    1.111    80 C    0.971   113 H    0.931
    80   6 C    3.968 --   116 H    0.990   114 H    0.986   115 H    0.984
                            79 N    0.971
    81   6 C    3.989 --    82 C    1.465    78 C    1.352   117 H    0.970
    82   6 C    3.986 --    81 C    1.465    75 C    1.383   118 H    0.972
    83   6 C    3.914 --    74 C    1.325    86 N    1.205    84 C    1.187
    84   6 C    3.959 --    85 C    1.632    83 C    1.187   119 H    0.973
    85   6 C    3.961 --    84 C    1.632    87 C    1.194   120 H    0.973
    86   7 N    3.404 --    87 C    1.237    83 C    1.205    67 Ni   0.663
    87   6 C    3.904 --    88 C    1.262    86 N    1.237    85 C    1.194
    88   6 C    3.942 --    87 C    1.262    89 C    1.261   138 C    1.186
    89   6 C    3.904 --    88 C    1.261    93 N    1.238    90 C    1.194
    90   6 C    3.961 --    91 C    1.632    89 C    1.194   121 H    0.974
    91   6 C    3.959 --    90 C    1.632    92 C    1.186   122 H    0.973
    92   6 C    3.914 --    94 C    1.325    93 N    1.205    91 C    1.186
    93   7 N    3.404 --    89 C    1.238    92 C    1.205    67 Ni   0.662
    94   6 C    3.939 --    92 C    1.325   103 C    1.317    95 C    1.036
    95   6 C    3.987 --    96 C    1.383   102 C    1.373    94 C    1.036
    96   6 C    3.988 --    97 C    1.465    95 C    1.383   123 H    0.972
    97   6 C    3.990 --    96 C    1.465    98 C    1.353   124 H    0.970
    98   6 C    3.952 --    97 C    1.353   101 C    1.344    99 N    1.110
    99   7 N    3.181 --    98 C    1.110   100 C    0.971   125 H    0.931
   100   6 C    3.968 --   127 H    0.990   128 H    0.986   126 H    0.984
                            99 N    0.971
   101   6 C    3.989 --   102 C    1.477    98 C    1.344   129 H    0.971
   102   6 C    3.988 --   101 C    1.477    95 C    1.373   130 H    0.972
   103   6 C    3.918 --    94 C    1.317   107 N    1.222   104 C    1.180
   104   6 C    3.963 --   105 C    1.644   103 C    1.180   131 H    0.973
   105   6 C    3.959 --   104 C    1.644   106 C    1.178   132 H    0.975
   106   6 C    3.925 --    68 C    1.363   107 N    1.211   105 C    1.178
   107   7 N    3.400 --   103 C    1.222   106 C    1.211    67 Ni   0.665
   108   1 H    1.001 --    68 C    0.970
   109   1 H    0.998 --    70 C    0.975
   110   1 H    1.005 --    71 C    0.973
   111   1 H    1.005 --    76 C    0.972
   112   1 H    0.999 --    77 C    0.971
   113   1 H    0.965 --    79 N    0.931
   114   1 H    1.012 --    80 C    0.986
   115   1 H    1.003 --    80 C    0.984
   116   1 H    1.007 --    80 C    0.990
   117   1 H    1.001 --    81 C    0.970
   118   1 H    1.005 --    82 C    0.972
   119   1 H    1.005 --    84 C    0.973
   120   1 H    1.002 --    85 C    0.973
   121   1 H    1.002 --    90 C    0.974
   122   1 H    1.005 --    91 C    0.973
   123   1 H    1.006 --    96 C    0.972
   124   1 H    1.001 --    97 C    0.970
   125   1 H    0.966 --    99 N    0.931
   126   1 H    1.003 --   100 C    0.984
   127   1 H    1.007 --   100 C    0.990
   128   1 H    1.012 --   100 C    0.986
   129   1 H    0.999 --   101 C    0.971
   130   1 H    1.005 --   102 C    0.972
   131   1 H    1.005 --   104 C    0.973
   132   1 H    0.998 --   105 C    0.975
   133   6 C    3.927 --   134 C    2.374   137 C    1.331   136 C    0.191
   134   6 C    3.927 --   133 C    2.374   135 C    1.331   138 C    0.191
   135   6 C    3.937 --   136 C    2.455   134 C    1.331
   136   6 C    3.891 --   135 C    2.455    22 C    1.186   133 C    0.191
   137   6 C    3.937 --   138 C    2.455   133 C    1.331
   138   6 C    3.891 --   137 C    2.455    88 C    1.186   134 C    0.191
 ---------------------------------------------------------------------------

           -------------------------------------------------
          | TOTAL ENERGY             -229.872610297740 Eh   |
          | GRADIENT NORM               0.000348927600 Eh/α |
          | HOMO-LUMO GAP               1.150751714142 eV   |
           -------------------------------------------------

 * finished run on 2022/07/30 at 03:06:24.047
