   * xtb version 6.5.1 (b24c23e) compiled by 'conda@728c89f4b128' on 2022-07-12
          program call               : xtb Cu_Ph3OH_C8_3.xyz --gfn 1 --opt -T 48

   ID    Z sym.   atoms
    1   29 Cu     1, 63, 141
    2    6 C      2-6, 8-11, 13, 15, 17-20, 22-27, 29-32, 34, 36, 38-42,
                  64-68, 70-73, 75, 77, 79-82, 84-89, 91-94, 96, 98, 100-104,
                  125-140, 142-146, 148-151, 153, 155, 157-160, 162-167,
                  169-172, 174, 176, 178-182
    3    7 N      7, 21, 28, 43, 69, 83, 90, 105, 147, 161, 168, 183
    4    8 O      12, 14, 16, 33, 35, 37, 74, 76, 78, 95, 97, 99, 152, 154,
                  156, 173, 175, 177
    5    1 H      44-62, 106-124, 184-201

          :  Hamiltonian                  GFN1-xTB          :
 * total energy  :  -401.9278425 Eh     change        0.1494379E-07 Eh
 * total energy  :  -402.4132941 Eh     change       -0.4854516E+00 Eh
 * total energy  :  -402.5930550 Eh     change       -0.1797609E+00 Eh
 * total energy  :  -402.6940572 Eh     change       -0.1010022E+00 Eh
 * total energy  :  -402.7761306 Eh     change       -0.8207345E-01 Eh
 * total energy  :  -402.8530966 Eh     change       -0.7696591E-01 Eh
 * total energy  :  -402.9113737 Eh     change       -0.5827718E-01 Eh
 * total energy  :  -402.9449533 Eh     change       -0.3357956E-01 Eh
 * total energy  :  -402.9703346 Eh     change       -0.2538126E-01 Eh
 * total energy  :  -402.9879554 Eh     change       -0.1762085E-01 Eh
 * total energy  :  -403.0646071 Eh     change       -0.9300835E-04 Eh
 * total energy  :  -403.0646358 Eh     change       -0.2868324E-04 Eh
 * total energy  :  -403.0646608 Eh     change       -0.2502691E-04 Eh
 * total energy  :  -403.0646689 Eh     change       -0.8074687E-05 Eh
 * total energy  :  -403.0646811 Eh     change       -0.1223016E-04 Eh
 * total energy  :  -403.0646899 Eh     change       -0.8775142E-05 Eh
 * total energy  :  -403.0646961 Eh     change       -0.6166695E-05 Eh
 * total energy  :  -403.0647066 Eh     change       -0.1055409E-04 Eh
 * total energy  :  -403.0647107 Eh     change       -0.4058826E-05 Eh
   *** GEOMETRY OPTIMIZATION CONVERGED AFTER 65 ITERATIONS ***

 final structure:
================
201
 xtb: 6.5.1 (b24c23e)
Cu          28.13189662389271        0.00314809371745       -0.03745478090329
C           24.72948878583322        0.05359767777303       -0.18366438522615
C           25.36975246317411        1.28225770088809       -0.12756306249192
C           24.69932337403502        2.55032336997002       -0.09019375771696
C           25.66108854239701        3.50354219093915       -0.02024601742024
C           26.92944869318286        2.82630272045157       -0.02423441906487
N           26.72081341622868        1.47816514953393       -0.08183479169626
C           28.17565078585236        3.45336870151527        0.04814912716871
C           28.19408300408587        4.93843509107259        0.08706060875047
C           27.69446453607745        5.67288675307574       -0.98845972921885
C           27.71373231269559        7.06236598258976       -0.95288254253727
O           27.23791510105519        7.78576902465247       -1.99583763917907
C           28.22666402386488        7.72218177519645        0.16510645808847
O           28.23013671180842        9.09258614450380        0.17343765319874
C           28.72225963589520        6.98863191039375        1.23994970962517
O           29.20573388697553        7.70582807967777        2.30281838010263
C           28.71175444184537        5.59964014510674        1.20390118604878
C           29.40446796382255        2.79154529112108        0.08341542175918
C           30.68575009093986        3.43849512913682        0.10099979370089
C           31.62648625871851        2.46018377672499        0.11112744165697
N           29.58618866950775        1.43326560461964        0.07314510582417
C           30.92831426988460        1.21021812931142        0.09325068500391
C           31.55858775551174       -0.04717770057867        0.08177318334274
C           30.89433265477861       -1.28590874158447        0.04137127591692
C           31.55743185017875       -2.55486445042989        0.01147236128528
C           30.59010802014970       -3.50515267481815       -0.04055804356252
C           29.32730587647094       -2.82218590991706       -0.03697998348993
N           29.54649141634856       -1.47011412625587        0.00790185723748
C           28.08109438875035       -3.44696813058161       -0.10669757882225
C           28.05787325082592       -4.93235350881372       -0.13732245355676
C           28.54019470602856       -5.66396472436643        0.94779078052038
C           28.51108819522940       -7.05354334526860        0.91978983468941
O           28.96887546082531       -7.77444114488596        1.97250747815360
C           28.00615159863020       -7.71607219587214       -0.20021963634710
O           27.99340648962091       -9.08649192327244       -0.20098004149349
C           27.52907445209691       -6.98516981809050       -1.28523165339845
O           27.05286035419894       -7.70467223722491       -2.35005937579731
C           27.54881217978970       -5.59618372472358       -1.25664120510691
C           26.85270713084494       -2.78300222452589       -0.15408559147800
C           25.56644781611053       -3.42458672955460       -0.18491319154407
C           24.63100321560557       -2.44297095768452       -0.21175240522382
C           25.33581311286463       -1.19362833703138       -0.18774071272209
N           26.68085715379757       -1.42858117915656       -0.14997327577259
H           23.64490677076929        0.06926403052458       -0.21596025421614
H           23.62860519477579        2.67966445306938       -0.10843103542943
H           25.53006198302289        4.57194461718758        0.03953326074106
H           27.30670265657664        5.17141084140153       -1.86580174424151
H           27.33878155085730        8.72851461724949       -1.78399698040794
H           28.61784380386141        9.38569356001772        1.01340268204262
H           29.52930046104647        7.11669501678889        2.99683108525509
H           29.08745736424741        5.03514695198236        2.04931613537048
H           30.84264143481818        4.50499776121528        0.09128935741016
H           32.69947652549044        2.56618951173672        0.12330606887598
H           32.62704574635102       -2.69068768673091        0.02393686038155
H           30.71633364318722       -4.57455759004981       -0.08909297714545
H           28.92218808008982       -5.16028051201894        1.82639967382583
H           28.86497271402161       -8.71762370310582        1.76435987328029
H           27.61377723880625       -9.38134200148812       -1.04398954474358
H           26.74587605357835       -7.11645369515923       -3.05235492177195
H           27.18703945148270       -5.03362103746276       -2.10943310608625
H           25.40583016015000       -4.49070757599468       -0.17396455624233
H           23.55718314171814       -2.54219620328428       -0.23751142816965
Cu          65.33992291246821       -0.03937167992116       -0.01871130699638
C           68.74070005246092       -0.06949375246548       -0.20996200228921
C           68.10047750575085       -1.29703564363210       -0.28558852115810
C           68.77079636997135       -2.56053886510001       -0.39899630355607
C           67.80949944899901       -3.51635599216803       -0.42691143124898
C           66.54143186499033       -2.84409289060943       -0.34098625697366
N           66.74984660756381       -1.49790747112063       -0.24740921948870
C           65.29587227944798       -3.47642501717307       -0.32859296322392
C           65.27735402384781       -4.95580880190256       -0.46301363910970
C           65.76977665280884       -5.55888784743609       -1.62043143605041
C           65.75009726690806       -6.94288601502834       -1.74818492297176
O           66.21953064605567       -7.53858384461223       -2.87163022652838
C           65.24316221571868       -7.72950633984708       -0.71260030451492
O           65.23963464593058       -9.09135247033362       -0.86527163727784
C           64.75515086157630       -7.12732517965954        0.44426983755009
O           64.27792217912977       -7.96448383773630        1.41861559799503
C           64.76666805135874       -5.74377795772333        0.57185431409434
C           64.06774976536983       -2.82404080011752       -0.20447923425905
C           62.78649140072439       -3.46968969392447       -0.24856411258402
C           61.84629139019842       -2.50006598214965       -0.11421785472574
N           63.88651769761432       -1.47386227329229       -0.05491933505313
C           62.54463212306977       -1.25591658871887        0.00559449530402
C           61.91458156958812       -0.00631382932696        0.14641449461334
C           62.57923427046480        1.22924034740551        0.24072232688093
C           61.91647648599886        2.49271075074435        0.36344432552408
C           62.88348366939434        3.44371860415964        0.40681055813376
C           64.14588990697087        2.76602711481335        0.31712297387266
N           63.92676281613873        1.41721458275190        0.21163044428915
C           65.39124543009700        3.39610415186545        0.30256820256700
C           65.41498608462358        4.87562688457975        0.43694830303633
C           64.94468009991485        5.48261807404612        1.60127109795065
C           64.97436930969927        6.86683113522643        1.72649951027714
O           64.52807294873034        7.46669068065127        2.85705731546634
C           65.46810429216542        7.64927876534742        0.68129867206899
O           65.48182189034483        9.01126079538051        0.83179681718535
C           65.93354297228183        7.04290954995436       -0.48262906931899
O           66.39968064078545        7.87566363409153       -1.46616318892981
C           65.91290103400415        5.65927511505943       -0.60744206096267
C           66.61867860476323        2.74293183161414        0.16586904887933
C           67.90458892014159        3.38529462342347        0.19274202879305
C           68.83939988320644        2.41411815638609        0.04367304472806
C           68.13462589044957        1.16939788776294       -0.06569362065892
N           66.79011899158503        1.39690403891867        0.01459460430565
H           69.82478641849838       -0.08036909960372       -0.25671737139823
H           69.84121076956710       -2.68602265658134       -0.44319140089842
H           67.94091245023395       -4.58454788823357       -0.48921217293608
H           66.15227703236715       -4.95779623038148       -2.43524088768592
H           66.11872920659488       -8.49963643108459       -2.77202789304831
H           64.85560707623596       -9.48088737859892       -0.06367649567660
H           63.95847980051645       -7.46081496616027        2.17869207910462
H           64.39735819204051       -5.28268002437712        1.48043910290808
H           62.62901499341521       -4.52786668610098       -0.38110883897026
H           60.77345505625649       -2.60768900630566       -0.10274260338338
H           60.84719744022454        2.62528889261518        0.40487780675449
H           62.75710183090163        4.51160780897161        0.48095587866924
H           64.57179691733435        4.88485394897344        2.42298503926198
H           64.62893097063979        8.42727315665486        2.75285754071247
H           65.85152588751127        9.39790197949764        0.02212456399053
H           66.69823204273510        7.36870922794841       -2.23252693426996
H           66.26526695842524        5.19445507128833       -1.52088270260529
H           68.06563283012677        4.44341343080628        0.32291831148052
H           69.91285735970757        2.51677083377951        0.01657947263750
C           32.96386351209572       -0.06428115688343        0.09387063875897
C           34.18844249086557       -0.07061519837618        0.09177012412142
C           35.53114259179871       -0.07564249671390        0.08323038975433
C           36.76178623485809       -0.07384807473255        0.06391108179004
C           38.09946073568804       -0.06848003920190        0.04275343230001
C           39.33001259606560       -0.05879439131760        0.01642048713686
C           40.67216850563296       -0.04933466392449       -0.00973976060552
C           41.89680282040639       -0.04094280209658       -0.03506888218520
C           51.57652962551477        0.00996722211136        0.04923522616242
C           52.80089557210535        0.01698315097811        0.08379541341780
C           54.14301761122616        0.02321265694221        0.11702041995868
C           55.37349785394726        0.02876418201208        0.14969548684045
C           56.71128437251870        0.02897764311010        0.17001498143050
C           57.94202877562411        0.02516221111776        0.18328579518404
C           59.28482585001460        0.01775092654898        0.18370730023472
C           60.50940585201138        0.00882471037027        0.17547766976359
Cu          46.73687238997659       -0.01237511843450       -0.04163237823682
C           43.30124265993549       -0.03158971192384       -0.05085735210342
C           43.94300933388756        1.21574428804655        0.06064569044957
C           43.25814229674904        2.46207647956661        0.22433074550361
C           44.20865695966845        3.42963892989353        0.28538584435952
C           45.48084972669417        2.77915066520593        0.15248207513284
N           45.28583112371892        1.42952580462908        0.02286629777093
C           46.71766100360133        3.42793321246500        0.17770837975499
C           46.70777720999509        4.90970016941981        0.26863222003784
C           47.28674877801858        5.55225575279232        1.36345506594026
C           47.27916277475408        6.94074563891314        1.46550602191101
O           47.82958828516706        7.57724012356862        2.53224558024404
C           46.69406344715471        7.70751297740014        0.45264855902386
O           46.67621914785802        9.06422613348771        0.52001348274907
C           46.12071732308607        7.05668761304942       -0.64293732236906
O           45.56857838337039        7.86628747314702       -1.60217969207554
C           46.11708491990991        5.67223986417354       -0.74057510655663
C           47.96178785005170        2.79501437689147        0.12896230525825
C           49.22769760256951        3.47011523371375        0.09427356841563
C           50.18893622716364        2.51222722335648        0.05338007867329
N           48.17138443153871        1.44171282444601        0.09299199243375
C           49.51703000726646        1.24812388410418        0.05132543744179
C           50.17225040518324        0.00314808363708        0.01622131679800
C           49.53014653818541       -1.24666575258391       -0.05214755357541
C           50.21318412813035       -2.50518545836027       -0.04956727889460
C           49.26306055956243       -3.47021408345023       -0.14057020065862
C           47.99263463045852       -2.80535346124618       -0.20562609603059
N           48.18828453613233       -1.45118455536948       -0.14254026632223
C           46.75657608299461       -3.44880269907901       -0.29563113158636
C           46.76513660335436       -4.93001895661990       -0.41237176862523
C           47.36888625964501       -5.53775384284187       -1.51369385255661
C           47.36256492254179       -6.92276561419192       -1.63147945195623
O           47.92964199592221       -7.52526163493534       -2.70315650861082
C           46.75858555005345       -7.70105045923163       -0.64197141374408
O           46.77832094849988       -9.08047410334654       -0.79472120131236
C           46.18950453572342       -7.09677981512326        0.47730871498975
O           45.62978285837364       -7.85507835808113        1.46335063032666
C           46.17609450602182       -5.71037339376936        0.58276390245210
C           45.51268000613997       -2.81439881417575       -0.28113859760497
C           44.24826261940525       -3.47781589220663       -0.42644034518932
C           43.28663718270931       -2.52259519763670       -0.35303925609264
C           43.95695403049720       -1.27004443106758       -0.17465274600495
N           45.30211003725758       -1.46849914464170       -0.13833042924312
H           42.18765711598409        2.57287642980368        0.29132847474048
H           44.06422511917325        4.48881052485692        0.42463136745006
H           47.73202198884587        4.96690496993581        2.16009684964758
H           48.20050892493321        6.94541324374690        3.16208720984914
H           46.22974119314546        9.40111682677682       -0.27345571432787
H           45.19731903166043        7.34161255329095       -2.32327205695284
H           45.67644611609163        5.19141890637782       -1.60603057861742
H           49.36109758470275        4.53978608727542        0.08737349243832
H           51.25882855297240        2.64138847997963        0.01696875615964
H           51.28241896202358       -2.62536138037566        0.02070332938929
H           49.40538001096364       -4.53865637148426       -0.14903477434390
H           47.82190765512033       -4.94143742138260       -2.29507913115650
H           47.82797146292199       -8.48657719100268       -2.60179286051546
H           45.92080526919225       -9.46252226222817       -0.56665258713508
H           45.93876579655180       -8.76957272497478        1.39837380264882
H           45.73042628000518       -5.25110970340359        1.45557827605828
H           44.11641573493011       -4.53706251201175       -0.57669163381178
H           42.21754983045584       -2.64475653393932       -0.42239536265184

          :  Hamiltonian                  GFN1-xTB          :
         :: total energy            -403.064710691647 Eh    ::
         :: gradient norm              0.000650391335 Eh/a0 ::
         :: HOMO-LUMO gap              0.000317983338 eV    ::
         :: SCC energy              -408.669827325257 Eh    ::
         :: repulsion energy           5.781406944156 Eh    ::

    * Orbital Energies and Occupations

         #    Occupation            Energy/Eh            Energy/eV
      -------------------------------------------------------------
         1        2.0000           -0.8127511             -22.1161
       ...           ...                  ...                  ...
       341        2.0000           -0.4094539             -11.1418
       342        2.0000           -0.4081913             -11.1075
       343        2.0000           -0.4069406             -11.0734
       344        2.0000           -0.4065817             -11.0637
       345        2.0000           -0.4060618             -11.0495
       346        2.0000           -0.3971853             -10.8080
       347        2.0000           -0.3971514             -10.8070
       348        2.0000           -0.3971060             -10.8058
       349        2.0000           -0.3907159             -10.6319
       350        2.0000           -0.3858005             -10.4982
       351        2.0000           -0.3792191             -10.3191
       352        1.0203           -0.3576460              -9.7320
       353        0.9926           -0.3575868              -9.7304 (HOMO)
       354        0.9871           -0.3575752              -9.7301 (LUMO)
       355        0.0000           -0.3430601              -9.3351
       356                         -0.3352122              -9.1216
       357                         -0.3296477              -8.9702
       358                         -0.3290337              -8.9535
       359                         -0.3289738              -8.9518
       360                         -0.3289517              -8.9512
       361                         -0.3081998              -8.3865
       362                         -0.2996642              -8.1543
       363                         -0.2993804              -8.1466
       364                         -0.2982437              -8.1156
       ...                                ...                  ...
       707                          1.6058954              43.6986
      -------------------------------------------------------------
                  HL-Gap            0.0000117 Eh            0.0003 eV

Wiberg/Mayer (AO) data.
largest (>0.10) Wiberg bond orders for each atom

     #   Z sym  total        # sym  WBO       # sym  WBO       # sym  WBO
 ---------------------------------------------------------------------------
     1  29 Cu   2.190 --     7 N    0.506    43 N    0.506    28 N    0.503
                            21 N    0.503
     2   6 C    3.929 --     3 C    1.362    42 C    1.361    44 H    0.971
     3   6 C    3.917 --     2 C    1.362     7 N    1.229     4 C    1.170
     4   6 C    3.955 --     5 C    1.656     3 C    1.170    45 H    0.975
     5   6 C    3.958 --     4 C    1.656     6 C    1.172    46 H    0.973
     6   6 C    3.912 --     8 C    1.320     7 N    1.238     5 C    1.172
     7   7 N    3.244 --     6 C    1.238     3 C    1.229     1 Cu   0.506
     8   6 C    3.934 --    18 C    1.328     6 C    1.320     9 C    1.025
     9   6 C    3.989 --    10 C    1.399    17 C    1.388     8 C    1.025
    10   6 C    3.977 --     9 C    1.399    11 C    1.380    47 H    0.970
    11   6 C    3.917 --    10 C    1.380    13 C    1.324    12 O    1.052
    12   8 O    2.048 --    11 C    1.052    48 H    0.848
    13   6 C    3.905 --    15 C    1.341    11 C    1.324    14 O    1.020
    14   8 O    2.021 --    13 C    1.020    49 H    0.846
    15   6 C    3.905 --    17 C    1.384    13 C    1.341    16 O    1.013
    16   8 O    2.025 --    15 C    1.013    50 H    0.861
    17   6 C    3.973 --     9 C    1.388    15 C    1.384    51 H    0.970
    18   6 C    3.907 --     8 C    1.328    21 N    1.220    19 C    1.180
    19   6 C    3.954 --    20 C    1.641    18 C    1.180    52 H    0.973
    20   6 C    3.956 --    19 C    1.641    22 C    1.188    53 H    0.974
    21   7 N    3.248 --    22 C    1.258    18 C    1.220     1 Cu   0.503
    22   6 C    3.896 --    21 N    1.258    23 C    1.257    20 C    1.188
    23   6 C    3.939 --    24 C    1.258    22 C    1.257   125 C    1.190
    24   6 C    3.896 --    23 C    1.258    28 N    1.257    25 C    1.186
    25   6 C    3.956 --    26 C    1.643    24 C    1.186    54 H    0.974
    26   6 C    3.954 --    25 C    1.643    27 C    1.179    55 H    0.973
    27   6 C    3.907 --    29 C    1.330    28 N    1.220    26 C    1.179
    28   7 N    3.248 --    24 C    1.257    27 C    1.220     1 Cu   0.503
    29   6 C    3.935 --    27 C    1.330    39 C    1.319    30 C    1.025
    30   6 C    3.989 --    31 C    1.400    38 C    1.387    29 C    1.025
    31   6 C    3.977 --    30 C    1.400    32 C    1.379    56 H    0.970
    32   6 C    3.918 --    31 C    1.379    34 C    1.325    33 O    1.052
    33   8 O    2.048 --    32 C    1.052    57 H    0.848
    34   6 C    3.905 --    36 C    1.341    32 C    1.325    35 O    1.020
    35   8 O    2.021 --    34 C    1.020    58 H    0.846
    36   6 C    3.905 --    38 C    1.384    34 C    1.341    37 O    1.013
    37   8 O    2.024 --    36 C    1.013    59 H    0.861
    38   6 C    3.973 --    30 C    1.387    36 C    1.384    60 H    0.970
    39   6 C    3.912 --    29 C    1.319    43 N    1.239    40 C    1.173
    40   6 C    3.958 --    41 C    1.654    39 C    1.173    61 H    0.973
    41   6 C    3.954 --    40 C    1.654    42 C    1.172    62 H    0.976
    42   6 C    3.917 --     2 C    1.361    43 N    1.229    41 C    1.172
    43   7 N    3.244 --    39 C    1.239    42 C    1.229     1 Cu   0.506
    44   1 H    1.001 --     2 C    0.971
    45   1 H    0.998 --     4 C    0.975
    46   1 H    1.005 --     5 C    0.973
    47   1 H    1.000 --    10 C    0.970
    48   1 H    0.878 --    12 O    0.848
    49   1 H    0.876 --    14 O    0.846
    50   1 H    0.881 --    16 O    0.861
    51   1 H    1.001 --    17 C    0.970
    52   1 H    1.005 --    19 C    0.973
    53   1 H    1.002 --    20 C    0.974
    54   1 H    1.002 --    25 C    0.974
    55   1 H    1.005 --    26 C    0.973
    56   1 H    1.000 --    31 C    0.970
    57   1 H    0.878 --    33 O    0.848
    58   1 H    0.876 --    35 O    0.846
    59   1 H    0.881 --    37 O    0.861
    60   1 H    1.001 --    38 C    0.970
    61   1 H    1.006 --    40 C    0.973
    62   1 H    0.998 --    41 C    0.976
    63  29 Cu   2.194 --    69 N    0.507   105 N    0.507    90 N    0.504
                            83 N    0.504
    64   6 C    3.929 --    65 C    1.362   104 C    1.361   106 H    0.971
    65   6 C    3.917 --    64 C    1.362    69 N    1.228    66 C    1.171
    66   6 C    3.955 --    67 C    1.656    65 C    1.171   107 H    0.975
    67   6 C    3.958 --    66 C    1.656    68 C    1.172   108 H    0.973
    68   6 C    3.912 --    70 C    1.320    69 N    1.238    67 C    1.172
    69   7 N    3.244 --    68 C    1.238    65 C    1.228    63 Cu   0.507
    70   6 C    3.934 --    80 C    1.328    68 C    1.320    71 C    1.026
    71   6 C    3.989 --    72 C    1.399    79 C    1.387    70 C    1.026
    72   6 C    3.977 --    71 C    1.399    73 C    1.380   109 H    0.970
    73   6 C    3.917 --    72 C    1.380    75 C    1.324    74 O    1.052
    74   8 O    2.048 --    73 C    1.052   110 H    0.848
    75   6 C    3.904 --    77 C    1.341    73 C    1.324    76 O    1.020
    76   8 O    2.021 --    75 C    1.020   111 H    0.846
    77   6 C    3.905 --    79 C    1.384    75 C    1.341    78 O    1.013
    78   8 O    2.025 --    77 C    1.013   112 H    0.861
    79   6 C    3.973 --    71 C    1.387    77 C    1.384   113 H    0.970
    80   6 C    3.907 --    70 C    1.328    83 N    1.220    81 C    1.180
    81   6 C    3.954 --    82 C    1.641    80 C    1.180   114 H    0.973
    82   6 C    3.956 --    81 C    1.641    84 C    1.188   115 H    0.974
    83   7 N    3.248 --    84 C    1.257    80 C    1.220    63 Cu   0.504
    84   6 C    3.896 --    85 C    1.257    83 N    1.257    82 C    1.188
    85   6 C    3.939 --    86 C    1.259    84 C    1.257   140 C    1.190
    86   6 C    3.896 --    85 C    1.259    90 N    1.257    87 C    1.186
    87   6 C    3.956 --    88 C    1.643    86 C    1.186   116 H    0.974
    88   6 C    3.954 --    87 C    1.643    89 C    1.179   117 H    0.973
    89   6 C    3.907 --    91 C    1.330    90 N    1.220    88 C    1.179
    90   7 N    3.248 --    86 C    1.257    89 C    1.220    63 Cu   0.504
    91   6 C    3.935 --    89 C    1.330   101 C    1.319    92 C    1.025
    92   6 C    3.989 --    93 C    1.400   100 C    1.387    91 C    1.025
    93   6 C    3.977 --    92 C    1.400    94 C    1.379   118 H    0.970
    94   6 C    3.918 --    93 C    1.379    96 C    1.324    95 O    1.053
    95   8 O    2.048 --    94 C    1.053   119 H    0.847
    96   6 C    3.905 --    98 C    1.341    94 C    1.324    97 O    1.021
    97   8 O    2.021 --    96 C    1.021   120 H    0.846
    98   6 C    3.905 --   100 C    1.384    96 C    1.341    99 O    1.013
    99   8 O    2.024 --    98 C    1.013   121 H    0.861
   100   6 C    3.973 --    92 C    1.387    98 C    1.384   122 H    0.970
   101   6 C    3.912 --    91 C    1.319   105 N    1.239   102 C    1.173
   102   6 C    3.958 --   103 C    1.654   101 C    1.173   123 H    0.973
   103   6 C    3.954 --   102 C    1.654   104 C    1.172   124 H    0.976
   104   6 C    3.917 --    64 C    1.361   105 N    1.229   103 C    1.172
   105   7 N    3.244 --   101 C    1.239   104 C    1.229    63 Cu   0.507
   106   1 H    1.001 --    64 C    0.971
   107   1 H    0.998 --    66 C    0.975
   108   1 H    1.005 --    67 C    0.973
   109   1 H    1.000 --    72 C    0.970
   110   1 H    0.878 --    74 O    0.848
   111   1 H    0.876 --    76 O    0.846
   112   1 H    0.881 --    78 O    0.861
   113   1 H    1.001 --    79 C    0.970
   114   1 H    1.006 --    81 C    0.973
   115   1 H    1.002 --    82 C    0.974
   116   1 H    1.002 --    87 C    0.974
   117   1 H    1.005 --    88 C    0.973
   118   1 H    1.000 --    93 C    0.970
   119   1 H    0.878 --    95 O    0.847
   120   1 H    0.876 --    97 O    0.846
   121   1 H    0.881 --    99 O    0.861
   122   1 H    1.001 --   100 C    0.970
   123   1 H    1.006 --   102 C    0.973
   124   1 H    0.998 --   103 C    0.976
   125   6 C    3.877 --   126 C    2.440    23 C    1.190   128 C    0.187
   126   6 C    3.936 --   125 C    2.440   127 C    1.344
   127   6 C    3.892 --   128 C    2.336   126 C    1.344   130 C    0.182
   128   6 C    3.926 --   127 C    2.336   129 C    1.370   125 C    0.187
   129   6 C    3.924 --   130 C    2.335   128 C    1.370   132 C    0.186
   130   6 C    3.893 --   129 C    2.335   131 C    1.346   127 C    0.182
   131   6 C    3.932 --   132 C    2.436   130 C    1.346
   132   6 C    3.877 --   131 C    2.436   142 C    1.194   129 C    0.186
   133   6 C    3.877 --   134 C    2.437   163 C    1.194   136 C    0.186
   134   6 C    3.932 --   133 C    2.437   135 C    1.345
   135   6 C    3.893 --   136 C    2.335   134 C    1.345   138 C    0.182
   136   6 C    3.924 --   135 C    2.335   137 C    1.370   133 C    0.186
   137   6 C    3.926 --   138 C    2.336   136 C    1.370   140 C    0.187
   138   6 C    3.892 --   137 C    2.336   139 C    1.344   135 C    0.182
   139   6 C    3.936 --   140 C    2.440   138 C    1.344
   140   6 C    3.877 --   139 C    2.440    85 C    1.190   137 C    0.187
   141  29 Cu   2.159 --   168 N    0.498   183 N    0.497   147 N    0.497
                           161 N    0.497
   142   6 C    3.927 --   182 C    1.255   143 C    1.254   132 C    1.194
   143   6 C    3.897 --   147 N    1.260   142 C    1.254   144 C    1.189
   144   6 C    3.954 --   145 C    1.639   143 C    1.189   184 H    0.974
   145   6 C    3.955 --   144 C    1.639   146 C    1.182   185 H    0.973
   146   6 C    3.905 --   148 C    1.322   147 N    1.222   145 C    1.182
   147   7 N    3.240 --   143 C    1.260   146 C    1.222   141 Cu   0.497
   148   6 C    3.930 --   158 C    1.323   146 C    1.322   149 C    1.028
   149   6 C    3.989 --   150 C    1.393   157 C    1.385   148 C    1.028
   150   6 C    3.974 --   149 C    1.393   151 C    1.380   186 H    0.969
   151   6 C    3.915 --   150 C    1.380   153 C    1.322   152 O    1.043
   152   8 O    2.052 --   151 C    1.043   187 H    0.867
   153   6 C    3.916 --   155 C    1.329   151 C    1.322   154 O    1.051
   154   8 O    2.047 --   153 C    1.051   188 H    0.850
   155   6 C    3.904 --   157 C    1.390   153 C    1.329   156 O    1.013
   156   8 O    2.026 --   155 C    1.013   189 H    0.861
   157   6 C    3.974 --   155 C    1.390   149 C    1.385   190 H    0.969
   158   6 C    3.905 --   148 C    1.323   161 N    1.222   159 C    1.182
   159   6 C    3.955 --   160 C    1.639   158 C    1.182   191 H    0.973
   160   6 C    3.954 --   159 C    1.639   162 C    1.189   192 H    0.974
   161   7 N    3.240 --   162 C    1.261   158 C    1.222   141 Cu   0.497
   162   6 C    3.897 --   161 N    1.261   163 C    1.253   160 C    1.189
   163   6 C    3.927 --   164 C    1.256   162 C    1.253   133 C    1.194
   164   6 C    3.897 --   168 N    1.259   163 C    1.256   165 C    1.187
   165   6 C    3.955 --   166 C    1.641   164 C    1.187   193 H    0.974
   166   6 C    3.955 --   165 C    1.641   167 C    1.180   194 H    0.973
   167   6 C    3.905 --   169 C    1.324   168 N    1.222   166 C    1.180
   168   7 N    3.240 --   164 C    1.259   167 C    1.222   141 Cu   0.498
   169   6 C    3.929 --   167 C    1.324   179 C    1.324   170 C    1.026
   170   6 C    3.989 --   171 C    1.398   178 C    1.398   169 C    1.026
   171   6 C    3.976 --   170 C    1.398   172 C    1.377   195 H    0.970
   172   6 C    3.917 --   171 C    1.377   174 C    1.333   173 O    1.055
   173   8 O    2.051 --   172 C    1.055   196 H    0.847
   174   6 C    3.888 --   176 C    1.347   172 C    1.333   175 O    0.979
   175   8 O    1.982 --   174 C    0.979   197 H    0.863
   176   6 C    3.910 --   178 C    1.379   174 C    1.347   177 O    1.028
   177   8 O    2.030 --   176 C    1.028   198 H    0.862
   178   6 C    3.976 --   170 C    1.398   176 C    1.379   199 H    0.970
   179   6 C    3.905 --   169 C    1.324   183 N    1.222   180 C    1.181
   180   6 C    3.955 --   181 C    1.641   179 C    1.181   200 H    0.973
   181   6 C    3.955 --   180 C    1.641   182 C    1.188   201 H    0.974
   182   6 C    3.897 --   183 N    1.260   142 C    1.255   181 C    1.188
   183   7 N    3.240 --   182 C    1.260   179 C    1.222   141 Cu   0.497
   184   1 H    1.002 --   144 C    0.974
   185   1 H    1.005 --   145 C    0.973
   186   1 H    1.001 --   150 C    0.969
   187   1 H    0.887 --   152 O    0.867
   188   1 H    0.881 --   154 O    0.850
   189   1 H    0.882 --   156 O    0.861
   190   1 H    1.001 --   157 C    0.969
   191   1 H    1.005 --   159 C    0.973
   192   1 H    1.002 --   160 C    0.974
   193   1 H    1.002 --   165 C    0.974
   194   1 H    1.005 --   166 C    0.973
   195   1 H    1.000 --   171 C    0.970
   196   1 H    0.881 --   173 O    0.847
   197   1 H    0.884 --   175 O    0.863
   198   1 H    0.885 --   177 O    0.862
   199   1 H    1.000 --   178 C    0.970
   200   1 H    1.005 --   180 C    0.973
   201   1 H    1.002 --   181 C    0.974
 ---------------------------------------------------------------------------

           -------------------------------------------------
          | TOTAL ENERGY             -403.064710691647 Eh   |
          | GRADIENT NORM               0.000650391335 Eh/α |
          | HOMO-LUMO GAP               0.000317983338 eV   |
           -------------------------------------------------

 * finished run on 2022/07/30 at 09:55:29.527
