   * xtb version 6.5.1 (b24c23e) compiled by 'conda@728c89f4b128' on 2022-07-12
          program call               : xtb Zn_Ph3OH_C8_3.xyz --gfn 1 --opt -T 48

   ID    Z sym.   atoms
    1   30 Zn     1, 63, 141
    2    6 C      2-6, 8-11, 13, 15, 17-20, 22-27, 29-32, 34, 36, 38-42,
                  64-68, 70-73, 75, 77, 79-82, 84-89, 91-94, 96, 98, 100-104,
                  125-140, 142-146, 148-151, 153, 155, 157-160, 162-167,
                  169-172, 174, 176, 178-182
    3    7 N      7, 21, 28, 43, 69, 83, 90, 105, 147, 161, 168, 183
    4    8 O      12, 14, 16, 33, 35, 37, 74, 76, 78, 95, 97, 99, 152, 154,
                  156, 173, 175, 177
    5    1 H      44-62, 106-124, 184-201

          :  Hamiltonian                  GFN1-xTB          :
 * total energy  :  -390.7640651 Eh     change       -0.1950809E-08 Eh
 * total energy  :  -391.2507946 Eh     change       -0.4867295E+00 Eh
 * total energy  :  -391.4324696 Eh     change       -0.1816750E+00 Eh
 * total energy  :  -391.5345120 Eh     change       -0.1020424E+00 Eh
 * total energy  :  -391.6180296 Eh     change       -0.8351755E-01 Eh
 * total energy  :  -391.6956505 Eh     change       -0.7762088E-01 Eh
 * total energy  :  -391.7532140 Eh     change       -0.5756349E-01 Eh
 * total energy  :  -391.7863429 Eh     change       -0.3312898E-01 Eh
 * total energy  :  -391.8112016 Eh     change       -0.2485864E-01 Eh
 * total energy  :  -391.8284906 Eh     change       -0.1728906E-01 Eh
 * total energy  :  -391.9042559 Eh     change       -0.2695636E-04 Eh
 * total energy  :  -391.9042766 Eh     change       -0.2064774E-04 Eh
 * total energy  :  -391.9042984 Eh     change       -0.2177494E-04 Eh
 * total energy  :  -391.9043069 Eh     change       -0.8592226E-05 Eh
 * total energy  :  -391.9043156 Eh     change       -0.8683816E-05 Eh
 * total energy  :  -391.9043204 Eh     change       -0.4789802E-05 Eh
 * total energy  :  -391.9043257 Eh     change       -0.5241049E-05 Eh
 * total energy  :  -391.9043319 Eh     change       -0.6270824E-05 Eh
 * total energy  :  -391.9043362 Eh     change       -0.4237590E-05 Eh
   *** GEOMETRY OPTIMIZATION CONVERGED AFTER 67 ITERATIONS ***

 final structure:
================
201
 xtb: 6.5.1 (b24c23e)
Zn          28.12081455790358        0.00420634148320       -0.04161989457309
C           24.71372439626174        0.05306210722415       -0.18678894777807
C           25.34854853244235        1.28792034666559       -0.13143130803138
C           24.67901708826852        2.55785137724105       -0.09338355575688
C           25.64075079507905        3.51172179660105       -0.02376775224414
C           26.91145734886551        2.83605986455738       -0.02859370456988
N           26.69839857030023        1.48973092369536       -0.08681067588437
C           28.16397983595963        3.45827049183598        0.04392367982429
C           28.18238269797499        4.94332098278028        0.08508252809500
C           27.67417174415809        5.68070113106391       -0.98453296623114
C           27.69435561441244        7.07002322360725       -0.94629856519330
O           27.21021007290592        7.79632772220434       -1.98375150078212
C           28.21726190831469        7.72724544179584        0.16848957953681
O           28.22057713557463        9.09789466914588        0.18043811461764
C           28.72142586703293        6.99116673378328        1.23755963538671
O           29.21424424026857        7.70589762568830        2.29823384361461
C           28.70965287083127        5.60242524075138        1.19892163403649
C           29.39922047768508        2.80225640698160        0.07890020059471
C           30.68234226812357        3.44878434003901        0.09451655998449
C           31.62390301099790        2.47082718720033        0.10495883945977
N           29.58696805958317        1.44530340084187        0.07016478926621
C           30.92738878802571        1.21831930535657        0.08894066430979
C           31.55317877009240       -0.04537249284467        0.07824304390066
C           30.89329755185465       -1.29064820869502        0.03774173429652
C           31.55569592300714       -2.56153210817354        0.00675875874953
C           30.58834351496559       -3.51219766885138       -0.04602676863433
C           29.32312833107685       -2.83082879570273       -0.04134016068835
N           29.54730248522361       -1.47988969587393        0.00482321580104
C           28.07125496880542       -3.45077669956683       -0.11072438319812
C           28.04866594831544       -4.93626273760055       -0.13970689424474
C           28.54219224965987       -5.66667475259513        0.94143782117496
C           28.51433761686809       -7.05617761295369        0.91549664640721
O           28.98312239139661       -7.77590885364736        1.96453087555948
C           27.99899882205348       -7.72056335969602       -0.19861851695198
O           27.98721060686608       -9.09137289093416       -0.19799868025992
C           27.51017736156988       -6.99143558373180       -1.27942908222651
O           27.02393755516317       -7.71273770782586       -2.33891528681551
C           27.52906713893522       -5.60244567429898       -1.25290579758841
C           26.83570839265434       -2.79262147241901       -0.15830507694730
C           25.54750951034775       -3.43340688935114       -0.18684023185579
C           24.61148290832207       -2.45169416024172       -0.21325952699088
C           25.31479347848956       -1.20003648479992       -0.19121600572478
N           26.65853324872113       -1.44005683614042       -0.15567473864615
H           23.62857772310377        0.06853954528313       -0.21802507154120
H           23.60849849298858        2.69020644922529       -0.11076350778207
H           25.50626238093221        4.57981223711440        0.03641846436085
H           27.27911536725361        5.18104620501297       -1.85968912734431
H           27.31386567354186        8.73832380478655       -1.77020193869611
H           28.61585209290061        9.38738478436544        1.01818693764878
H           29.54374040295166        7.11397211503055        2.98711853151789
H           29.09171065224668        5.03590733786069        2.04015823193526
H           30.84179694405626        4.51504289133455        0.08307434500409
H           32.69664895288746        2.58084277132395        0.11567729572116
H           32.62502753535684       -2.70060642653976        0.01861553110117
H           30.71833464195331       -4.58123001246810       -0.09600587265052
H           28.93200499479869       -5.16131560775926        1.81567161874940
H           28.87768027394609       -8.71918644313462        1.75760716206858
H           27.60143873471094       -9.38589815081776       -1.03845022336450
H           26.70783451403971       -7.12477326603171       -3.03741437450059
H           27.15843192759941       -5.04153551105412       -2.10297835956661
H           25.38362914493668       -4.49917655848015       -0.17457745843593
H           23.53780919196649       -2.55462652559644       -0.23722570500287
Zn          65.34996421766989       -0.03934918824354       -0.02644814811116
C           68.75521907103263       -0.06986260814621       -0.21018607847476
C           68.12023108830702       -1.30330827636559       -0.28970550597554
C           68.78932512445915       -2.56891409139531       -0.40358808271701
C           67.82769946998280       -3.52494538411239       -0.43442355341148
C           66.55741185060540       -2.85379699882404       -0.34965336238587
N           66.77076517092992       -1.50958271984242       -0.25530158098989
C           65.30518441074359       -3.48084257816801       -0.33666725854574
C           65.28639828299673       -4.96069566569328       -0.46747529821251
C           65.78504487044162       -5.56888942353212       -1.61968004425779
C           65.76486293670796       -6.95330483356473       -1.74251435865932
O           66.23993990316350       -7.55415013080023       -2.86124971617677
C           65.25141516017364       -7.73568117493477       -0.70697904900779
O           65.24782992897545       -9.09856846983113       -0.85387150131165
C           64.75672544233785       -7.12878487711554        0.44445055667717
O           64.27276673193373       -7.96195019252750        1.41944254266597
C           64.76867524010187       -5.74492246285271        0.56696491737853
C           64.07090170364502       -2.83370301979901       -0.21337528177518
C           62.78740435438065       -3.47815542851549       -0.25812652423376
C           61.84688439721017       -2.50817813796662       -0.12537432467051
N           63.88423252382707       -1.48472455214069       -0.06440456025349
C           62.54429618064488       -1.26184111836623       -0.00531317742749
C           61.91952023691426       -0.00545756953937        0.13554931594146
C           62.57980869792858        1.23666217910117        0.23028277192157
C           61.91784450449967        2.50239342244973        0.35131282310773
C           62.88509974949538        3.45350433841436        0.39635045418871
C           64.14992548714227        2.77686764364839        0.30977379234718
N           63.92546398307989        1.42925889493129        0.20457241252540
C           65.40134130438982        3.40150673365473        0.29741558748067
C           65.42465081083074        4.88082556880524        0.43529868349015
C           64.94140596159407        5.48534572263513        1.59586628968194
C           64.96926487083967        6.86907401238713        1.72524410587171
O           64.51018103856367        7.46639340907862        2.85235250667199
C           65.47450451632278        7.65438143712690        0.68779540862511
O           65.48655661780904        9.01639911909586        0.84181331748677
C           65.95320556403078        7.05111260706732       -0.47222632825339
O           66.42993835737249        7.88677028238720       -1.44870992617072
C           65.93418266736798        5.66784806556737       -0.60107775197424
C           66.63583347881892        2.75336504654484        0.16282276648796
C           67.92418891438756        3.39368760356970        0.19432442335275
C           68.85913450043917        2.42164407653846        0.04732719248696
C           68.15506565924204        1.17535537335617       -0.06595678969433
N           66.81195877750518        1.40930941594916        0.01012890050087
H           69.83998698793428       -0.08115493960150       -0.25384118087841
H           69.85955277676489       -2.69792095820573       -0.44614976184653
H           67.96215639602327       -4.59284050513095       -0.49806483534580
H           66.17262968415987       -4.97102173832841       -2.43451174891405
H           66.13771522282993       -8.51460608233757       -2.75744282287209
H           64.85923502749188       -9.48329383819530       -0.05213219926375
H           63.94917246189087       -7.45377727375552        2.17477553539157
H           64.39422810280757       -5.28007486270375        1.47155369845328
H           62.62684807715274       -4.53613796509518       -0.38984332050059
H           60.77421891513834       -2.61914630998712       -0.11581908520183
H           60.84878388768034        2.63844789452730        0.39042252758430
H           62.75514809827406        4.52116726152915        0.46979278462206
H           64.55959222519780        4.88513356731371        2.41169847525291
H           64.61248003807081        8.42710664527813        2.75097077157857
H           65.86299218175387        9.40394640250318        0.03558087988294
H           66.73857562957694        7.38105224216852       -2.21192012470657
H           66.29662401444129        5.20595221367904       -1.51207502133639
H           68.08900754437460        4.45120907062549        0.32601139205652
H           69.93260134404272        2.52697915194857        0.02455406288332
C           32.95781001153025       -0.06223415140884        0.09078255657692
C           34.18287010786064       -0.06941510227448        0.08953157332680
C           35.52523533336424       -0.07321262043474        0.08058799779121
C           36.75624080677095       -0.07142562149733        0.06272087298817
C           38.09366859024447       -0.06592376445813        0.03930365180134
C           39.32455731268714       -0.05905616234926        0.01342199826026
C           40.66654071089386       -0.05034921829654       -0.01216855518249
C           41.89154812531503       -0.04059565537909       -0.03519176085690
C           51.58171048009467        0.00896750295714        0.05059187414397
C           52.80645972205697        0.01575440958306        0.08489055845263
C           54.14836928215274        0.02147068383621        0.11582027879794
C           55.37913845845097        0.02696482317322        0.14696433456571
C           56.71661463628857        0.02826701208412        0.16748058652846
C           57.94772999752127        0.02378315435088        0.17767936918663
C           59.29012355593905        0.01799082248056        0.17585989744577
C           60.51511607061619        0.00975433251525        0.16450140812216
Zn          46.73775655229502       -0.01360863615147       -0.03667433252657
C           43.29563138917372       -0.03189202716334       -0.04896143249846
C           43.93375428228570        1.22174248901758        0.05370361023138
C           43.24943721046355        2.47288572812991        0.18981935708866
C           44.20040336126649        3.44032451282643        0.25268284123084
C           45.47545340043471        2.78809398814624        0.14802706570972
N           45.27607944169664        1.43768237283484        0.03610645997446
C           46.71789978510949        3.43129082801264        0.18349143988405
C           46.70795440522052        4.91374300235764        0.27376564315233
C           47.26908026427927        5.55649472634713        1.37762439357709
C           47.26169157186784        6.94513270208991        1.47895360395135
O           47.79596438280502        7.58072819710885        2.55470724726194
C           46.69379292922666        7.71226770669710        0.45683973629280
O           46.67552900459139        9.06927764032832        0.52322475013030
C           46.13799267105725        7.06133886402644       -0.64762115327463
O           45.60185643050217        7.87088039173732       -1.61630408375194
C           46.13523132897554        5.67686776852689       -0.74528348534645
C           47.96773699685436        2.80303891961777        0.14519384842368
C           49.23609583958120        3.47630364556685        0.13790058553765
C           50.19765486093964        2.51824560238244        0.09691010030565
N           48.18174593584601        1.45119376036660        0.09073023567798
C           49.52663852841275        1.25293564163164        0.06679351739871
C           50.17786818770064        0.00266424525422        0.01907416013710
C           49.53982598948969       -1.25211740351758       -0.06064501602515
C           50.22288771493822       -2.51141279656008       -0.08867879799904
C           49.27225056447115       -3.47654005810058       -0.17835867233492
C           47.99842814711820       -2.81400720104665       -0.21290472358831
N           48.19801741295182       -1.46155372696650       -0.13059200740030
C           46.75638695253706       -3.45319971615563       -0.29105913128413
C           46.76553599723853       -4.93508609972913       -0.40755720632504
C           47.34770405053649       -5.54189210025433       -1.52102477325699
C           47.34349068398505       -6.92697984760397       -1.63757851281070
O           47.89033931450408       -7.52916639863914       -2.72010824096895
C           46.76272988860894       -7.70633660632213       -0.63513174073961
O           46.78437669089094       -9.08659475183595       -0.78596111074852
C           46.21542741806187       -7.10309423837263        0.49541737061230
O           45.68014248491313       -7.86277249955465        1.49360180190981
C           46.20001167731422       -5.71653004196447        0.60008041832856
C           45.50673528983445       -2.82473593995358       -0.26652144855258
C           44.23945427783110       -3.49043780248050       -0.38391445585077
C           43.27744588160790       -2.53510880987567       -0.31160905293369
C           43.94710499600777       -1.27726159010073       -0.16145173290141
N           45.29184968620179       -1.47784949396722       -0.14317078595210
H           42.17832735737061        2.58861847230845        0.23759888174733
H           44.05235651632289        4.50138683171314        0.37343818075185
H           47.70063185220047        4.97137136220433        2.18201221430403
H           48.15677572224698        6.94769292183278        3.18915579125851
H           46.24181475597577        9.40546212597051       -0.27758273800622
H           45.24041413435982        7.34538256995494       -2.34176303389436
H           45.70864287755275        5.19672206852400       -1.61816078842164
H           49.37315056589639        4.54558464933073        0.14991868561434
H           51.26779998905720        2.65013294762179        0.07926368315592
H           51.29312676338260       -2.63416578277915       -0.03971859958984
H           49.41878748909102       -4.54416235783236       -0.20743482070976
H           47.78286483564170       -4.94475071552246       -2.31190036715534
H           47.79631887282919       -8.49070618171002       -2.61309180381562
H           45.92644788288829       -9.46923739070457       -0.56048149137227
H           45.98125847867633       -8.77902016307855        1.41299920786985
H           45.77114726756886       -5.25821798791125        1.48181315871446
H           44.10448830730442       -4.55206430176940       -0.51426598212251
H           42.20781457948532       -2.66243009899828       -0.36273532420116

          :  Hamiltonian                  GFN1-xTB          :
         :: total energy            -391.904336174518 Eh    ::
         :: gradient norm              0.000697304782 Eh/a0 ::
         :: HOMO-LUMO gap              0.925139755584 eV    ::
         :: SCC energy              -397.491534746360 Eh    ::
         :: repulsion energy           5.762568092496 Eh    ::

    * Orbital Energies and Occupations

         #    Occupation            Energy/Eh            Energy/eV
      -------------------------------------------------------------
         1        2.0000           -0.8115831             -22.0843
       ...           ...                  ...                  ...
       327        2.0000           -0.4104294             -11.1684
       328        2.0000           -0.4095341             -11.1440
       329        2.0000           -0.4090489             -11.1308
       330        2.0000           -0.4064700             -11.0606
       331        2.0000           -0.4054300             -11.0323
       332        2.0000           -0.4042087             -10.9991
       333        2.0000           -0.4037913             -10.9877
       334        2.0000           -0.3951408             -10.7523
       335        2.0000           -0.3939947             -10.7211
       336        2.0000           -0.3935305             -10.7085
       337        2.0000           -0.3861884             -10.5087
       338        2.0000           -0.3808788             -10.3642
       339        2.0000           -0.3748277             -10.1996 (HOMO)
       340                         -0.3408295              -9.2744 (LUMO)
       341                         -0.3323300              -9.0432
       342                         -0.3273623              -8.9080
       343                         -0.3270587              -8.8997
       344                         -0.3264062              -8.8820
       345                         -0.3259499              -8.8695
       346                         -0.3059176              -8.3244
       347                         -0.2973617              -8.0916
       348                         -0.2969180              -8.0796
       349                         -0.2957245              -8.0471
       350                         -0.2921048              -7.9486
       ...                                ...                  ...
       692                          1.6074992              43.7423
      -------------------------------------------------------------
                  HL-Gap            0.0339983 Eh            0.9251 eV

Wiberg/Mayer (AO) data.
largest (>0.10) Wiberg bond orders for each atom

     #   Z sym  total        # sym  WBO       # sym  WBO       # sym  WBO
 ---------------------------------------------------------------------------
     1  30 Zn   1.997 --     7 N    0.460    43 N    0.459    28 N    0.457
                            21 N    0.456
     2   6 C    3.926 --     3 C    1.358    42 C    1.356    44 H    0.971
     3   6 C    3.922 --     2 C    1.358     7 N    1.232     4 C    1.171
     4   6 C    3.960 --     5 C    1.659     3 C    1.171    45 H    0.976
     5   6 C    3.963 --     4 C    1.659     6 C    1.172    46 H    0.973
     6   6 C    3.917 --     8 C    1.314     7 N    1.245     5 C    1.172
     7   7 N    3.294 --     6 C    1.245     3 C    1.232     1 Zn   0.460
     8   6 C    3.933 --    18 C    1.325     6 C    1.314     9 C    1.026
     9   6 C    3.989 --    10 C    1.399    17 C    1.387     8 C    1.026
    10   6 C    3.977 --     9 C    1.399    11 C    1.380    47 H    0.970
    11   6 C    3.917 --    10 C    1.380    13 C    1.325    12 O    1.052
    12   8 O    2.047 --    11 C    1.052    48 H    0.848
    13   6 C    3.904 --    15 C    1.341    11 C    1.325    14 O    1.020
    14   8 O    2.020 --    13 C    1.020    49 H    0.846
    15   6 C    3.905 --    17 C    1.384    13 C    1.341    16 O    1.013
    16   8 O    2.024 --    15 C    1.013    50 H    0.861
    17   6 C    3.973 --     9 C    1.387    15 C    1.384    51 H    0.969
    18   6 C    3.912 --     8 C    1.325    21 N    1.224    19 C    1.179
    19   6 C    3.960 --    20 C    1.645    18 C    1.179    52 H    0.974
    20   6 C    3.961 --    19 C    1.645    22 C    1.187    53 H    0.974
    21   7 N    3.296 --    22 C    1.264    18 C    1.224     1 Zn   0.456
    22   6 C    3.901 --    21 N    1.264    23 C    1.251    20 C    1.187
    23   6 C    3.938 --    24 C    1.252    22 C    1.251   125 C    1.195
    24   6 C    3.901 --    28 N    1.264    23 C    1.252    25 C    1.186
    25   6 C    3.962 --    26 C    1.647    24 C    1.186    54 H    0.974
    26   6 C    3.960 --    25 C    1.647    27 C    1.178    55 H    0.973
    27   6 C    3.912 --    29 C    1.327    28 N    1.223    26 C    1.178
    28   7 N    3.297 --    24 C    1.264    27 C    1.223     1 Zn   0.457
    29   6 C    3.933 --    27 C    1.327    39 C    1.312    30 C    1.026
    30   6 C    3.989 --    31 C    1.399    38 C    1.387    29 C    1.026
    31   6 C    3.977 --    30 C    1.399    32 C    1.380    56 H    0.970
    32   6 C    3.917 --    31 C    1.380    34 C    1.325    33 O    1.052
    33   8 O    2.047 --    32 C    1.052    57 H    0.848
    34   6 C    3.904 --    36 C    1.341    32 C    1.325    35 O    1.020
    35   8 O    2.020 --    34 C    1.020    58 H    0.847
    36   6 C    3.905 --    38 C    1.384    34 C    1.341    37 O    1.012
    37   8 O    2.024 --    36 C    1.012    59 H    0.861
    38   6 C    3.973 --    30 C    1.387    36 C    1.384    60 H    0.969
    39   6 C    3.917 --    29 C    1.312    43 N    1.245    40 C    1.173
    40   6 C    3.963 --    41 C    1.657    39 C    1.173    61 H    0.974
    41   6 C    3.960 --    40 C    1.657    42 C    1.172    62 H    0.976
    42   6 C    3.922 --     2 C    1.356    43 N    1.233    41 C    1.172
    43   7 N    3.293 --    39 C    1.245    42 C    1.233     1 Zn   0.459
    44   1 H    1.002 --     2 C    0.971
    45   1 H    0.998 --     4 C    0.976
    46   1 H    1.006 --     5 C    0.973
    47   1 H    1.000 --    10 C    0.970
    48   1 H    0.878 --    12 O    0.848
    49   1 H    0.876 --    14 O    0.846
    50   1 H    0.881 --    16 O    0.861
    51   1 H    1.001 --    17 C    0.969
    52   1 H    1.006 --    19 C    0.974
    53   1 H    1.002 --    20 C    0.974
    54   1 H    1.002 --    25 C    0.974
    55   1 H    1.005 --    26 C    0.973
    56   1 H    1.000 --    31 C    0.970
    57   1 H    0.878 --    33 O    0.848
    58   1 H    0.876 --    35 O    0.847
    59   1 H    0.882 --    37 O    0.861
    60   1 H    1.001 --    38 C    0.969
    61   1 H    1.006 --    40 C    0.974
    62   1 H    0.998 --    41 C    0.976
    63  30 Zn   1.997 --    69 N    0.460   105 N    0.459    90 N    0.457
                            83 N    0.456
    64   6 C    3.926 --    65 C    1.358   104 C    1.356   106 H    0.971
    65   6 C    3.922 --    64 C    1.358    69 N    1.232    66 C    1.171
    66   6 C    3.960 --    67 C    1.659    65 C    1.171   107 H    0.976
    67   6 C    3.963 --    66 C    1.659    68 C    1.172   108 H    0.973
    68   6 C    3.917 --    70 C    1.314    69 N    1.245    67 C    1.172
    69   7 N    3.294 --    68 C    1.245    65 C    1.232    63 Zn   0.460
    70   6 C    3.933 --    80 C    1.325    68 C    1.314    71 C    1.027
    71   6 C    3.989 --    72 C    1.399    79 C    1.387    70 C    1.027
    72   6 C    3.977 --    71 C    1.399    73 C    1.380   109 H    0.970
    73   6 C    3.917 --    72 C    1.380    75 C    1.325    74 O    1.052
    74   8 O    2.047 --    73 C    1.052   110 H    0.848
    75   6 C    3.904 --    77 C    1.341    73 C    1.325    76 O    1.020
    76   8 O    2.020 --    75 C    1.020   111 H    0.846
    77   6 C    3.905 --    79 C    1.384    75 C    1.341    78 O    1.013
    78   8 O    2.024 --    77 C    1.013   112 H    0.861
    79   6 C    3.973 --    71 C    1.387    77 C    1.384   113 H    0.969
    80   6 C    3.912 --    70 C    1.325    83 N    1.224    81 C    1.179
    81   6 C    3.960 --    82 C    1.645    80 C    1.179   114 H    0.974
    82   6 C    3.961 --    81 C    1.645    84 C    1.187   115 H    0.974
    83   7 N    3.296 --    84 C    1.264    80 C    1.224    63 Zn   0.456
    84   6 C    3.901 --    83 N    1.264    85 C    1.251    82 C    1.187
    85   6 C    3.938 --    86 C    1.252    84 C    1.251   140 C    1.195
    86   6 C    3.901 --    90 N    1.264    85 C    1.252    87 C    1.185
    87   6 C    3.962 --    88 C    1.647    86 C    1.185   116 H    0.974
    88   6 C    3.960 --    87 C    1.647    89 C    1.178   117 H    0.973
    89   6 C    3.912 --    91 C    1.327    90 N    1.223    88 C    1.178
    90   7 N    3.297 --    86 C    1.264    89 C    1.223    63 Zn   0.457
    91   6 C    3.933 --    89 C    1.327   101 C    1.312    92 C    1.026
    92   6 C    3.989 --    93 C    1.399   100 C    1.387    91 C    1.026
    93   6 C    3.977 --    92 C    1.399    94 C    1.380   118 H    0.970
    94   6 C    3.917 --    93 C    1.380    96 C    1.325    95 O    1.052
    95   8 O    2.048 --    94 C    1.052   119 H    0.848
    96   6 C    3.904 --    98 C    1.341    94 C    1.325    97 O    1.020
    97   8 O    2.020 --    96 C    1.020   120 H    0.846
    98   6 C    3.905 --   100 C    1.384    96 C    1.341    99 O    1.012
    99   8 O    2.024 --    98 C    1.012   121 H    0.861
   100   6 C    3.973 --    92 C    1.387    98 C    1.384   122 H    0.969
   101   6 C    3.917 --    91 C    1.312   105 N    1.245   102 C    1.173
   102   6 C    3.963 --   103 C    1.657   101 C    1.173   123 H    0.974
   103   6 C    3.960 --   102 C    1.657   104 C    1.172   124 H    0.976
   104   6 C    3.922 --    64 C    1.356   105 N    1.233   103 C    1.172
   105   7 N    3.293 --   101 C    1.245   104 C    1.233    63 Zn   0.459
   106   1 H    1.002 --    64 C    0.971
   107   1 H    0.998 --    66 C    0.976
   108   1 H    1.006 --    67 C    0.973
   109   1 H    1.000 --    72 C    0.970
   110   1 H    0.878 --    74 O    0.848
   111   1 H    0.876 --    76 O    0.846
   112   1 H    0.881 --    78 O    0.861
   113   1 H    1.001 --    79 C    0.969
   114   1 H    1.006 --    81 C    0.974
   115   1 H    1.002 --    82 C    0.974
   116   1 H    1.002 --    87 C    0.974
   117   1 H    1.005 --    88 C    0.973
   118   1 H    1.000 --    93 C    0.970
   119   1 H    0.878 --    95 O    0.848
   120   1 H    0.876 --    97 O    0.846
   121   1 H    0.882 --    99 O    0.861
   122   1 H    1.001 --   100 C    0.969
   123   1 H    1.006 --   102 C    0.974
   124   1 H    0.998 --   103 C    0.976
   125   6 C    3.876 --   126 C    2.435    23 C    1.195   128 C    0.186
   126   6 C    3.933 --   125 C    2.435   127 C    1.347
   127   6 C    3.892 --   128 C    2.332   126 C    1.347   130 C    0.182
   128   6 C    3.924 --   127 C    2.332   129 C    1.372   125 C    0.186
   129   6 C    3.923 --   130 C    2.332   128 C    1.372   132 C    0.186
   130   6 C    3.892 --   129 C    2.332   131 C    1.348   127 C    0.182
   131   6 C    3.930 --   132 C    2.433   130 C    1.348
   132   6 C    3.877 --   131 C    2.433   142 C    1.197   129 C    0.186
   133   6 C    3.877 --   134 C    2.433   163 C    1.197   136 C    0.186
   134   6 C    3.930 --   133 C    2.433   135 C    1.347
   135   6 C    3.892 --   136 C    2.332   134 C    1.347   138 C    0.182
   136   6 C    3.923 --   135 C    2.332   137 C    1.372   133 C    0.186
   137   6 C    3.924 --   138 C    2.332   136 C    1.372   140 C    0.186
   138   6 C    3.892 --   137 C    2.332   139 C    1.347   135 C    0.182
   139   6 C    3.933 --   140 C    2.435   138 C    1.347
   140   6 C    3.876 --   139 C    2.435    85 C    1.195   137 C    0.186
   141  30 Zn   1.993 --   168 N    0.457   183 N    0.456   161 N    0.456
                           147 N    0.455
   142   6 C    3.926 --   182 C    1.250   143 C    1.248   132 C    1.197
   143   6 C    3.902 --   147 N    1.264   142 C    1.248   144 C    1.190
   144   6 C    3.959 --   145 C    1.641   143 C    1.190   184 H    0.974
   145   6 C    3.960 --   144 C    1.641   146 C    1.183   185 H    0.974
   146   6 C    3.910 --   148 C    1.319   147 N    1.224   145 C    1.183
   147   7 N    3.291 --   143 C    1.264   146 C    1.224   141 Zn   0.455
   148   6 C    3.929 --   158 C    1.320   146 C    1.319   149 C    1.027
   149   6 C    3.989 --   150 C    1.393   157 C    1.385   148 C    1.027
   150   6 C    3.974 --   149 C    1.393   151 C    1.380   186 H    0.969
   151   6 C    3.915 --   150 C    1.380   153 C    1.322   152 O    1.043
   152   8 O    2.052 --   151 C    1.043   187 H    0.867
   153   6 C    3.916 --   155 C    1.329   151 C    1.322   154 O    1.050
   154   8 O    2.046 --   153 C    1.050   188 H    0.851
   155   6 C    3.904 --   157 C    1.390   153 C    1.329   156 O    1.012
   156   8 O    2.025 --   155 C    1.012   189 H    0.861
   157   6 C    3.974 --   155 C    1.390   149 C    1.385   190 H    0.969
   158   6 C    3.910 --   148 C    1.320   161 N    1.224   159 C    1.183
   159   6 C    3.960 --   160 C    1.641   158 C    1.183   191 H    0.973
   160   6 C    3.959 --   159 C    1.641   162 C    1.189   192 H    0.974
   161   7 N    3.291 --   162 C    1.265   158 C    1.224   141 Zn   0.456
   162   6 C    3.901 --   161 N    1.265   163 C    1.248   160 C    1.189
   163   6 C    3.926 --   164 C    1.251   162 C    1.248   133 C    1.197
   164   6 C    3.901 --   168 N    1.263   163 C    1.251   165 C    1.188
   165   6 C    3.960 --   166 C    1.644   164 C    1.188   193 H    0.974
   166   6 C    3.960 --   165 C    1.644   167 C    1.181   194 H    0.973
   167   6 C    3.910 --   169 C    1.321   168 N    1.224   166 C    1.181
   168   7 N    3.292 --   164 C    1.263   167 C    1.224   141 Zn   0.457
   169   6 C    3.928 --   179 C    1.321   167 C    1.321   170 C    1.025
   170   6 C    3.989 --   178 C    1.399   171 C    1.398   169 C    1.025
   171   6 C    3.976 --   170 C    1.398   172 C    1.377   195 H    0.970
   172   6 C    3.917 --   171 C    1.377   174 C    1.333   173 O    1.055
   173   8 O    2.051 --   172 C    1.055   196 H    0.847
   174   6 C    3.888 --   176 C    1.348   172 C    1.333   175 O    0.977
   175   8 O    1.980 --   174 C    0.977   197 H    0.864
   176   6 C    3.910 --   178 C    1.378   174 C    1.348   177 O    1.029
   177   8 O    2.031 --   176 C    1.029   198 H    0.862
   178   6 C    3.976 --   170 C    1.399   176 C    1.378   199 H    0.970
   179   6 C    3.910 --   169 C    1.321   183 N    1.224   180 C    1.181
   180   6 C    3.960 --   181 C    1.643   179 C    1.181   200 H    0.974
   181   6 C    3.960 --   180 C    1.643   182 C    1.188   201 H    0.974
   182   6 C    3.901 --   183 N    1.264   142 C    1.250   181 C    1.188
   183   7 N    3.291 --   182 C    1.264   179 C    1.224   141 Zn   0.456
   184   1 H    1.002 --   144 C    0.974
   185   1 H    1.006 --   145 C    0.974
   186   1 H    1.001 --   150 C    0.969
   187   1 H    0.887 --   152 O    0.867
   188   1 H    0.881 --   154 O    0.851
   189   1 H    0.882 --   156 O    0.861
   190   1 H    1.001 --   157 C    0.969
   191   1 H    1.006 --   159 C    0.973
   192   1 H    1.002 --   160 C    0.974
   193   1 H    1.002 --   165 C    0.974
   194   1 H    1.005 --   166 C    0.973
   195   1 H    1.000 --   171 C    0.970
   196   1 H    0.881 --   173 O    0.847
   197   1 H    0.884 --   175 O    0.864
   198   1 H    0.885 --   177 O    0.862
   199   1 H    1.000 --   178 C    0.970
   200   1 H    1.006 --   180 C    0.974
   201   1 H    1.002 --   181 C    0.974
 ---------------------------------------------------------------------------

           -------------------------------------------------
          | TOTAL ENERGY             -391.904336174518 Eh   |
          | GRADIENT NORM               0.000697304782 Eh/α |
          | HOMO-LUMO GAP               0.925139755584 eV   |
           -------------------------------------------------

 * finished run on 2022/07/30 at 12:40:42.752
