   * xtb version 6.5.1 (b24c23e) compiled by 'conda@728c89f4b128' on 2022-07-12
          program call               : xtb Cu_Ph3Me_C6_2.xyz --gfn 1 --opt -T 48

   ID    Z sym.   atoms
    1   29 Cu     1, 75
    2    6 C      2-6, 8-20, 22-27, 29-42, 76-80, 82-94, 96-101, 103-116,
                  149-154
    3    7 N      7, 21, 28, 43, 81, 95, 102, 117
    4    1 H      44-74, 118-148
########################################################################
[WARNING] Please study the warnings concerning your input carefully
-1- prog_main_parseArguments: Unknown option '-T' provided
########################################################################

          :  Hamiltonian                  GFN1-xTB          :
 * total energy  :  -241.1571395 Eh     change       -0.2651745E-09 Eh
 * total energy  :  -241.2465164 Eh     change       -0.8937694E-01 Eh
 * total energy  :  -241.2894710 Eh     change       -0.4295456E-01 Eh
 * total energy  :  -241.2977059 Eh     change       -0.8234898E-02 Eh
 * total energy  :  -241.3022566 Eh     change       -0.4550757E-02 Eh
 * total energy  :  -241.3045338 Eh     change       -0.2277228E-02 Eh
 * total energy  :  -241.3062542 Eh     change       -0.1720363E-02 Eh
 * total energy  :  -241.3072783 Eh     change       -0.1024138E-02 Eh
 * total energy  :  -241.3080144 Eh     change       -0.7360709E-03 Eh
 * total energy  :  -241.3084567 Eh     change       -0.4422610E-03 Eh
 * total energy  :  -241.3103791 Eh     change       -0.2465097E-04 Eh
 * total energy  :  -241.3104051 Eh     change       -0.2594032E-04 Eh
 * total energy  :  -241.3104248 Eh     change       -0.1968702E-04 Eh
 * total energy  :  -241.3104383 Eh     change       -0.1351421E-04 Eh
 * total energy  :  -241.3104500 Eh     change       -0.1169123E-04 Eh
 * total energy  :  -241.3104632 Eh     change       -0.1322743E-04 Eh
 * total energy  :  -241.3104764 Eh     change       -0.1316923E-04 Eh
 * total energy  :  -241.3104865 Eh     change       -0.1012291E-04 Eh
 * total energy  :  -241.3104893 Eh     change       -0.2847355E-05 Eh
   *** GEOMETRY OPTIMIZATION CONVERGED AFTER 44 ITERATIONS ***

 final structure:
================
154
 xtb: 6.5.1 (b24c23e)
Cu          14.48753657495799        0.07835523044866        0.02181717109797
C           11.07446466243706        0.13252413914400       -0.04291582747835
C           11.70936992452313        1.26586035368680        0.44433079444353
C           11.03839692488801        2.44180807352309        0.92255516944340
C           12.00021249135934        3.31719459977790        1.30818622670760
C           13.26765969225621        2.68353044046455        1.06705059733719
N           13.06013337539947        1.43962487808915        0.54441027788464
C           14.51044870503603        3.25926823849618        1.32956583471111
C           14.52307992701389        4.63888462077968        1.89829829933429
C           14.47946400607671        5.74595542779972        1.04594600074423
C           14.41733047257598        5.54474825356594       -0.44488572955889
C           14.49414251742246        7.02612194656936        1.58693431355247
C           14.55074842759661        7.21980386766524        2.96346102943649
C           14.58715238512240        8.61162252521152        3.53479439480468
C           14.59475365757270        6.11113137628831        3.80219273751062
C           14.58120845396055        4.82182850643412        3.28274073687535
C           14.63132909191770        3.62675579116867        4.19717067031742
C           15.74331519258497        2.64974215483823        1.10470943921407
C           17.01590113372517        3.25555092330402        1.37624953989685
C           17.96772699744271        2.35241102735526        1.02810439420248
N           15.93953254867412        1.39291624827495        0.59633884446965
C           17.28362930462437        1.19124582786707        0.54137394860158
C           17.92317084301359        0.02702744608489        0.07911816822769
C           17.26504590358746       -1.11917378473963       -0.40197170331559
C           17.93001148112168       -2.30085693162574       -0.86534715148143
C           16.96371988774417       -3.17666188301765       -1.24223002209798
C           15.70151040636844       -2.53298969289822       -1.01281094854086
N           15.91814761193374       -1.28136617088652       -0.50003021037271
C           14.45911050188402       -3.10569233601787       -1.27796734301327
C           14.44997941846209       -4.48891838124372       -1.83790927187253
C           14.52939447924422       -4.68304074492817       -3.22046126111123
C           14.62125657755755       -3.49536982020222       -4.14121637876215
C           14.52703569006332       -5.97537033282977       -3.72990129257766
C           14.44760264277775       -7.07781418412918       -2.88338498449205
C           14.44372261376648       -8.46855218592259       -3.45860998936483
C           14.36801389006506       -6.87314374678912       -1.51093892644034
C           14.36874203198986       -5.58800031792834       -0.97923791998932
C           14.28706102833341       -5.37459394960323        0.50892843352826
C           13.22631023124057       -2.49043643089773       -1.06262358264903
C           11.94940079757744       -3.08563003085215       -1.34761565373813
C           11.00200876194370       -2.17809833376904       -1.00275054725745
C           11.69144946982906       -1.02129906196056       -0.50448732283671
N           13.03886755082801       -1.23779410921038       -0.55323849537307
H            9.98964920795384        0.14953563112108       -0.06364754730676
H            9.96739613986252        2.56686236451680        0.95473647242310
H           11.87649698807421        4.30509454976213        1.72270433155018
H           13.49491361661993        5.02879912516523       -0.71877524181259
H           15.25502037341524        4.93063005871260       -0.78034925135316
H           14.45077964050780        6.49974051285188       -0.96846187973257
H           14.46026496775028        7.88545880474247        0.92513522361486
H           14.17971584182535        8.62807490758996        4.54586707875231
H           15.61880776380457        8.96872273326148        3.57794377647781
H           14.01629922670799        9.30153607193785        2.91265381824768
H           14.63886332913072        6.25245478674311        4.87719267182867
H           15.55278037681577        3.06447553171835        4.03286042063552
H           14.59283590522560        3.93379296079648        5.24190686208449
H           13.79247497803609        2.95814612204981        3.99581428928072
H           17.15270351347998        4.24635779772069        1.77904433337555
H           19.03950802986080        2.45325308475244        1.09112995309913
H           18.99979395055446       -2.43344627520477       -0.89390054026845
H           17.08429555578096       -4.17156709939142       -1.64007494070797
H           13.78071442336283       -2.81931752154814       -3.97451872719468
H           14.61701126549602       -3.80991245378115       -5.18440572069746
H           15.54034978987259       -2.93844682884046       -3.94833925121029
H           14.58941547404797       -6.12726115310754       -4.80258134964540
H           15.30412178244604       -8.61178843888733       -4.11448414746398
H           14.47782241374868       -9.21877081308626       -2.66874261969274
H           13.54014034204373       -8.62906034451585       -4.05023419653812
H           14.30653932705735       -7.72579353951470       -0.84256516660158
H           13.39262469698776       -4.80164752316963        0.76102610987678
H           15.15375053524685       -4.81062239464333        0.85889713264343
H           14.25222107884223       -6.32663944753782        1.03771854679696
H           11.81034235122990       -4.07213722856445       -1.76059466499078
H            9.92952881873293       -2.26963302734492       -1.07427283688798
Cu          30.53191273080796       -0.07202475696256       -0.03860356624352
C           33.94500275430680       -0.06642767090382       -0.12173877505717
C           33.31020393690055       -1.22160863263178       -0.55481750371075
C           33.98129711198635       -2.40149574587103       -1.02307031580239
C           33.01954875983529       -3.30001267122092       -1.35142071722532
C           31.75202475280931       -2.67558437184749       -1.08764692353654
N           31.95944791724009       -1.41615359897910       -0.60356200801521
C           30.50924869073392       -3.27250737713718       -1.29766492980799
C           30.49661501814115       -4.66180388942087       -1.84233952392719
C           30.54092641064295       -4.87066268535824       -3.22379709112337
C           30.60380833727344       -3.69342013614210       -4.16031613042091
C           30.52613805429196       -6.16898392855803       -3.71963854413932
C           30.46870630063455       -7.26167030345217       -2.86040707514141
C           30.43213875936435       -8.66156585700221       -3.41164520120633
C           30.42394736116741       -7.04222905031687       -1.48767114530626
C           30.43759040238588       -5.75222449402437       -0.96996560880244
C           30.38645210865270       -5.52286432090229        0.51720319020153
C           29.27632115741449       -2.67676822323492       -1.03870672975975
C           28.00377655181142       -3.30167299200405       -1.26308740785300
C           27.05184942525239       -2.40895834884133       -0.88926564488036
N           29.07997774101918       -1.41802993919576       -0.53514550454510
C           27.73583477946649       -1.23433634475326       -0.43580747225194
C           27.09624130722161       -0.07440896746625        0.03702291023845
C           27.75432300709902        1.08556758983400        0.48395968156430
C           27.08923973042980        2.25886496816727        0.96801702467198
C           28.05544262995985        3.15175429283077        1.30265734403166
C           29.31770752872286        2.52861939106421        1.02247824066047
N           29.10119241369912        1.27054322879845        0.52567812020213
C           30.56006280685098        3.12548279634141        1.22775330473592
C           30.56912334791071        4.51127548282583        1.78130363909253
C           30.48962289927302        5.60846947671534        0.91800516448808
C           30.39781474320003        5.38884116118615       -0.56864606892344
C           30.49182345205980        6.89372253734000        1.44504851430953
C           30.57115735814619        7.10324231223449        2.81912556759593
C           30.57485033136884        8.50505094410337        3.36682556085861
C           30.65092602950590        6.00542910829906        3.66781736500385
C           30.65041323670179        4.70995410195567        3.16181675203757
C           30.73259574071591        3.52573149244694        4.08794905679594
C           31.79289928731461        2.53243875140558        0.95736345212782
C           33.06975164318741        3.15927892082353        1.16395942173327
C           34.01723931175221        2.26553844687415        0.78502420869024
C           33.32790067520330        1.08584347972633        0.34354031353581
N           31.98045384158391        1.27580425783348        0.45795289607502
H           35.02983569160141       -0.06450226705513       -0.14778502840232
H           35.05232367797971       -2.51419623906372       -1.08567959033709
H           33.14337039556040       -4.29991403974343       -1.73605627275109
H           31.52654164591418       -3.13202400331230       -4.00072326586224
H           29.76649675322680       -3.01753917859326       -3.97729656919358
H           30.57022999989500       -4.02008110232164       -5.19927109342361
H           30.56051091673028       -6.33097133668177       -4.79209559646340
H           30.83912169850853       -9.37348457418614       -2.69325764219360
H           29.40048439189121       -8.94886014096188       -3.62808845637662
H           31.00330906460387       -8.72889858236451       -4.33800510321220
H           30.37915642878345       -7.88839361166541       -0.80977521881757
H           29.46470006154918       -5.00354649570155        0.78723371070620
H           30.42473621490182       -6.46767287502851        1.05858944211857
H           31.22495221956038       -4.90081288933476        0.83535692936798
H           27.86708491281247       -4.29534129522678       -1.65881110851689
H           25.98006737219132       -2.52521070942956       -0.91424871025406
H           26.01944601276735        2.37419634015487        1.03921356549568
H           27.93475691082169        4.14497418957883        1.70465492514127
H           31.23783393663897        4.78473147061571       -0.91614695894415
H           30.40310819753501        6.33797111851202       -1.10373885974080
H           29.47824170223345        4.85431971982702       -0.81517598227388
H           30.42927980411452        7.74592055127996        0.77612737168110
H           29.71444883114130        9.06238068139753        2.99257349063577
H           30.54060673665162        8.49960210657060        4.45617354613751
H           31.47842759234013        9.03053501014381        3.05113482712032
H           30.71258896742594        6.15802048704137        4.74039731918691
H           31.62780229335092        2.93870426753610        3.87381764861209
H           29.86668879309693        2.87559013004076        3.94939066219884
H           30.76638743934324        3.84663454238401        5.12867051051368
H           33.20869494514854        4.15713942602896        1.54873528586766
H           35.08971563067981        2.38110146725604        0.79707500496211
C           23.12366206953459       -0.04957129654838        0.09456263389125
C           21.89575487756563       -0.03131043093387        0.10189682996940
C           20.55154122131565       -0.01206582719994        0.10269486229883
C           19.32812091458884        0.00758945792244        0.09563427205112
C           24.46789738956204       -0.06153624135950        0.08174309430455
C           25.69129591312227       -0.07149768604999        0.06244628471745

          :  Hamiltonian                  GFN1-xTB          :
         :: total energy            -241.310489333527 Eh    ::
         :: gradient norm              0.000338737918 Eh/a0 ::
         :: HOMO-LUMO gap              0.000019954259 eV    ::
         :: SCC energy              -245.150010633205 Eh    ::
         :: repulsion energy           3.977068206719 Eh    ::

    * Orbital Energies and Occupations

         #    Occupation            Energy/Eh            Energy/eV
      -------------------------------------------------------------
         1        2.0000           -0.7624555             -20.7475
       ...           ...                  ...                  ...
       214        2.0000           -0.4102891             -11.1645
       215        2.0000           -0.4099298             -11.1548
       216        2.0000           -0.4071512             -11.0791
       217        2.0000           -0.4071510             -11.0791
       218        2.0000           -0.4068496             -11.0709
       219        2.0000           -0.4068493             -11.0709
       220        2.0000           -0.4067903             -11.0693
       221        2.0000           -0.4066544             -11.0656
       222        2.0000           -0.3938064             -10.7160
       223        2.0000           -0.3938062             -10.7160
       224        2.0000           -0.3893051             -10.5935
       225        2.0000           -0.3785253             -10.3002
       226        1.0002           -0.3539453              -9.6313 (HOMO)
       227        0.9998           -0.3539446              -9.6313 (LUMO)
       228                         -0.3362539              -9.1499
       229                         -0.3246215              -8.8334
       230                         -0.3241148              -8.8196
       231                         -0.3241145              -8.8196
       232                         -0.2955210              -8.0415
       233                         -0.2873569              -7.8194
       234                         -0.2814733              -7.6593
       235                         -0.2572546              -7.0003
       236                         -0.2545723              -6.9273
       237                         -0.2545705              -6.9272
       ...                                ...                  ...
       502                          1.5845257              43.1171
      -------------------------------------------------------------
                  HL-Gap            0.0000007 Eh            0.0000 eV

Wiberg/Mayer (AO) data.
largest (>0.10) Wiberg bond orders for each atom

     #   Z sym  total        # sym  WBO       # sym  WBO       # sym  WBO
 ---------------------------------------------------------------------------
     1  29 Cu   2.189 --    43 N    0.506     7 N    0.506    21 N    0.503
                            28 N    0.503
     2   6 C    3.928 --     3 C    1.361    42 C    1.361    44 H    0.972
     3   6 C    3.918 --     2 C    1.361     7 N    1.231     4 C    1.170
     4   6 C    3.955 --     5 C    1.656     3 C    1.170    45 H    0.976
     5   6 C    3.958 --     4 C    1.656     6 C    1.171    46 H    0.974
     6   6 C    3.913 --     8 C    1.324     7 N    1.235     5 C    1.171
     7   7 N    3.244 --     6 C    1.235     3 C    1.231     1 Cu   0.506
     8   6 C    3.935 --    18 C    1.333     6 C    1.324     9 C    1.004
     9   6 C    3.987 --    16 C    1.382    10 C    1.381     8 C    1.004
                            13 C    0.104
    10   6 C    3.984 --    12 C    1.421     9 C    1.381    11 C    1.020
                            15 C    0.103
    11   6 C    3.996 --    10 C    1.020    49 H    0.986    48 H    0.975
                            47 H    0.973
    12   6 C    3.993 --    10 C    1.421    13 C    1.413    50 H    0.970
                            16 C    0.103
    13   6 C    3.988 --    15 C    1.415    12 C    1.413    14 C    1.020
                             9 C    0.104
    14   6 C    3.996 --    13 C    1.020    51 H    0.983    53 H    0.982
                            52 H    0.971
    15   6 C    3.993 --    16 C    1.420    13 C    1.415    54 H    0.970
                            10 C    0.103
    16   6 C    3.985 --    15 C    1.420     9 C    1.382    17 C    1.020
                            12 C    0.103
    17   6 C    3.996 --    16 C    1.020    56 H    0.986    57 H    0.975
                            55 H    0.973
    18   6 C    3.908 --     8 C    1.333    21 N    1.218    19 C    1.178
    19   6 C    3.955 --    20 C    1.643    18 C    1.178    58 H    0.974
    20   6 C    3.957 --    19 C    1.643    22 C    1.186    59 H    0.974
    21   7 N    3.249 --    22 C    1.259    18 C    1.218     1 Cu   0.503
    22   6 C    3.898 --    21 N    1.259    23 C    1.258    20 C    1.186
    23   6 C    3.939 --    22 C    1.258    24 C    1.258   152 C    1.189
    24   6 C    3.898 --    28 N    1.259    23 C    1.258    25 C    1.186
    25   6 C    3.957 --    26 C    1.643    24 C    1.186    60 H    0.974
    26   6 C    3.955 --    25 C    1.643    27 C    1.178    61 H    0.974
    27   6 C    3.908 --    29 C    1.333    28 N    1.218    26 C    1.178
    28   7 N    3.248 --    24 C    1.259    27 C    1.218     1 Cu   0.503
    29   6 C    3.935 --    27 C    1.333    39 C    1.324    30 C    1.004
    30   6 C    3.987 --    37 C    1.385    31 C    1.377    29 C    1.004
                            34 C    0.104
    31   6 C    3.984 --    33 C    1.425    30 C    1.377    32 C    1.020
                            36 C    0.102
    32   6 C    3.996 --    31 C    1.020    63 H    0.986    62 H    0.975
                            64 H    0.973
    33   6 C    3.993 --    31 C    1.425    34 C    1.409    65 H    0.971
                            37 C    0.104
    34   6 C    3.988 --    36 C    1.419    33 C    1.409    35 C    1.020
                            30 C    0.104
    35   6 C    3.996 --    34 C    1.020    67 H    0.986    66 H    0.977
                            68 H    0.974
    36   6 C    3.993 --    34 C    1.419    37 C    1.416    69 H    0.970
                            31 C    0.102
    37   6 C    3.984 --    36 C    1.416    30 C    1.385    38 C    1.020
                            33 C    0.104
    38   6 C    3.996 --    37 C    1.020    72 H    0.986    71 H    0.974
                            70 H    0.974
    39   6 C    3.913 --    29 C    1.324    43 N    1.235    40 C    1.171
    40   6 C    3.958 --    41 C    1.656    39 C    1.171    73 H    0.974
    41   6 C    3.955 --    40 C    1.656    42 C    1.171    74 H    0.976
    42   6 C    3.918 --     2 C    1.361    43 N    1.231    41 C    1.171
    43   7 N    3.244 --    39 C    1.235    42 C    1.231     1 Cu   0.506
    44   1 H    1.002 --     2 C    0.972
    45   1 H    0.998 --     4 C    0.976
    46   1 H    1.002 --     5 C    0.974
    47   1 H    1.008 --    11 C    0.973
    48   1 H    1.007 --    11 C    0.975
    49   1 H    1.004 --    11 C    0.986
    50   1 H    1.000 --    12 C    0.970
    51   1 H    1.004 --    14 C    0.983
    52   1 H    1.006 --    14 C    0.971
    53   1 H    1.005 --    14 C    0.982
    54   1 H    1.000 --    15 C    0.970
    55   1 H    1.008 --    17 C    0.973
    56   1 H    1.004 --    17 C    0.986
    57   1 H    1.007 --    17 C    0.975
    58   1 H    1.002 --    19 C    0.974
    59   1 H    1.002 --    20 C    0.974
    60   1 H    1.002 --    25 C    0.974
    61   1 H    1.002 --    26 C    0.974
    62   1 H    1.008 --    32 C    0.975
    63   1 H    1.004 --    32 C    0.986
    64   1 H    1.008 --    32 C    0.973
    65   1 H    0.999 --    33 C    0.971
    66   1 H    1.005 --    35 C    0.977
    67   1 H    1.004 --    35 C    0.986
    68   1 H    1.006 --    35 C    0.974
    69   1 H    1.000 --    36 C    0.970
    70   1 H    1.008 --    38 C    0.974
    71   1 H    1.007 --    38 C    0.974
    72   1 H    1.004 --    38 C    0.986
    73   1 H    1.002 --    40 C    0.974
    74   1 H    0.998 --    41 C    0.976
    75  29 Cu   2.189 --   117 N    0.506    81 N    0.506    95 N    0.503
                           102 N    0.503
    76   6 C    3.928 --    77 C    1.361   116 C    1.361   118 H    0.972
    77   6 C    3.918 --    76 C    1.361    81 N    1.231    78 C    1.170
    78   6 C    3.955 --    79 C    1.656    77 C    1.170   119 H    0.976
    79   6 C    3.958 --    78 C    1.656    80 C    1.171   120 H    0.974
    80   6 C    3.913 --    82 C    1.324    81 N    1.235    79 C    1.171
    81   7 N    3.244 --    80 C    1.235    77 C    1.231    75 Cu   0.506
    82   6 C    3.935 --    92 C    1.333    80 C    1.324    83 C    1.004
    83   6 C    3.987 --    90 C    1.382    84 C    1.381    82 C    1.004
                            87 C    0.104
    84   6 C    3.984 --    86 C    1.421    83 C    1.381    85 C    1.020
                            89 C    0.103
    85   6 C    3.996 --    84 C    1.020   123 H    0.986   122 H    0.975
                           121 H    0.973
    86   6 C    3.993 --    84 C    1.421    87 C    1.413   124 H    0.970
                            90 C    0.103
    87   6 C    3.988 --    89 C    1.415    86 C    1.413    88 C    1.020
                            83 C    0.104
    88   6 C    3.996 --    87 C    1.020   125 H    0.983   127 H    0.982
                           126 H    0.971
    89   6 C    3.993 --    90 C    1.420    87 C    1.415   128 H    0.970
                            84 C    0.103
    90   6 C    3.985 --    89 C    1.420    83 C    1.382    91 C    1.020
                            86 C    0.103
    91   6 C    3.996 --    90 C    1.020   130 H    0.986   131 H    0.975
                           129 H    0.973
    92   6 C    3.908 --    82 C    1.333    95 N    1.218    93 C    1.178
    93   6 C    3.955 --    94 C    1.643    92 C    1.178   132 H    0.974
    94   6 C    3.957 --    93 C    1.643    96 C    1.186   133 H    0.974
    95   7 N    3.249 --    96 C    1.259    92 C    1.218    75 Cu   0.503
    96   6 C    3.898 --    95 N    1.259    97 C    1.258    94 C    1.186
    97   6 C    3.939 --    96 C    1.258    98 C    1.258   154 C    1.189
    98   6 C    3.898 --   102 N    1.259    97 C    1.258    99 C    1.186
    99   6 C    3.957 --   100 C    1.643    98 C    1.186   134 H    0.974
   100   6 C    3.955 --    99 C    1.643   101 C    1.178   135 H    0.974
   101   6 C    3.908 --   103 C    1.333   102 N    1.217   100 C    1.178
   102   7 N    3.248 --    98 C    1.259   101 C    1.217    75 Cu   0.503
   103   6 C    3.935 --   101 C    1.333   113 C    1.324   104 C    1.004
   104   6 C    3.987 --   111 C    1.385   105 C    1.377   103 C    1.004
                           108 C    0.104
   105   6 C    3.984 --   107 C    1.425   104 C    1.377   106 C    1.020
                           110 C    0.102
   106   6 C    3.996 --   105 C    1.020   137 H    0.986   136 H    0.975
                           138 H    0.973
   107   6 C    3.993 --   105 C    1.425   108 C    1.409   139 H    0.971
                           111 C    0.104
   108   6 C    3.988 --   110 C    1.419   107 C    1.409   109 C    1.020
                           104 C    0.104
   109   6 C    3.996 --   108 C    1.020   141 H    0.986   140 H    0.977
                           142 H    0.974
   110   6 C    3.993 --   108 C    1.419   111 C    1.416   143 H    0.970
                           105 C    0.102
   111   6 C    3.984 --   110 C    1.416   104 C    1.385   112 C    1.020
                           107 C    0.104
   112   6 C    3.996 --   111 C    1.020   146 H    0.986   145 H    0.974
                           144 H    0.974
   113   6 C    3.913 --   103 C    1.324   117 N    1.235   114 C    1.171
   114   6 C    3.958 --   115 C    1.656   113 C    1.171   147 H    0.974
   115   6 C    3.955 --   114 C    1.656   116 C    1.171   148 H    0.976
   116   6 C    3.918 --    76 C    1.361   117 N    1.231   115 C    1.171
   117   7 N    3.244 --   113 C    1.235   116 C    1.231    75 Cu   0.506
   118   1 H    1.002 --    76 C    0.972
   119   1 H    0.998 --    78 C    0.976
   120   1 H    1.002 --    79 C    0.974
   121   1 H    1.008 --    85 C    0.973
   122   1 H    1.007 --    85 C    0.975
   123   1 H    1.004 --    85 C    0.986
   124   1 H    1.000 --    86 C    0.970
   125   1 H    1.004 --    88 C    0.983
   126   1 H    1.006 --    88 C    0.971
   127   1 H    1.005 --    88 C    0.982
   128   1 H    1.000 --    89 C    0.970
   129   1 H    1.008 --    91 C    0.973
   130   1 H    1.004 --    91 C    0.986
   131   1 H    1.007 --    91 C    0.975
   132   1 H    1.002 --    93 C    0.974
   133   1 H    1.002 --    94 C    0.974
   134   1 H    1.002 --    99 C    0.974
   135   1 H    1.002 --   100 C    0.974
   136   1 H    1.008 --   106 C    0.975
   137   1 H    1.004 --   106 C    0.986
   138   1 H    1.008 --   106 C    0.973
   139   1 H    0.999 --   107 C    0.971
   140   1 H    1.005 --   109 C    0.977
   141   1 H    1.004 --   109 C    0.986
   142   1 H    1.006 --   109 C    0.974
   143   1 H    1.000 --   110 C    0.970
   144   1 H    1.008 --   112 C    0.974
   145   1 H    1.007 --   112 C    0.974
   146   1 H    1.004 --   112 C    0.986
   147   1 H    1.002 --   114 C    0.974
   148   1 H    0.998 --   115 C    0.976
   149   6 C    3.927 --   150 C    2.371   153 C    1.334   152 C    0.191
   150   6 C    3.927 --   149 C    2.371   151 C    1.334   154 C    0.191
   151   6 C    3.935 --   152 C    2.452   150 C    1.334
   152   6 C    3.891 --   151 C    2.452    23 C    1.189   149 C    0.191
   153   6 C    3.935 --   154 C    2.452   149 C    1.334
   154   6 C    3.891 --   153 C    2.452    97 C    1.189   150 C    0.191
 ---------------------------------------------------------------------------

           -------------------------------------------------
          | TOTAL ENERGY             -241.310489333527 Eh   |
          | GRADIENT NORM               0.000338737918 Eh/α |
          | HOMO-LUMO GAP               0.000019954259 eV   |
           -------------------------------------------------

 * finished run on 2022/07/30 at 08:26:52.932
