   * xtb version 6.5.1 (b24c23e) compiled by 'conda@728c89f4b128' on 2022-07-12
          program call               : xtb H_C6_5.xyz --gfn 1 --opt -T 48

   ID    Z sym.   atoms
    1    6 C      1-5, 7-10, 12-17, 19-23, 38-42, 44-47, 49-54, 56-60,
                  75-103, 105-108, 110-115, 117-121, 135-139, 141-144,
                  146-151, 153-157, 171-175, 177-180, 182-187, 189-193
    2    7 N      6, 11, 18, 24, 43, 48, 55, 61, 104, 109, 116, 122, 140,
                  145, 152, 158, 176, 181, 188, 194
    3    1 H      25-37, 62-74, 123-134, 159-170, 195-206

          :  Hamiltonian                  GFN1-xTB          :
 * total energy  :  -354.9947076 Eh     change       -0.3781321E-07 Eh
 * total energy  :  -357.2195818 Eh     change       -0.2224874E+01 Eh
 * total energy  :  -357.6965730 Eh     change       -0.4769912E+00 Eh
 * total energy  :  -357.9586771 Eh     change       -0.2621041E+00 Eh
 * total energy  :  -358.0589276 Eh     change       -0.1002505E+00 Eh
 * total energy  :  -358.1094248 Eh     change       -0.5049725E-01 Eh
 * total energy  :  -358.1449298 Eh     change       -0.3550492E-01 Eh
 * total energy  :  -358.1759068 Eh     change       -0.3097704E-01 Eh
 * total energy  :  -358.2124476 Eh     change       -0.3654079E-01 Eh
 * total energy  :  -358.2553282 Eh     change       -0.4288065E-01 Eh
 * total energy  :  -358.5983713 Eh     change       -0.5850933E-05 Eh
 * total energy  :  -358.5983854 Eh     change       -0.1413672E-04 Eh
 * total energy  :  -358.5983651 Eh     change        0.2026771E-04 Eh
 * total energy  :  -358.5983947 Eh     change       -0.2960499E-04 Eh
 * total energy  :  -358.5983921 Eh     change        0.2625473E-05 Eh
 * total energy  :  -358.5984047 Eh     change       -0.1255581E-04 Eh
 * total energy  :  -358.5983970 Eh     change        0.7634771E-05 Eh
 * total energy  :  -358.5984137 Eh     change       -0.1668996E-04 Eh
 * total energy  :  -358.5984168 Eh     change       -0.3060847E-05 Eh
   *** GEOMETRY OPTIMIZATION CONVERGED AFTER 80 ITERATIONS ***

 final structure:
================
206
 xtb: 6.5.1 (b24c23e)
C           23.13407007270258       -0.06718671592824       -0.00300738848167
C           23.76080782835686       -1.30532878884869       -0.06532437909919
C           23.15029305171187       -2.59079147073917       -0.12976511956603
C           24.14504733169228       -3.52661563384327       -0.17624464769573
C           25.39443286536645       -2.84273974941751       -0.14180135653280
N           25.11142614858816       -1.50922297002697       -0.07529990253389
C           26.66448831750810       -3.40711706742595       -0.16962821902489
C           27.88375390045215       -2.74580098272838       -0.13675011194781
C           29.16219024552313       -3.43397581034406       -0.17088532898625
C           30.11191576356731       -2.47691777973811       -0.12376704543407
N           28.07724798490053       -1.40029547367363       -0.07027145904873
C           29.40998645384604       -1.20751499834457       -0.06098375769323
C           30.06481383758872        0.04079333263429       -0.00007933375459
C           29.41166181126486        1.28661393388304        0.06176129798540
C           30.01634653260778        2.57104288518191        0.12545731899074
C           29.01752893466662        3.50413258561467        0.17329710294603
C           27.77255789174227        2.81567398043010        0.14014091726048
N           28.06335433590598        1.47973550769989        0.07276014187120
C           26.50395697287808        3.38124288127195        0.17003133192271
C           25.28345323540814        2.71797786246247        0.13750736626381
C           23.99850108761251        3.39952944474343        0.17278214216629
C           23.05511553792252        2.43763791633115        0.12422711129180
C           23.76455216300707        1.16982244675811        0.05954239219395
N           25.10283906058074        1.37827468105508        0.06959643803162
H           22.04926005802547       -0.07597316292592       -0.00344991651781
H           22.08550876446982       -2.76177555358988       -0.13857146997566
H           24.03711020907555       -4.59836050181532       -0.22978529462219
H           25.80322053356654       -0.76815806451613       -0.03806779324382
H           26.69703026366169       -4.49067762247185       -0.22342722297163
H           29.28261973255061       -4.50465945359982       -0.22382168512024
H           31.18456123003429       -2.58821559429335       -0.12947910037273
H           31.08028927241884        2.74581343552466        0.13312119434229
H           29.12181088806883        4.57609096529109        0.22693563624314
H           27.37416991774540        0.73584953466601        0.03637178705952
H           26.47308031191088        4.46472879917981        0.22479851782211
H           23.87196488739421        4.46960886351772        0.22730082496291
H           21.98122097355492        2.54126107375992        0.12997029495231
C           94.71663744608215        0.06311355376610       -0.01257948053079
C           94.09085358863257        1.28407200472350       -0.23013541429139
C           94.70237619141216        2.55076563325986       -0.45558579819866
C           93.70836014839976        3.47412124227431       -0.61930744549367
C           92.45843070694842        2.80102154926916       -0.49904152947624
N           92.74039529661189        1.48617459369432       -0.26565535416428
C           91.18882354982290        3.35856287674151       -0.59685852981856
C           89.96902963491505        2.70773605461105       -0.48026851779732
C           88.69111929658651        3.38745021204873       -0.59904242891551
C           87.74064979244736        2.44480165183925       -0.43115786755752
N           89.77450177824430        1.38134542304166       -0.24566938685456
C           88.44159532990423        1.19252918130358       -0.21087506845634
C           87.78592587118000       -0.03801288774406        0.00484627647303
C           88.43816014550931       -1.26720028271973        0.21965539139322
C           87.83242273661033       -2.53332000457588        0.44214659203199
C           88.83046909739528       -3.45407409360980        0.60544859497437
C           90.07600162071542       -2.77602041863575        0.48742946811920
N           89.78630580099825       -1.45856401816527        0.25459779433860
C           91.34413510023123       -3.33434543833180        0.58839571179584
C           92.56514451853583       -2.68107694444792        0.47445545790061
C           93.84957236588779       -3.35364460737890        0.59590288367523
C           94.79368834874738       -2.40598892628540        0.42808529300639
C           94.08521695549888       -1.15582468522019        0.20446893932349
N           92.74677413752683       -1.36051530937465        0.23959788389689
H           95.80145422281383        0.07100272601303       -0.01372402581992
H           95.76729567786155        2.71843360705875       -0.48581722165060
H           93.81715332173300        4.53055911314913       -0.80707857067338
H           92.04801281911163        0.75623238336118       -0.13553918262061
H           91.15713538331239        4.42682040425060       -0.78628100788207
H           88.57152520503412        4.44317118901641       -0.78565983799881
H           86.66808847831214        2.55555161992855       -0.44958495327650
H           86.76833772453145       -2.70492661005754        0.47131790374800
H           88.72530770111941       -4.51101648423728        0.79160946955242
H           90.47609851333128       -0.72546885083523        0.12644367068965
H           91.37415188976478       -4.40257050629350        0.77782610605782
H           93.97527870186757       -4.40854194034296        0.78416413986968
H           95.86750211212490       -2.50874209906261        0.44770206646597
C           35.26668158547982        0.07760511018741        0.00276902707590
C           34.03766490417858        0.07376919377033        0.00202802190432
C           32.69344743264558        0.06649471939201        0.00173057451433
C           31.46902951468207        0.05541179858488        0.00080957132156
C           36.61075977837158        0.07689591117330        0.00152399860714
C           37.83544431907354        0.07141588055748        0.00351976570320
C           51.44832893655568       -0.00553064964125        0.01243768437210
C           50.21897638074717       -0.00451406059502        0.01214456446454
C           48.87508010643752       -0.00268842839156        0.00984156518501
C           47.65017246668626        0.00339945902768        0.00460580625125
C           52.79222814609198       -0.00551085437589        0.01211649847946
C           54.01715400577041       -0.00479519179110        0.00983799605019
C           67.63174664206568        0.00188340320262        0.00884014467949
C           66.40234253202571        0.00363969898892        0.00937508855027
C           65.05845043585401        0.00359594938359        0.00828508148552
C           63.83360544112254        0.00343077012218        0.00638589640144
C           68.97564118701800       -0.00096923113130        0.00813162495105
C           70.20049179852718       -0.00618313278026        0.00574077152621
C           83.81298508311171       -0.07032393233966        0.01515218177273
C           82.58398796657789       -0.07431181948356        0.01491538029121
C           81.23987293082600       -0.07513575604288        0.01467515896066
C           80.01521458357450       -0.07253503428472        0.01439073286908
C           85.15724086302508       -0.06221440713706        0.01166638556676
C           86.38165893579274       -0.05149575226816        0.00899559294851
C           39.23869299276444        0.06654420898171        0.00352377637784
C           39.88838865257694        1.31652920596209       -0.00997491892235
C           39.28594180882442        2.60211391542937       -0.02293377854678
C           40.28783469600436        3.53449749983201       -0.03504143611978
C           41.53025887721333        2.84276374352344       -0.03030976258785
N           41.23723902651798        1.50668889374432       -0.01492646473339
C           42.80004247022490        3.41082730705237       -0.03938615043631
C           44.02765363460527        2.76646981312344       -0.03308266498564
C           45.29559755391988        3.47476727005823       -0.04213281239553
C           46.26015283931069        2.53133440404010       -0.02979209826087
N           44.24214763155832        1.42252297902330       -0.01631809831140
C           45.57777193706888        1.25061093256402       -0.01363925130923
C           46.24708128260102        0.00845532549730        0.00189521017618
C           45.59714197369210       -1.24152301362807        0.01338741493246
C           46.19942864222062       -2.52729649138252        0.02548141536411
C           45.19747448312005       -3.45953283923784        0.03277408223668
C           43.95502493161590       -2.76770958903941        0.02558486150856
N           44.24834699302448       -1.43146860447870        0.01360931955933
C           42.68547857657897       -3.33577251461247        0.03096484307260
C           41.45762346734974       -2.69141746032402        0.02605554963745
C           40.18969993820848       -3.39971457709923        0.03445382343790
C           39.22516647048580       -2.45620075348206        0.02676982784121
C           39.90758423093536       -1.17554152242861        0.01415408722635
N           41.24344531394476       -1.34763832414934        0.01331948404585
H           38.22241198672231        2.77938822319698       -0.02251709024883
H           40.18555229483884        4.60792466223945       -0.04633098262571
H           41.92122640883697        0.75706364674966       -0.00845236810134
H           42.82211806385057        4.49619960263338       -0.05225623371983
H           45.39973437467137        4.54838503362599       -0.05595029117657
H           47.33103825247370        2.65879422568747       -0.03131754645640
H           47.26291721181634       -2.70470196636312        0.02807501811620
H           45.29955158007826       -4.53298849400323        0.04240990453877
H           43.56440056574908       -0.68181142257484        0.00613301192230
H           42.66331320925919       -4.42117315081712        0.04076526063570
H           40.08545786215578       -4.47334796168250        0.04514941884981
H           38.15428601045556       -2.58358898820988        0.02986506728121
C           55.42025042335212        0.00019922611424        0.00571573253870
C           56.06046575949321        1.25521054791543       -0.01231286803378
C           55.44810586285528        2.53609057424056       -0.02919535491332
C           56.44273984288989        3.47610101396450       -0.04495723030885
C           57.69053463834373        2.79406005314617       -0.03758733059938
N           57.40775698504031        1.45570403931316       -0.01792875796290
C           58.95567194550807        3.37220730727454       -0.04716442074281
C           60.18871329317860        2.73811065649637       -0.03775924058985
C           61.45076168227064        3.45684982406430       -0.04657725798151
C           62.42310835273403        2.52144289753609       -0.03152591217488
N           60.41425489303366        1.39609850973861       -0.01833731780126
C           61.75134848507262        1.23521511614199       -0.01390633602757
C           62.43050556362277       -0.00145204854386        0.00375532976039
C           61.79024500713168       -1.25651521019808        0.01717936294927
C           62.40260211200350       -2.53742878399015        0.03148284498005
C           61.40797229995026       -3.47753314430447        0.03991467573250
C           60.16017949659074       -2.79551596272527        0.03103819980574
N           60.44295173298787       -1.45708322048549        0.01722037818091
C           58.89504606460791       -3.37371600695523        0.03666594325307
C           57.66201848415461       -2.73956107728946        0.03117828932107
C           56.39996655945706       -3.45827880858676        0.04097902175606
C           55.42763477283783       -2.52276623721283        0.03359820756714
C           56.09941870153124       -1.23651380478153        0.01854976654156
N           57.43650203670155       -1.39747274217580        0.01753088057001
H           54.38326013653587        2.70518207485663       -0.02937759014807
H           56.33214380058904        4.54864649556544       -0.06019862144914
H           58.09754780876482        0.71144141832994       -0.00888319077485
H           58.96891553263313        4.45769236631828       -0.06303900224135
H           61.54607229113586        4.53126454364064       -0.06192809384271
H           63.49291820090323        2.65767047511656       -0.03184993320529
H           63.46744690114015       -2.70647713482333        0.03483721331556
H           61.51857033252325       -4.55012344129386        0.05137592011999
H           59.75315613191158       -0.71282442911000        0.00818547915047
H           58.88179599696473       -4.45925885771835        0.04780714364325
H           56.30464367566626       -4.53274443707114        0.05221659678569
H           54.35782447695617       -2.65894820599211        0.03728403610446
C           71.60360409436628       -0.01129338440762        0.00349983816020
C           72.25339627268302        1.23861480723162       -0.01914790015164
C           71.65091769291985        2.52414060717443       -0.04276883238543
C           72.65272861641100        3.45636929647953       -0.06150730175384
C           73.89527833431714        2.76479440082222       -0.04943007457226
N           73.60216050997769        1.42869831230209       -0.02393442925684
C           75.16474509793393        3.33292465034571       -0.06065446688161
C           76.39265397970981        2.68878361060997       -0.04744906352755
C           77.66049832647406        3.39715999579558       -0.05993403345589
C           78.62512193262023        2.45393165567109       -0.03979360615563
N           76.60695220422738        1.34523333186240       -0.02073052107567
C           77.94283643084302        1.17336249341296       -0.01505708800172
C           78.61192316081819       -0.06836198649373        0.01194324811660
C           77.96250515863957       -1.31830921257280        0.03474907667782
C           78.56512311109846       -2.60364913981847        0.05928128799705
C           77.56335267130513       -3.53615154251060        0.07197098770792
C           76.32082767897340       -2.84475038537364        0.05557889400509
N           76.61367403506901       -1.50874069420342        0.03364867995874
C           75.05111136744543       -3.41300765331279        0.06075613761447
C           73.82341657556282       -2.76888741164635        0.04757180293443
C           72.55556623104236       -3.47735404434976        0.05692152377355
C           71.59087718167302       -2.53409211544456        0.04212430862388
C           72.27307220382882       -1.25331249605332        0.02308824228358
N           73.60872830170459       -1.42503496363067        0.02656243923904
H           70.58740257189024        2.70138487483235       -0.04514659294550
H           72.55049684952988        4.52966124549991       -0.08183313611382
H           74.28622985631100        0.67923641864433       -0.01050805706437
H           75.18680919130712        4.41816450024463       -0.08185743501704
H           77.76462921815678        4.47065406692487       -0.08096338128798
H           79.69598645661151        2.58148660070529       -0.04057816890605
H           79.62867521593616       -2.78067041989234        0.06598662999525
H           77.66577215145625       -4.60945584425474        0.09094351520940
H           75.92959446120517       -0.75933797937265        0.01778734510906
H           75.02915140621241       -4.49831805145783        0.07816432914317
H           72.45157675198031       -4.55095479418969        0.07288582873661
H           70.52001158002213       -2.66170984792164        0.04312456368655

          :  Hamiltonian                  GFN1-xTB          :
         :: total energy            -358.598416789006 Eh    ::
         :: gradient norm              0.000578991112 Eh/a0 ::
         :: HOMO-LUMO gap              0.764971903163 eV    ::
         :: SCC energy              -364.996027763571 Eh    ::
         :: repulsion energy           6.560981159017 Eh    ::

    * Orbital Energies and Occupations

         #    Occupation            Energy/Eh            Energy/eV
      -------------------------------------------------------------
         1        2.0000           -0.8063951             -21.9431
       ...           ...                  ...                  ...
       317        2.0000           -0.4148812             -11.2895
       318        2.0000           -0.4148249             -11.2880
       319        2.0000           -0.4140605             -11.2672
       320        2.0000           -0.4015728             -10.9274
       321        2.0000           -0.4013414             -10.9211
       322        2.0000           -0.4013291             -10.9207
       323        2.0000           -0.3999175             -10.8823
       324        2.0000           -0.3999061             -10.8820
       325        2.0000           -0.3930265             -10.6948
       326        2.0000           -0.3900184             -10.6129
       327        2.0000           -0.3856629             -10.4944
       328        2.0000           -0.3809174             -10.3653
       329        2.0000           -0.3774131             -10.2699 (HOMO)
       330        0.0000           -0.3493009              -9.5050 (LUMO)
       331                         -0.3446319              -9.3779
       332                         -0.3390653              -9.2264
       333                         -0.3339154              -9.0863
       334                         -0.3330164              -9.0618
       335                         -0.3327707              -9.0552
       336                         -0.3325401              -9.0489
       337                         -0.3318957              -9.0313
       338                         -0.3315953              -9.0232
       339                         -0.3305983              -8.9960
       340                         -0.3106721              -8.4538
       ...                                ...                  ...
       700                          1.5753574              42.8677
      -------------------------------------------------------------
                  HL-Gap            0.0281122 Eh            0.7650 eV

Wiberg/Mayer (AO) data.
largest (>0.10) Wiberg bond orders for each atom

     #   Z sym  total        # sym  WBO       # sym  WBO       # sym  WBO
 ---------------------------------------------------------------------------
     1   6 C    3.930 --    23 C    1.364     2 C    1.349    25 H    0.972
     2   6 C    3.903 --     1 C    1.349     3 C    1.225     6 N    1.172
     3   6 C    3.954 --     4 C    1.602     2 C    1.225    26 H    0.977
     4   6 C    3.958 --     3 C    1.602     5 C    1.226    27 H    0.977
     5   6 C    3.897 --     7 C    1.342     4 C    1.226     6 N    1.174
     6   7 N    3.472 --     5 C    1.174     2 C    1.172    28 H    0.873
     7   6 C    3.944 --     8 C    1.379     5 C    1.342    29 H    0.971
     8   6 C    3.915 --     7 C    1.379    11 N    1.277     9 C    1.119
     9   6 C    3.965 --    10 C    1.717     8 C    1.119    30 H    0.976
    10   6 C    3.964 --     9 C    1.717    12 C    1.124    31 H    0.975
    11   7 N    3.026 --    12 C    1.353     8 C    1.277
    12   6 C    3.908 --    11 N    1.353    13 C    1.250    10 C    1.124
    13   6 C    3.942 --    14 C    1.252    12 C    1.250    78 C    1.195
    14   6 C    3.884 --    13 C    1.252    15 C    1.245    18 N    1.193
    15   6 C    3.959 --    16 C    1.589    14 C    1.245    32 H    0.975
    16   6 C    3.953 --    15 C    1.589    17 C    1.233    33 H    0.977
    17   6 C    3.899 --    19 C    1.350    16 C    1.233    18 N    1.161
    18   7 N    3.476 --    14 C    1.193    17 C    1.161    34 H    0.873
    19   6 C    3.929 --    20 C    1.364    17 C    1.350    35 H    0.971
    20   6 C    3.930 --    19 C    1.364    24 N    1.309    21 C    1.112
    21   6 C    3.967 --    22 C    1.730    20 C    1.112    36 H    0.976
    22   6 C    3.966 --    21 C    1.730    23 C    1.113    37 H    0.976
    23   6 C    3.929 --     1 C    1.364    24 N    1.307    22 C    1.113
    24   7 N    3.016 --    20 C    1.309    23 C    1.307
    25   1 H    1.001 --     1 C    0.972
    26   1 H    0.998 --     3 C    0.977
    27   1 H    0.998 --     4 C    0.977
    28   1 H    0.986 --     6 N    0.873
    29   1 H    1.002 --     7 C    0.971
    30   1 H    0.998 --     9 C    0.976
    31   1 H    1.002 --    10 C    0.975
    32   1 H    1.001 --    15 C    0.975
    33   1 H    0.998 --    16 C    0.977
    34   1 H    0.987 --    18 N    0.873
    35   1 H    1.002 --    19 C    0.971
    36   1 H    0.998 --    21 C    0.976
    37   1 H    0.998 --    22 C    0.976
    38   6 C    3.930 --    60 C    1.364    39 C    1.349    62 H    0.972
    39   6 C    3.903 --    38 C    1.349    40 C    1.225    43 N    1.172
    40   6 C    3.954 --    41 C    1.602    39 C    1.225    63 H    0.977
    41   6 C    3.958 --    40 C    1.602    42 C    1.226    64 H    0.977
    42   6 C    3.897 --    44 C    1.342    41 C    1.226    43 N    1.174
    43   7 N    3.472 --    42 C    1.174    39 C    1.172    65 H    0.873
    44   6 C    3.944 --    45 C    1.379    42 C    1.342    66 H    0.971
    45   6 C    3.915 --    44 C    1.379    48 N    1.277    46 C    1.119
    46   6 C    3.965 --    47 C    1.717    45 C    1.119    67 H    0.976
    47   6 C    3.964 --    46 C    1.717    49 C    1.124    68 H    0.975
    48   7 N    3.026 --    49 C    1.353    45 C    1.277
    49   6 C    3.908 --    48 N    1.353    50 C    1.250    47 C    1.124
    50   6 C    3.942 --    51 C    1.252    49 C    1.250    98 C    1.195
    51   6 C    3.884 --    50 C    1.252    52 C    1.245    55 N    1.193
    52   6 C    3.959 --    53 C    1.589    51 C    1.245    69 H    0.975
    53   6 C    3.953 --    52 C    1.589    54 C    1.233    70 H    0.977
    54   6 C    3.899 --    56 C    1.350    53 C    1.233    55 N    1.161
    55   7 N    3.476 --    51 C    1.193    54 C    1.161    71 H    0.873
    56   6 C    3.929 --    57 C    1.364    54 C    1.350    72 H    0.971
    57   6 C    3.930 --    56 C    1.364    61 N    1.309    58 C    1.112
    58   6 C    3.967 --    59 C    1.730    57 C    1.112    73 H    0.976
    59   6 C    3.966 --    58 C    1.730    60 C    1.113    74 H    0.976
    60   6 C    3.929 --    38 C    1.364    61 N    1.307    59 C    1.113
    61   7 N    3.016 --    57 C    1.309    60 C    1.307
    62   1 H    1.001 --    38 C    0.972
    63   1 H    0.998 --    40 C    0.977
    64   1 H    0.998 --    41 C    0.977
    65   1 H    0.986 --    43 N    0.873
    66   1 H    1.002 --    44 C    0.971
    67   1 H    0.998 --    46 C    0.976
    68   1 H    1.002 --    47 C    0.975
    69   1 H    1.001 --    52 C    0.975
    70   1 H    0.998 --    53 C    0.977
    71   1 H    0.987 --    55 N    0.873
    72   1 H    1.002 --    56 C    0.971
    73   1 H    0.998 --    58 C    0.976
    74   1 H    0.998 --    59 C    0.976
    75   6 C    3.925 --    76 C    2.363    79 C    1.339    78 C    0.190
    76   6 C    3.923 --    75 C    2.363    77 C    1.338    80 C    0.189
    77   6 C    3.932 --    78 C    2.445    76 C    1.338
    78   6 C    3.889 --    77 C    2.445    13 C    1.195    75 C    0.190
    79   6 C    3.929 --    80 C    2.442    75 C    1.339
    80   6 C    3.891 --    79 C    2.442    99 C    1.199    76 C    0.189
    81   6 C    3.923 --    82 C    2.360    85 C    1.340    84 C    0.189
    82   6 C    3.923 --    81 C    2.360    83 C    1.340    86 C    0.189
    83   6 C    3.929 --    84 C    2.440    82 C    1.340
    84   6 C    3.889 --    83 C    2.440   111 C    1.200    81 C    0.189
    85   6 C    3.929 --    86 C    2.440    81 C    1.340
    86   6 C    3.889 --    85 C    2.440   135 C    1.200    82 C    0.189
    87   6 C    3.923 --    88 C    2.360    91 C    1.340    90 C    0.189
    88   6 C    3.923 --    87 C    2.360    89 C    1.340    92 C    0.189
    89   6 C    3.929 --    90 C    2.440    88 C    1.340
    90   6 C    3.889 --    89 C    2.440   147 C    1.200    87 C    0.189
    91   6 C    3.929 --    92 C    2.440    87 C    1.340
    92   6 C    3.889 --    91 C    2.440   171 C    1.200    88 C    0.189
    93   6 C    3.923 --    94 C    2.364    97 C    1.338    96 C    0.189
    94   6 C    3.925 --    93 C    2.364    95 C    1.338    98 C    0.190
    95   6 C    3.929 --    96 C    2.443    94 C    1.338
    96   6 C    3.891 --    95 C    2.443   183 C    1.198    93 C    0.189
    97   6 C    3.932 --    98 C    2.445    93 C    1.338
    98   6 C    3.889 --    97 C    2.445    50 C    1.195    94 C    0.190
    99   6 C    3.928 --   121 C    1.250   100 C    1.247    80 C    1.199
   100   6 C    3.885 --   101 C    1.250    99 C    1.247   104 N    1.193
   101   6 C    3.956 --   102 C    1.582   100 C    1.250   123 H    0.975
   102   6 C    3.954 --   101 C    1.582   103 C    1.239   124 H    0.977
   103   6 C    3.894 --   105 C    1.338   102 C    1.239   104 N    1.164
   104   7 N    3.473 --   100 C    1.193   103 C    1.164   125 H    0.872
   105   6 C    3.932 --   106 C    1.383   103 C    1.338   126 H    0.970
   106   6 C    3.917 --   105 C    1.383   109 N    1.274   107 C    1.119
   107   6 C    3.965 --   108 C    1.716   106 C    1.119   127 H    0.976
   108   6 C    3.963 --   107 C    1.716   110 C    1.125   128 H    0.975
   109   7 N    3.013 --   110 C    1.354   106 C    1.274
   110   6 C    3.908 --   109 N    1.354   111 C    1.249   108 C    1.125
   111   6 C    3.928 --   110 C    1.249   112 C    1.247    84 C    1.200
   112   6 C    3.885 --   113 C    1.249   111 C    1.247   116 N    1.193
   113   6 C    3.956 --   114 C    1.583   112 C    1.249   129 H    0.975
   114   6 C    3.954 --   113 C    1.583   115 C    1.238   130 H    0.977
   115   6 C    3.894 --   117 C    1.339   114 C    1.238   116 N    1.163
   116   7 N    3.472 --   112 C    1.193   115 C    1.163   131 H    0.872
   117   6 C    3.931 --   118 C    1.381   115 C    1.339   132 H    0.970
   118   6 C    3.917 --   117 C    1.381   122 N    1.276   119 C    1.119
   119   6 C    3.965 --   120 C    1.716   118 C    1.119   133 H    0.976
   120   6 C    3.964 --   119 C    1.716   121 C    1.125   134 H    0.975
   121   6 C    3.908 --   122 N    1.352    99 C    1.250   120 C    1.125
   122   7 N    3.014 --   121 C    1.352   118 C    1.276
   123   1 H    1.001 --   101 C    0.975
   124   1 H    0.998 --   102 C    0.977
   125   1 H    0.986 --   104 N    0.872
   126   1 H    1.002 --   105 C    0.970
   127   1 H    0.998 --   107 C    0.976
   128   1 H    1.002 --   108 C    0.975
   129   1 H    1.001 --   113 C    0.975
   130   1 H    0.998 --   114 C    0.977
   131   1 H    0.986 --   116 N    0.872
   132   1 H    1.002 --   117 C    0.970
   133   1 H    0.998 --   119 C    0.976
   134   1 H    1.002 --   120 C    0.975
   135   6 C    3.927 --   157 C    1.249   136 C    1.247    86 C    1.200
   136   6 C    3.885 --   137 C    1.250   135 C    1.247   140 N    1.193
   137   6 C    3.955 --   138 C    1.583   136 C    1.250   159 H    0.975
   138   6 C    3.954 --   137 C    1.583   139 C    1.238   160 H    0.977
   139   6 C    3.894 --   141 C    1.338   138 C    1.238   140 N    1.164
   140   7 N    3.472 --   136 C    1.193   139 C    1.164   161 H    0.872
   141   6 C    3.931 --   142 C    1.382   139 C    1.338   162 H    0.970
   142   6 C    3.917 --   141 C    1.382   145 N    1.275   143 C    1.119
   143   6 C    3.965 --   144 C    1.716   142 C    1.119   163 H    0.976
   144   6 C    3.963 --   143 C    1.716   146 C    1.125   164 H    0.975
   145   7 N    3.013 --   146 C    1.353   142 C    1.275
   146   6 C    3.908 --   145 N    1.353   147 C    1.249   144 C    1.125
   147   6 C    3.927 --   146 C    1.249   148 C    1.247    90 C    1.200
   148   6 C    3.885 --   149 C    1.250   147 C    1.247   152 N    1.193
   149   6 C    3.955 --   150 C    1.583   148 C    1.250   165 H    0.975
   150   6 C    3.954 --   149 C    1.583   151 C    1.238   166 H    0.977
   151   6 C    3.894 --   153 C    1.338   150 C    1.238   152 N    1.164
   152   7 N    3.472 --   148 C    1.193   151 C    1.164   167 H    0.872
   153   6 C    3.931 --   154 C    1.382   151 C    1.338   168 H    0.970
   154   6 C    3.917 --   153 C    1.382   158 N    1.275   155 C    1.119
   155   6 C    3.965 --   156 C    1.716   154 C    1.119   169 H    0.976
   156   6 C    3.963 --   155 C    1.716   157 C    1.125   170 H    0.975
   157   6 C    3.908 --   158 N    1.353   135 C    1.249   156 C    1.125
   158   7 N    3.013 --   157 C    1.353   154 C    1.275
   159   1 H    1.001 --   137 C    0.975
   160   1 H    0.998 --   138 C    0.977
   161   1 H    0.986 --   140 N    0.872
   162   1 H    1.002 --   141 C    0.970
   163   1 H    0.998 --   143 C    0.976
   164   1 H    1.002 --   144 C    0.975
   165   1 H    1.001 --   149 C    0.975
   166   1 H    0.998 --   150 C    0.977
   167   1 H    0.986 --   152 N    0.872
   168   1 H    1.002 --   153 C    0.970
   169   1 H    0.998 --   155 C    0.976
   170   1 H    1.002 --   156 C    0.975
   171   6 C    3.928 --   193 C    1.249   172 C    1.247    92 C    1.200
   172   6 C    3.885 --   173 C    1.249   171 C    1.247   176 N    1.193
   173   6 C    3.956 --   174 C    1.583   172 C    1.249   195 H    0.975
   174   6 C    3.954 --   173 C    1.583   175 C    1.238   196 H    0.977
   175   6 C    3.894 --   177 C    1.339   174 C    1.238   176 N    1.163
   176   7 N    3.472 --   172 C    1.193   175 C    1.163   197 H    0.872
   177   6 C    3.931 --   178 C    1.381   175 C    1.339   198 H    0.970
   178   6 C    3.917 --   177 C    1.381   181 N    1.276   179 C    1.119
   179   6 C    3.965 --   180 C    1.716   178 C    1.119   199 H    0.976
   180   6 C    3.964 --   179 C    1.716   182 C    1.125   200 H    0.975
   181   7 N    3.014 --   182 C    1.352   178 C    1.276
   182   6 C    3.908 --   181 N    1.352   183 C    1.250   180 C    1.125
   183   6 C    3.928 --   182 C    1.250   184 C    1.248    96 C    1.198
   184   6 C    3.885 --   185 C    1.250   183 C    1.248   188 N    1.193
   185   6 C    3.956 --   186 C    1.583   184 C    1.250   201 H    0.975
   186   6 C    3.954 --   185 C    1.583   187 C    1.239   202 H    0.977
   187   6 C    3.894 --   189 C    1.338   186 C    1.239   188 N    1.164
   188   7 N    3.473 --   184 C    1.193   187 C    1.164   203 H    0.872
   189   6 C    3.932 --   190 C    1.383   187 C    1.338   204 H    0.970
   190   6 C    3.917 --   189 C    1.383   194 N    1.274   191 C    1.119
   191   6 C    3.965 --   192 C    1.716   190 C    1.119   205 H    0.976
   192   6 C    3.963 --   191 C    1.716   193 C    1.125   206 H    0.975
   193   6 C    3.908 --   194 N    1.354   171 C    1.249   192 C    1.125
   194   7 N    3.014 --   193 C    1.354   190 C    1.274
   195   1 H    1.001 --   173 C    0.975
   196   1 H    0.998 --   174 C    0.977
   197   1 H    0.986 --   176 N    0.872
   198   1 H    1.002 --   177 C    0.970
   199   1 H    0.998 --   179 C    0.976
   200   1 H    1.002 --   180 C    0.975
   201   1 H    1.001 --   185 C    0.975
   202   1 H    0.998 --   186 C    0.977
   203   1 H    0.986 --   188 N    0.872
   204   1 H    1.002 --   189 C    0.970
   205   1 H    0.998 --   191 C    0.976
   206   1 H    1.002 --   192 C    0.975
 ---------------------------------------------------------------------------

           -------------------------------------------------
          | TOTAL ENERGY             -358.598416789006 Eh   |
          | GRADIENT NORM               0.000578991112 Eh/α |
          | HOMO-LUMO GAP               0.764971903163 eV   |
           -------------------------------------------------

 * finished run on 2022/07/26 at 15:55:28.807
