   * xtb version 6.5.1 (b24c23e) compiled by 'conda@728c89f4b128' on 2022-07-12
          program call               : xtb Ni_Ph_C6_2.xyz --gfn 1 --opt -T 48

   ID    Z sym.   atoms
    1   28 Ni     1, 57
    2    6 C      2-6, 8-11, 13-29, 32-37, 58-62, 64-67, 69-85, 88-93, 113-118
    3    7 N      7, 12, 30, 31, 63, 68, 86, 87
    4    1 H      38-56, 94-112
########################################################################
[WARNING] Please study the warnings concerning your input carefully
-1- prog_main_parseArguments: Unknown option '-T' provided
########################################################################

          :  Hamiltonian                  GFN1-xTB          :
 * total energy  :  -200.0490455 Eh     change       -0.3705622E-09 Eh
 * total energy  :  -201.7355114 Eh     change       -0.1686466E+01 Eh
 * total energy  :  -201.9195496 Eh     change       -0.1840382E+00 Eh
 * total energy  :  -201.9943357 Eh     change       -0.7478616E-01 Eh
 * total energy  :  -202.0395779 Eh     change       -0.4524213E-01 Eh
 * total energy  :  -202.0603791 Eh     change       -0.2080120E-01 Eh
 * total energy  :  -202.0748402 Eh     change       -0.1446116E-01 Eh
 * total energy  :  -202.0853632 Eh     change       -0.1052299E-01 Eh
 * total energy  :  -202.0925919 Eh     change       -0.7228663E-02 Eh
 * total energy  :  -202.0980191 Eh     change       -0.5427179E-02 Eh
 * total energy  :  -202.1159041 Eh     change       -0.5610905E-05 Eh
 * total energy  :  -202.1159108 Eh     change       -0.6718187E-05 Eh
 * total energy  :  -202.1159175 Eh     change       -0.6693261E-05 Eh
 * total energy  :  -202.1159231 Eh     change       -0.5609737E-05 Eh
 * total energy  :  -202.1159283 Eh     change       -0.5222405E-05 Eh
 * total energy  :  -202.1159337 Eh     change       -0.5369200E-05 Eh
 * total energy  :  -202.1159396 Eh     change       -0.5880067E-05 Eh
 * total energy  :  -202.1159453 Eh     change       -0.5752749E-05 Eh
 * total energy  :  -202.1159503 Eh     change       -0.4941438E-05 Eh
   *** GEOMETRY OPTIMIZATION CONVERGED AFTER 57 ITERATIONS ***

 final structure:
================
118
 xtb: 6.5.1 (b24c23e)
Ni          12.76945026127938       -0.04121962354175       -0.02416255877073
C            9.37638947474837       -0.06267269836363       -0.05697663432031
C           10.03283488959613       -1.26204857900599       -0.23843407408216
C            9.35816374924024       -2.50991146520954       -0.42766849410648
C           10.31442448474851       -3.46712957112159       -0.45875569149689
C           11.57401301958246       -2.80168667430895       -0.29760700084440
N           11.39171744304434       -1.44613927619129       -0.18092466175272
C           12.78819712680754       -3.46508860740785       -0.18315898909576
C           13.99510548668807       -2.80042028134287       -0.01868115839185
C           15.26008230017914       -3.46495443359636        0.06813195211253
C           16.20851446256429       -2.49857439852020        0.10019920727718
N           14.16817937994788       -1.43418742777234       -0.02241323658999
C           15.52190781884094       -1.24809115077314        0.02963582365278
C           16.18262949778622       -0.01887964990367       -0.04658546680690
C           15.50339214347610        1.20145027864220       -0.09715292160543
C           16.16944059812754        2.46115626980867       -0.19210130850074
C           15.20954627862655        3.41441576780447       -0.12127353609899
C           13.95930117392682        2.73249389203173        0.02341480006905
C           12.74341837461959        3.38073502594548        0.19384957282680
C           12.73619402656672        4.86026477923951        0.29657009175042
C           12.06720007530586        5.63318878136932       -0.65322700516215
C           12.06545219620789        7.01656838868745       -0.55540114149629
C           12.72628906528753        7.64337786798048        0.49229746975502
C           13.39250602960092        6.88091630543086        1.44210466364318
C           13.40075740895074        5.49758523919790        1.34511803614012
C           11.53501227325311        2.69986521501961        0.26522915890244
C           10.26773505677187        3.33949503547624        0.46575684748729
C            9.32323417197246        2.37352882412768        0.38182940649412
C           10.01468172954523        1.14309202816515        0.14640315048149
N           11.37146139778181        1.34606769374991        0.10717212721513
N           14.14955426488465        1.36899793750447        0.00138809453182
C           12.79758554171340       -4.94863526420354       -0.24622506324290
C           12.47336095640878       -5.60569323649369       -1.43304587957241
C           12.48719519193847       -6.99135653403624       -1.49177323326004
C           12.81909393841879       -7.73435313701831       -0.36709058553036
C           13.13999745964186       -7.08646631568027        0.81797502788087
C           13.13255093407582       -5.70084640869798        0.87949103857247
H            8.29263268001939       -0.06978305337080       -0.06347238116979
H            8.28847445223803       -2.61956006263055       -0.50981951145049
H           10.19153905429645       -4.53250903635887       -0.56708196776909
H           15.39460190069231       -4.53409939182206        0.08550623298435
H           17.27967361263289       -2.60646969368755        0.15618814235198
H           17.23526441016722        2.58379644287586       -0.29772845309225
H           15.32657638836748        4.48470789120721       -0.16877400039143
H           11.56127461096910        5.14563745985247       -1.47915534710885
H           11.54651871817218        7.60789665731457       -1.30169350909314
H           12.72245461939505        8.72481569743596        0.56825464076851
H           13.90836214101280        7.36563682189882        2.26358008957683
H           13.91234988540124        4.90263151402914        2.09352746242513
H           10.13210820438710        4.39301394030174        0.64887550861467
H            8.25246181878512        2.46503328379192        0.47169138389010
H           12.22380626823957       -5.02550084210807       -2.31443357406873
H           12.23885384664277       -7.49289356512299       -2.42056873922377
H           12.82771241381134       -8.81739921747436       -0.41414131072109
H           13.39738073504911       -7.66273235467997        1.69976083461991
H           13.37509265077849       -5.19538301367459        1.80760144029385
Ni          28.76943936834380        0.04176415137640       -0.01989331969245
C           32.16257657427150        0.06558894011980       -0.04902904583814
C           31.50591563372192        1.27155880734796       -0.17854266528515
C           32.18045075274992        2.52664633000551       -0.31233957488680
C           31.22386669911916        3.48399825601125       -0.30398876385157
C           29.96424165605520        2.81182521686950       -0.17398834116188
N           30.14686499423286        1.45255849048715       -0.11536429896004
C           28.74967279842507        3.46940262470035       -0.03298664438469
C           27.54280208024009        2.79796443876361        0.10168120289185
C           26.27753036235448        3.45778895360581        0.21581975859548
C           25.32942476656749        2.49060897446719        0.20620509397714
N           27.37021141347252        1.43307227843950        0.03967637570109
C           26.01651462312381        1.24450254217814        0.08282581171543
C           25.35623113941810        0.01944776785923       -0.04589487919414
C           26.03583423427857       -1.19740000372909       -0.14848786791840
C           25.37003167182548       -2.45200004537840       -0.29740740899775
C           26.33016875333027       -3.40717947975906       -0.26822040797438
C           27.58031661294344       -2.73183797621591       -0.09466687290839
C           28.79643195659042       -3.38663123182177        0.04651271946439
C           28.80415370556154       -4.86925695590636        0.08374175037021
C           29.47297717421172       -5.59910437575301       -0.89966286183293
C           29.47525086680397       -6.98545686096696       -0.86323341118901
C           28.81509134715812       -7.65831282601182        0.15594516986590
C           28.14906784517357       -6.93892138299802        1.13891173071123
C           28.14032707790123       -5.55265068008606        1.10334446133757
C           30.00468876742036       -2.70927109699290        0.14761428742891
C           31.27207327712262       -3.35683514832445        0.32002070597037
C           32.21627086197109       -2.38775847392545        0.28020067635570
C           31.52452856393511       -1.14825898832860        0.09956461580925
N           30.16785655092940       -1.34972512928224        0.05027108644237
N           27.38972770116143       -1.36871000991980       -0.05737875688166
C           28.73987552893337        4.95426549852516       -0.03279862822538
C           29.06673468196865        5.66134851536974       -1.18978014787570
C           29.05243935109409        7.04825038058762       -1.18954431275302
C           28.71741773110407        7.74262563279329       -0.03511328808936
C           28.39389440091929        7.04480020803076        1.12052367729008
C           28.40184907639720        5.65782268711967        1.12307463744288
H           33.24633891166611        0.07336250953840       -0.05361704318385
H           33.25025211162003        2.64005831885955       -0.38765277882247
H           31.34653845400695        4.55309739789930       -0.36603097426718
H           26.14256431203329        4.52516886277687        0.27864313040807
H           24.25819943343636        2.59567128850896        0.26613111724803
H           24.30419656833932       -2.57023154669644       -0.40783905825868
H           26.21333216536915       -4.47444518751037       -0.36182489177592
H           29.97836735537166       -5.07524928663403       -1.70339347766711
H           29.99405720382451       -7.54294095452683       -1.63522455342632
H           28.81930392462234       -8.74205353455030        0.18388850709185
H           27.63374761697874       -7.45975534186777        1.93832660663030
H           27.62892702622088       -4.99164211059901        1.87765624502942
H           31.40797541466041       -4.41745458990996        0.45581646736882
H           33.28701275244535       -2.48282513102048        0.36663778792508
H           29.31865928875769        5.11927669016665       -2.09445576695754
H           29.30289069182718        7.58892189989962       -2.09553562738510
H           28.70841527734792        8.82668984784851       -0.03607919255739
H           28.13407170061129        7.58294520075679        2.02538116250935
H           28.15735274827252        5.11326922861740        2.02827980523696
C           21.38331660132179        0.00136043592998       -0.08990283144623
C           20.15553489144183        0.00006697383894       -0.08929449548444
C           18.81061742152405       -0.00553976805525       -0.08293169374144
C           17.58741869573869       -0.00990497388882       -0.06698591682457
C           22.72823534325224        0.00717925688834       -0.08284669553169
C           23.95144339509101        0.01077640980931       -0.06685586503291

          :  Hamiltonian                  GFN1-xTB          :
         :: total energy            -202.115950276009 Eh    ::
         :: gradient norm              0.000406426742 Eh/a0 ::
         :: HOMO-LUMO gap              1.207248277764 eV    ::
         :: SCC energy              -205.469556108161 Eh    ::
         :: repulsion energy           3.458870048625 Eh    ::

    * Orbital Energies and Occupations

         #    Occupation            Energy/Eh            Energy/eV
      -------------------------------------------------------------
         1        2.0000           -0.7805444             -21.2397
       ...           ...                  ...                  ...
       177        2.0000           -0.4139714             -11.2647
       178        2.0000           -0.3981793             -10.8350
       179        2.0000           -0.3981696             -10.8347
       180        2.0000           -0.3977194             -10.8225
       181        2.0000           -0.3977164             -10.8224
       182        2.0000           -0.3969445             -10.8014
       183        2.0000           -0.3969413             -10.8013
       184        2.0000           -0.3958703             -10.7722
       185        2.0000           -0.3958652             -10.7720
       186        2.0000           -0.3958290             -10.7711
       187        2.0000           -0.3958252             -10.7710
       188        2.0000           -0.3940962             -10.7239
       189        2.0000           -0.3837882             -10.4434 (HOMO)
       190                         -0.3394227              -9.2362 (LUMO)
       191                         -0.3291470              -8.9565
       192                         -0.3291409              -8.9564
       193                         -0.3280390              -8.9264
       194                         -0.3278885              -8.9223
       195                         -0.3277947              -8.9197
       196                         -0.2999211              -8.1613
       197                         -0.2922581              -7.9527
       198                         -0.2850000              -7.7552
       199                         -0.2665539              -7.2533
       200                         -0.2654462              -7.2232
       ...                                ...                  ...
       406                          1.5810555              43.0227
      -------------------------------------------------------------
                  HL-Gap            0.0443656 Eh            1.2072 eV

Wiberg/Mayer (AO) data.
largest (>0.10) Wiberg bond orders for each atom

     #   Z sym  total        # sym  WBO       # sym  WBO       # sym  WBO
 ---------------------------------------------------------------------------
     1  28 Ni   3.014 --     7 N    0.665    30 N    0.665    31 N    0.662
                            12 N    0.662
     2   6 C    3.934 --     3 C    1.364    29 C    1.363    38 H    0.970
     3   6 C    3.924 --     2 C    1.364     7 N    1.213     4 C    1.175
     4   6 C    3.960 --     5 C    1.650     3 C    1.175    39 H    0.975
     5   6 C    3.963 --     4 C    1.650     6 C    1.177    40 H    0.973
     6   6 C    3.919 --     8 C    1.325     7 N    1.220     5 C    1.177
     7   7 N    3.402 --     6 C    1.220     3 C    1.213     1 Ni   0.665
     8   6 C    3.939 --     9 C    1.332     6 C    1.325    32 C    1.019
     9   6 C    3.915 --     8 C    1.332    12 N    1.204    10 C    1.183
    10   6 C    3.959 --    11 C    1.637     9 C    1.183    41 H    0.973
    11   6 C    3.961 --    10 C    1.637    13 C    1.191    42 H    0.973
    12   7 N    3.407 --    13 C    1.240     9 C    1.204     1 Ni   0.662
    13   6 C    3.904 --    14 C    1.263    12 N    1.240    11 C    1.191
    14   6 C    3.944 --    15 C    1.263    13 C    1.263   116 C    1.184
    15   6 C    3.904 --    14 C    1.263    31 N    1.239    16 C    1.192
    16   6 C    3.961 --    17 C    1.635    15 C    1.192    43 H    0.973
    17   6 C    3.959 --    16 C    1.635    18 C    1.184    44 H    0.973
    18   6 C    3.915 --    19 C    1.328    31 N    1.205    17 C    1.184
    19   6 C    3.939 --    18 C    1.328    26 C    1.323    20 C    1.026
    20   6 C    3.989 --    21 C    1.396    25 C    1.395    19 C    1.026
                            23 C    0.108
    21   6 C    3.988 --    22 C    1.447    20 C    1.396    45 H    0.973
                            24 C    0.110
    22   6 C    3.995 --    21 C    1.447    23 C    1.438    46 H    0.973
                            25 C    0.110
    23   6 C    3.990 --    22 C    1.438    24 C    1.438    47 H    0.974
                            20 C    0.108
    24   6 C    3.995 --    25 C    1.447    23 C    1.438    48 H    0.973
                            21 C    0.110
    25   6 C    3.988 --    24 C    1.447    20 C    1.395    49 H    0.973
                            22 C    0.110
    26   6 C    3.920 --    19 C    1.323    30 N    1.221    27 C    1.177
    27   6 C    3.963 --    28 C    1.648    26 C    1.177    50 H    0.973
    28   6 C    3.959 --    27 C    1.648    29 C    1.176    51 H    0.975
    29   6 C    3.924 --     2 C    1.363    30 N    1.214    28 C    1.176
    30   7 N    3.402 --    26 C    1.221    29 C    1.214     1 Ni   0.665
    31   7 N    3.407 --    15 C    1.239    18 C    1.205     1 Ni   0.662
    32   6 C    3.988 --    37 C    1.398    33 C    1.398     8 C    1.019
                            35 C    0.109
    33   6 C    3.989 --    34 C    1.446    32 C    1.398    52 H    0.973
                            36 C    0.110
    34   6 C    3.995 --    33 C    1.446    35 C    1.439    53 H    0.973
                            37 C    0.110
    35   6 C    3.992 --    36 C    1.439    34 C    1.439    54 H    0.974
                            32 C    0.109
    36   6 C    3.995 --    37 C    1.446    35 C    1.439    55 H    0.973
                            33 C    0.110
    37   6 C    3.989 --    36 C    1.446    32 C    1.398    56 H    0.973
                            34 C    0.110
    38   1 H    1.000 --     2 C    0.970
    39   1 H    0.998 --     4 C    0.975
    40   1 H    1.005 --     5 C    0.973
    41   1 H    1.005 --    10 C    0.973
    42   1 H    1.002 --    11 C    0.973
    43   1 H    1.002 --    16 C    0.973
    44   1 H    1.005 --    17 C    0.973
    45   1 H    1.005 --    21 C    0.973
    46   1 H    1.003 --    22 C    0.973
    47   1 H    1.003 --    23 C    0.974
    48   1 H    1.003 --    24 C    0.973
    49   1 H    1.005 --    25 C    0.973
    50   1 H    1.005 --    27 C    0.973
    51   1 H    0.998 --    28 C    0.975
    52   1 H    1.004 --    33 C    0.973
    53   1 H    1.003 --    34 C    0.973
    54   1 H    1.003 --    35 C    0.974
    55   1 H    1.003 --    36 C    0.973
    56   1 H    1.004 --    37 C    0.973
    57  28 Ni   3.014 --    63 N    0.665    86 N    0.665    87 N    0.662
                            68 N    0.662
    58   6 C    3.934 --    59 C    1.364    85 C    1.363    94 H    0.970
    59   6 C    3.924 --    58 C    1.364    63 N    1.214    60 C    1.175
    60   6 C    3.960 --    61 C    1.650    59 C    1.175    95 H    0.975
    61   6 C    3.963 --    60 C    1.650    62 C    1.177    96 H    0.973
    62   6 C    3.919 --    64 C    1.325    63 N    1.220    61 C    1.177
    63   7 N    3.402 --    62 C    1.220    59 C    1.214    57 Ni   0.665
    64   6 C    3.939 --    65 C    1.332    62 C    1.325    88 C    1.019
    65   6 C    3.915 --    64 C    1.332    68 N    1.204    66 C    1.183
    66   6 C    3.959 --    67 C    1.637    65 C    1.183    97 H    0.973
    67   6 C    3.961 --    66 C    1.637    69 C    1.191    98 H    0.973
    68   7 N    3.407 --    69 C    1.240    65 C    1.204    57 Ni   0.662
    69   6 C    3.904 --    70 C    1.263    68 N    1.240    67 C    1.191
    70   6 C    3.944 --    71 C    1.263    69 C    1.263   118 C    1.184
    71   6 C    3.904 --    70 C    1.263    87 N    1.239    72 C    1.192
    72   6 C    3.961 --    73 C    1.635    71 C    1.192    99 H    0.973
    73   6 C    3.959 --    72 C    1.635    74 C    1.184   100 H    0.973
    74   6 C    3.915 --    75 C    1.328    87 N    1.205    73 C    1.184
    75   6 C    3.939 --    74 C    1.328    82 C    1.323    76 C    1.026
    76   6 C    3.989 --    77 C    1.396    81 C    1.395    75 C    1.026
                            79 C    0.108
    77   6 C    3.988 --    78 C    1.447    76 C    1.396   101 H    0.973
                            80 C    0.110
    78   6 C    3.995 --    77 C    1.447    79 C    1.438   102 H    0.973
                            81 C    0.110
    79   6 C    3.990 --    78 C    1.438    80 C    1.438   103 H    0.974
                            76 C    0.108
    80   6 C    3.995 --    81 C    1.447    79 C    1.438   104 H    0.973
                            77 C    0.110
    81   6 C    3.988 --    80 C    1.447    76 C    1.395   105 H    0.973
                            78 C    0.110
    82   6 C    3.920 --    75 C    1.323    86 N    1.221    83 C    1.177
    83   6 C    3.963 --    84 C    1.648    82 C    1.177   106 H    0.973
    84   6 C    3.959 --    83 C    1.648    85 C    1.176   107 H    0.975
    85   6 C    3.924 --    58 C    1.363    86 N    1.214    84 C    1.176
    86   7 N    3.402 --    82 C    1.221    85 C    1.214    57 Ni   0.665
    87   7 N    3.407 --    71 C    1.239    74 C    1.205    57 Ni   0.662
    88   6 C    3.988 --    93 C    1.398    89 C    1.398    64 C    1.019
                            91 C    0.109
    89   6 C    3.989 --    90 C    1.446    88 C    1.398   108 H    0.973
                            92 C    0.110
    90   6 C    3.995 --    89 C    1.446    91 C    1.439   109 H    0.973
                            93 C    0.110
    91   6 C    3.992 --    92 C    1.439    90 C    1.439   110 H    0.974
                            88 C    0.109
    92   6 C    3.995 --    93 C    1.446    91 C    1.439   111 H    0.973
                            89 C    0.110
    93   6 C    3.989 --    92 C    1.446    88 C    1.398   112 H    0.973
                            90 C    0.110
    94   1 H    1.000 --    58 C    0.970
    95   1 H    0.998 --    60 C    0.975
    96   1 H    1.005 --    61 C    0.973
    97   1 H    1.005 --    66 C    0.973
    98   1 H    1.002 --    67 C    0.973
    99   1 H    1.002 --    72 C    0.973
   100   1 H    1.005 --    73 C    0.973
   101   1 H    1.005 --    77 C    0.973
   102   1 H    1.003 --    78 C    0.973
   103   1 H    1.003 --    79 C    0.974
   104   1 H    1.003 --    80 C    0.973
   105   1 H    1.005 --    81 C    0.973
   106   1 H    1.005 --    83 C    0.973
   107   1 H    0.998 --    84 C    0.975
   108   1 H    1.004 --    89 C    0.973
   109   1 H    1.003 --    90 C    0.973
   110   1 H    1.003 --    91 C    0.974
   111   1 H    1.003 --    92 C    0.973
   112   1 H    1.004 --    93 C    0.973
   113   6 C    3.928 --   114 C    2.375   117 C    1.331   116 C    0.191
   114   6 C    3.928 --   113 C    2.375   115 C    1.331   118 C    0.191
   115   6 C    3.938 --   116 C    2.456   114 C    1.331
   116   6 C    3.892 --   115 C    2.456    14 C    1.184   113 C    0.191
   117   6 C    3.938 --   118 C    2.456   113 C    1.331
   118   6 C    3.892 --   117 C    2.456    70 C    1.184   114 C    0.191
 ---------------------------------------------------------------------------

           -------------------------------------------------
          | TOTAL ENERGY             -202.115950276009 Eh   |
          | GRADIENT NORM               0.000406426742 Eh/α |
          | HOMO-LUMO GAP               1.207248277764 eV   |
           -------------------------------------------------

 * finished run on 2022/07/30 at 05:43:01.615
