   * xtb version 6.5.1 (b24c23e) compiled by 'conda@728c89f4b128' on 2022-07-12
          program call               : xtb Zn_m-CP_C8_2.xyz --gfn 1 --opt -T 48

   ID    Z sym.   atoms
    1   30 Zn     1, 63
    2    6 C      2-6, 8-12, 15-20, 22-27, 29-35, 38-42, 64-68, 70-74, 77-82,
                  84-89, 91-97, 100-104, 125-132
    3    7 N      7, 21, 28, 43, 69, 83, 90, 105
    4    8 O      13, 14, 36, 37, 75, 76, 98, 99
    5    1 H      44-62, 106-124
########################################################################
[WARNING] Please study the warnings concerning your input carefully
-1- prog_main_parseArguments: Unknown option '-T' provided
########################################################################

          :  Hamiltonian                  GFN1-xTB          :
 * total energy  :  -244.6810983 Eh     change       -0.1926139E-09 Eh
 * total energy  :  -245.4405906 Eh     change       -0.7594923E+00 Eh
 * total energy  :  -245.5824139 Eh     change       -0.1418233E+00 Eh
 * total energy  :  -245.6432184 Eh     change       -0.6080443E-01 Eh
 * total energy  :  -245.6684614 Eh     change       -0.2524302E-01 Eh
 * total energy  :  -245.6804097 Eh     change       -0.1194831E-01 Eh
 * total energy  :  -245.6887338 Eh     change       -0.8324102E-02 Eh
 * total energy  :  -245.6955249 Eh     change       -0.6791078E-02 Eh
 * total energy  :  -245.7007612 Eh     change       -0.5236332E-02 Eh
 * total energy  :  -245.7044167 Eh     change       -0.3655503E-02 Eh
 * total energy  :  -245.7197305 Eh     change       -0.1218659E-04 Eh
 * total energy  :  -245.7197417 Eh     change       -0.1120318E-04 Eh
 * total energy  :  -245.7197518 Eh     change       -0.1015792E-04 Eh
 * total energy  :  -245.7197605 Eh     change       -0.8641645E-05 Eh
 * total energy  :  -245.7197685 Eh     change       -0.8054581E-05 Eh
 * total energy  :  -245.7197755 Eh     change       -0.6941831E-05 Eh
 * total energy  :  -245.7197754 Eh     change        0.1169699E-06 Eh
 * total energy  :  -245.7197812 Eh     change       -0.5791450E-05 Eh
 * total energy  :  -245.7197852 Eh     change       -0.4019877E-05 Eh
   *** GEOMETRY OPTIMIZATION CONVERGED AFTER 43 ITERATIONS ***

 final structure:
================
132
 xtb: 6.5.1 (b24c23e)
Zn          13.17388600119906       -0.01943295297427        0.00798882138090
C            9.76797240767817       -0.00268317638246        0.16576922693642
C           10.39972958168865        1.22762199736854        0.30031457086318
C            9.72816997589136        2.48549125591819        0.47365424747149
C           10.68825649163076        3.43885596170189        0.56554971158326
C           11.95992105031176        2.77278810437059        0.46038748080019
N           11.74914337835622        1.43591474575074        0.29053686956704
C           13.21215585687665        3.39744504492695        0.50247310734876
C           13.22846571073887        4.86709708428229        0.71376460305478
C           12.71158206979858        5.42029063466258        1.88182523254346
C           12.72653094675931        6.80069621845940        2.07830506910248
C           12.16252588999913        7.32907314109427        3.34539622857349
O           12.22880315111849        8.66483130095966        3.44607217303356
O           11.68469798948896        6.64607339928983        4.21490530298808
C           13.25921113287599        7.64043996227032        1.10016606830764
C           13.77357483304667        7.09241728845557       -0.06434113226973
C           13.76096407609383        5.71822135029719       -0.25759458713005
C           14.44940846309924        2.75886129672669        0.36593122492287
C           15.73094299768366        3.40046113192330        0.47014729051365
C           16.67431057442232        2.44066599505501        0.29262524867849
N           14.63907658773139        1.42171830103977        0.14046946453398
C           15.98012590300910        1.20355861355774        0.08646496018631
C           16.60746069653112       -0.03859829520489       -0.14035338311250
C           15.94970315461611       -1.27243459519325       -0.31887093085825
C           16.61011921904108       -2.51646210389497       -0.58495452109715
C           15.64435999498454       -3.46536941405531       -0.68399553169726
C           14.38336889582339       -2.81024211061924       -0.46956285512477
N           14.60623956544684       -1.47523577239790       -0.26200982718034
C           13.13240892884451       -3.43659027032932       -0.49106502268184
C           13.11347438789701       -4.90777884906800       -0.69238705095891
C           13.72708749321605       -5.75574339424359        0.23251689468511
C           13.70540057099602       -7.13207593048616        0.05445765623164
C           13.07338036044178       -7.67954901481570       -1.04935738954279
C           12.45795845651348       -6.84309848164888       -1.98204678513494
C           11.79132930097301       -7.46853658862423       -3.15114089746091
O           11.22303291139401       -6.58358945689316       -3.98371258289930
O           11.74787668564891       -8.65499449544584       -3.35457159547612
C           12.47812264743814       -5.46134260862123       -1.80193164240009
C           11.89563892990012       -2.79944335004011       -0.33251265407091
C           10.61374017761741       -3.45378181581372       -0.31026277405972
C            9.67574245191448       -2.49102004694606       -0.12925630450141
C           10.37227102353359       -1.23906354599098       -0.02760832991248
N           11.71418542865532       -1.45998058075943       -0.14985130774778
H            8.68368448816244        0.00235979722307        0.21932237007730
H            8.65757178665617        2.61178717470461        0.51197836672283
H           10.55184275196592        4.50169587838922        0.68509709518025
H           12.30543067083216        4.78197701278398        2.65886078692735
H           11.84233466194709        8.92890181962657        4.29676118065956
H           13.26806859113648        8.71271484329890        1.25340904771192
H           14.18645417507113        7.73933305139177       -0.83011568707757
H           14.15390327367186        5.29723104934713       -1.17638012668921
H           15.88792394453928        4.44853101627260        0.66836241724363
H           17.74676580495100        2.55252005716165        0.30648840036833
H           17.67647164441790       -2.63922745135510       -0.68890546801634
H           15.77177089571529       -4.51464982004795       -0.89674351134865
H           14.21037663270005       -5.32970588701299        1.10470817910859
H           14.18217199425488       -7.77726941906435        0.78355786897374
H           13.04633821421680       -8.75229017355456       -1.20370240612589
H           10.81133351263604       -7.07101767726956       -4.71562471158187
H           12.01098157113021       -4.81390942388994       -2.53465175805286
H           10.45648321058948       -4.51588707676206       -0.40937129366066
H            8.60550269270908       -2.60754988071973       -0.06078911421009
Zn          31.78134357154786        0.01305032772047        0.01166594407769
C           35.18705173705024       -0.04994554209944        0.16053356686213
C           34.55755258134782       -1.25777175960259       -0.11466231850847
C           35.23119999725962       -2.50250945804950       -0.35992145089215
C           34.27273946049202       -3.43490863346543       -0.58601550724162
C           32.99999244924910       -2.77262099620988       -0.47035222074978
N           33.20856187757918       -1.45322533782536       -0.19437525767078
C           31.74868437206892       -3.37832152687218       -0.63586692360681
C           31.73342367346262       -4.83660085333570       -0.91504014036914
C           32.25014018734868       -5.74010162175273        0.00919987227186
C           32.23362969290493       -7.10937852500438       -0.25395336453505
C           32.79627928260986       -8.02179829703526        0.77257387482986
O           32.73285430449176       -9.31731306849794        0.43121112731910
O           33.27122489469261       -7.65953194460827        1.81853412082879
C           31.69961001776688       -7.58487754134259       -1.45162497882715
C           31.18577572915897       -6.68739609454605       -2.37439837864964
C           31.20002520395569       -5.32506890936429       -2.11025486393081
C           30.51052869876785       -2.73164559234166       -0.55740238180837
C           29.22993489532006       -3.37399120461027       -0.66852537645443
C           28.28509802775563       -2.41027450319108       -0.52311992939349
N           30.31878597980629       -1.39438782049448       -0.33417536521053
C           28.97738396866719       -1.17257251421127       -0.31410994160722
C           28.34768549882656        0.07427457496447       -0.12261493317358
C           29.00316524891701        1.30018427833328        0.11089512659151
C           28.34070662912045        2.56186180809084        0.26540795731372
C           29.30503454121801        3.49274212506183        0.48112814968030
C           30.56708393349080        2.80551471706857        0.46985270223178
N           30.34631158428562        1.47545755907867        0.23055247522906
C           31.81715801063799        3.40618852479107        0.65418678172398
C           31.83499581926472        4.86254837824322        0.94406787321226
C           31.22238312244431        5.36182364072775        2.09570226498209
C           31.24542798969222        6.72069661566966        2.37754998356265
C           31.87777439748499        7.59855302516324        1.51321822213564
C           32.49193233295131        7.11270153982743        0.35779911185969
C           33.15995614908052        8.08531686659867       -0.54223039537011
O           33.72980390016531        7.52033064279795       -1.61718083722558
O           33.20262610574166        9.27324825186525       -0.34779397133284
C           32.47023252419878        5.74810194832548        0.07602288938459
C           33.05480071896533        2.75367220094574        0.59736905914139
C           34.33553978293634        3.36674892850257        0.83338641219202
C           35.27502368530951        2.39877351023371        0.69235508586559
C           34.58059396883612        1.18111118256899        0.37949376874930
N           33.23839493447317        1.42803117628281        0.33381175930058
H           36.27127028855541       -0.07053573886546        0.21171113479910
H           36.30198453668240       -2.63297933578908       -0.36275103955977
H           34.41085310971099       -4.47840513454544       -0.81964598808595
H           32.65696164617067       -5.38967416281368        0.95148909387661
H           33.11826669550147       -9.84422063840655        1.14995710807936
H           31.68882809374426       -8.64873934962312       -1.65508316329719
H           30.77166798394713       -7.04973603569722       -3.30854266535309
H           30.80733781391990       -4.62776262062987       -2.84193994745170
H           29.07440323259591       -4.42958115469146       -0.82315404366952
H           27.21281264913102       -2.52212005717199       -0.54671381928309
H           27.27411379327471        2.71016669588770        0.20740891671282
H           29.17598055530282        4.55380376496665        0.62253151377923
H           30.73910456319146        4.67437635337036        2.78100951382652
H           30.76986456478808        7.09229651677598        3.27805854218322
H           31.90646323101179        8.66266195263693        1.71859502369759
H           34.14218126906739        8.21984777941467       -2.14953994021480
H           32.93643650710812        5.37547780063008       -0.82843625461558
H           34.49101241723115        4.40342242259752        1.08586078102914
H           36.34497761487380        2.48806313544575        0.79673903019207
C           18.01160243685857       -0.04319120882906       -0.18581591322185
C           19.23609430974497       -0.02869903351974       -0.21149411118040
C           20.57836048996512       -0.01012503214574       -0.22787750819616
C           21.80868921156910        0.02440865661628       -0.23224530936849
C           23.14618102456114        0.04908669623807       -0.22646382072282
C           24.37669094020011        0.07549698894947       -0.21229896477752
C           25.71891960451420        0.08637895759398       -0.18978596667428
C           26.94344706696365        0.09072483452652       -0.16326977977683

          :  Hamiltonian                  GFN1-xTB          :
         :: total energy            -245.719785175400 Eh    ::
         :: gradient norm              0.000720138935 Eh/a0 ::
         :: HOMO-LUMO gap              1.113663385207 eV    ::
         :: SCC energy              -249.435293641776 Eh    ::
         :: repulsion energy           3.830658206879 Eh    ::

    * Orbital Energies and Occupations

         #    Occupation            Energy/Eh            Energy/eV
      -------------------------------------------------------------
         1        2.0000           -0.8325421             -22.6546
       ...           ...                  ...                  ...
       205        2.0000           -0.4275498             -11.6342
       206        2.0000           -0.4275370             -11.6339
       207        2.0000           -0.4269739             -11.6186
       208        2.0000           -0.4269272             -11.6173
       209        2.0000           -0.4267071             -11.6113
       210        2.0000           -0.4266859             -11.6107
       211        2.0000           -0.4263215             -11.6008
       212        2.0000           -0.4170177             -11.3476
       213        2.0000           -0.4085556             -11.1174
       214        2.0000           -0.3992958             -10.8654
       215        2.0000           -0.3992940             -10.8653
       216        2.0000           -0.3920690             -10.6687
       217        2.0000           -0.3828932             -10.4191 (HOMO)
       218                         -0.3419669              -9.3054 (LUMO)
       219                         -0.3328517              -9.0574
       220                         -0.3328501              -9.0573
       221                         -0.3318273              -9.0295
       222                         -0.3109762              -8.4621
       223                         -0.3105075              -8.4493
       224                         -0.3096444              -8.4259
       225                         -0.3095957              -8.4245
       226                         -0.3041581              -8.2766
       227                         -0.3013701              -8.2007
       228                         -0.2970352              -8.0827
       ...                                ...                  ...
       452                          1.6041387              43.6508
      -------------------------------------------------------------
                  HL-Gap            0.0409264 Eh            1.1137 eV

Wiberg/Mayer (AO) data.
largest (>0.10) Wiberg bond orders for each atom

     #   Z sym  total        # sym  WBO       # sym  WBO       # sym  WBO
 ---------------------------------------------------------------------------
     1  30 Zn   1.994 --     7 N    0.460    43 N    0.459    21 N    0.455
                            28 N    0.455
     2   6 C    3.928 --     3 C    1.358    42 C    1.357    44 H    0.971
     3   6 C    3.921 --     2 C    1.358     7 N    1.233     4 C    1.169
     4   6 C    3.961 --     5 C    1.661     3 C    1.169    45 H    0.975
     5   6 C    3.963 --     4 C    1.661     6 C    1.170    46 H    0.973
     6   6 C    3.919 --     8 C    1.315     7 N    1.245     5 C    1.170
     7   7 N    3.295 --     6 C    1.245     3 C    1.233     1 Zn   0.460
     8   6 C    3.932 --    18 C    1.323     6 C    1.315     9 C    1.026
     9   6 C    3.988 --    10 C    1.408    17 C    1.388     8 C    1.026
                            15 C    0.102
    10   6 C    3.984 --     9 C    1.408    11 C    1.396    47 H    0.968
                            16 C    0.104
    11   6 C    3.988 --    10 C    1.396    15 C    1.391    12 C    1.006
    12   6 C    3.836 --    14 O    1.692    13 O    1.089    11 C    1.006
    13   8 O    2.098 --    12 C    1.089    48 H    0.838    14 O    0.129
    14   8 O    1.961 --    12 C    1.692    13 O    0.129
    15   6 C    3.987 --    16 C    1.448    11 C    1.391    49 H    0.971
                             9 C    0.102
    16   6 C    3.994 --    15 C    1.448    17 C    1.441    50 H    0.972
                            10 C    0.104
    17   6 C    3.987 --    16 C    1.441     9 C    1.388    51 H    0.973
    18   6 C    3.913 --     8 C    1.323    21 N    1.226    19 C    1.178
    19   6 C    3.959 --    20 C    1.646    18 C    1.178    52 H    0.973
    20   6 C    3.962 --    19 C    1.646    22 C    1.186    53 H    0.974
    21   7 N    3.297 --    22 C    1.263    18 C    1.226     1 Zn   0.455
    22   6 C    3.900 --    21 N    1.263    23 C    1.252    20 C    1.186
    23   6 C    3.940 --    24 C    1.253    22 C    1.252   125 C    1.194
    24   6 C    3.901 --    28 N    1.263    23 C    1.253    25 C    1.186
    25   6 C    3.962 --    26 C    1.646    24 C    1.186    54 H    0.974
    26   6 C    3.959 --    25 C    1.646    27 C    1.178    55 H    0.973
    27   6 C    3.913 --    29 C    1.323    28 N    1.226    26 C    1.178
    28   7 N    3.296 --    24 C    1.263    27 C    1.226     1 Zn   0.455
    29   6 C    3.932 --    27 C    1.323    39 C    1.314    30 C    1.027
    30   6 C    3.988 --    38 C    1.406    31 C    1.389    29 C    1.027
                            33 C    0.102
    31   6 C    3.987 --    32 C    1.440    30 C    1.389    56 H    0.973
    32   6 C    3.994 --    33 C    1.451    31 C    1.440    57 H    0.972
                            38 C    0.104
    33   6 C    3.986 --    32 C    1.451    34 C    1.387    58 H    0.969
                            30 C    0.102
    34   6 C    3.988 --    38 C    1.399    33 C    1.387    35 C    1.006
    35   6 C    3.835 --    37 O    1.692    36 O    1.089    34 C    1.006
    36   8 O    2.098 --    35 C    1.089    59 H    0.838    37 O    0.129
    37   8 O    1.960 --    35 C    1.692    36 O    0.129
    38   6 C    3.985 --    30 C    1.406    34 C    1.399    60 H    0.969
                            32 C    0.104
    39   6 C    3.919 --    29 C    1.314    43 N    1.245    40 C    1.171
    40   6 C    3.963 --    41 C    1.660    39 C    1.171    61 H    0.973
    41   6 C    3.960 --    40 C    1.660    42 C    1.170    62 H    0.975
    42   6 C    3.921 --     2 C    1.357    43 N    1.233    41 C    1.170
    43   7 N    3.294 --    39 C    1.245    42 C    1.233     1 Zn   0.459
    44   1 H    1.001 --     2 C    0.971
    45   1 H    0.998 --     4 C    0.975
    46   1 H    1.004 --     5 C    0.973
    47   1 H    1.007 --    10 C    0.968
    48   1 H    0.873 --    13 O    0.838
    49   1 H    1.005 --    15 C    0.971
    50   1 H    1.002 --    16 C    0.972
    51   1 H    1.005 --    17 C    0.973
    52   1 H    1.004 --    19 C    0.973
    53   1 H    1.002 --    20 C    0.974
    54   1 H    1.002 --    25 C    0.974
    55   1 H    1.004 --    26 C    0.973
    56   1 H    1.005 --    31 C    0.973
    57   1 H    1.002 --    32 C    0.972
    58   1 H    1.005 --    33 C    0.969
    59   1 H    0.873 --    36 O    0.838
    60   1 H    1.008 --    38 C    0.969
    61   1 H    1.004 --    40 C    0.973
    62   1 H    0.998 --    41 C    0.975
    63  30 Zn   1.994 --    69 N    0.460   105 N    0.460    83 N    0.455
                            90 N    0.454
    64   6 C    3.928 --    65 C    1.358   104 C    1.357   106 H    0.971
    65   6 C    3.921 --    64 C    1.358    69 N    1.233    66 C    1.169
    66   6 C    3.961 --    67 C    1.661    65 C    1.169   107 H    0.975
    67   6 C    3.963 --    66 C    1.661    68 C    1.170   108 H    0.973
    68   6 C    3.919 --    70 C    1.315    69 N    1.245    67 C    1.170
    69   7 N    3.294 --    68 C    1.245    65 C    1.233    63 Zn   0.460
    70   6 C    3.932 --    80 C    1.323    68 C    1.315    71 C    1.027
    71   6 C    3.988 --    72 C    1.408    79 C    1.387    70 C    1.027
                            77 C    0.102
    72   6 C    3.984 --    71 C    1.408    73 C    1.396   109 H    0.968
                            78 C    0.104
    73   6 C    3.988 --    72 C    1.396    77 C    1.391    74 C    1.006
    74   6 C    3.836 --    76 O    1.692    75 O    1.089    73 C    1.006
    75   8 O    2.098 --    74 C    1.089   110 H    0.838    76 O    0.129
    76   8 O    1.961 --    74 C    1.692    75 O    0.129
    77   6 C    3.987 --    78 C    1.448    73 C    1.391   111 H    0.971
                            71 C    0.102
    78   6 C    3.994 --    77 C    1.448    79 C    1.441   112 H    0.972
                            72 C    0.104
    79   6 C    3.987 --    78 C    1.441    71 C    1.387   113 H    0.973
    80   6 C    3.913 --    70 C    1.323    83 N    1.226    81 C    1.178
    81   6 C    3.959 --    82 C    1.646    80 C    1.178   114 H    0.973
    82   6 C    3.962 --    81 C    1.646    84 C    1.186   115 H    0.974
    83   7 N    3.297 --    84 C    1.263    80 C    1.226    63 Zn   0.455
    84   6 C    3.900 --    83 N    1.263    85 C    1.252    82 C    1.186
    85   6 C    3.940 --    86 C    1.253    84 C    1.252   132 C    1.194
    86   6 C    3.901 --    90 N    1.263    85 C    1.253    87 C    1.186
    87   6 C    3.962 --    88 C    1.646    86 C    1.186   116 H    0.974
    88   6 C    3.959 --    87 C    1.646    89 C    1.178   117 H    0.973
    89   6 C    3.914 --    91 C    1.324    90 N    1.226    88 C    1.178
    90   7 N    3.296 --    86 C    1.263    89 C    1.226    63 Zn   0.454
    91   6 C    3.932 --    89 C    1.324   101 C    1.314    92 C    1.027
    92   6 C    3.988 --   100 C    1.406    93 C    1.389    91 C    1.027
                            95 C    0.102
    93   6 C    3.987 --    94 C    1.440    92 C    1.389   118 H    0.973
    94   6 C    3.994 --    95 C    1.451    93 C    1.440   119 H    0.972
                           100 C    0.104
    95   6 C    3.986 --    94 C    1.451    96 C    1.387   120 H    0.969
                            92 C    0.102
    96   6 C    3.988 --   100 C    1.399    95 C    1.387    97 C    1.006
    97   6 C    3.835 --    99 O    1.692    98 O    1.089    96 C    1.006
    98   8 O    2.098 --    97 C    1.089   121 H    0.838    99 O    0.129
    99   8 O    1.960 --    97 C    1.692    98 O    0.129
   100   6 C    3.985 --    92 C    1.406    96 C    1.399   122 H    0.969
                            94 C    0.104
   101   6 C    3.919 --    91 C    1.314   105 N    1.245   102 C    1.171
   102   6 C    3.963 --   103 C    1.660   101 C    1.171   123 H    0.973
   103   6 C    3.960 --   102 C    1.660   104 C    1.170   124 H    0.975
   104   6 C    3.921 --    64 C    1.357   105 N    1.233   103 C    1.170
   105   7 N    3.294 --   101 C    1.245   104 C    1.233    63 Zn   0.460
   106   1 H    1.001 --    64 C    0.971
   107   1 H    0.998 --    66 C    0.975
   108   1 H    1.004 --    67 C    0.973
   109   1 H    1.007 --    72 C    0.968
   110   1 H    0.873 --    75 O    0.838
   111   1 H    1.005 --    77 C    0.971
   112   1 H    1.002 --    78 C    0.972
   113   1 H    1.005 --    79 C    0.973
   114   1 H    1.004 --    81 C    0.973
   115   1 H    1.002 --    82 C    0.974
   116   1 H    1.002 --    87 C    0.974
   117   1 H    1.004 --    88 C    0.973
   118   1 H    1.005 --    93 C    0.973
   119   1 H    1.002 --    94 C    0.972
   120   1 H    1.005 --    95 C    0.969
   121   1 H    0.873 --    98 O    0.838
   122   1 H    1.008 --   100 C    0.969
   123   1 H    1.004 --   102 C    0.973
   124   1 H    0.998 --   103 C    0.975
   125   6 C    3.877 --   126 C    2.437    23 C    1.194   128 C    0.186
   126   6 C    3.934 --   125 C    2.437   127 C    1.345
   127   6 C    3.893 --   128 C    2.335   126 C    1.345   130 C    0.182
   128   6 C    3.925 --   127 C    2.335   129 C    1.370   125 C    0.186
   129   6 C    3.925 --   130 C    2.335   128 C    1.370   132 C    0.186
   130   6 C    3.893 --   129 C    2.335   131 C    1.345   127 C    0.182
   131   6 C    3.934 --   132 C    2.437   130 C    1.345
   132   6 C    3.877 --   131 C    2.437    85 C    1.194   129 C    0.186
 ---------------------------------------------------------------------------

           -------------------------------------------------
          | TOTAL ENERGY             -245.719785175400 Eh   |
          | GRADIENT NORM               0.000720138935 Eh/α |
          | HOMO-LUMO GAP               1.113663385207 eV   |
           -------------------------------------------------

 * finished run on 2022/07/30 at 10:42:33.583
