   * xtb version 6.5.1 (b24c23e) compiled by 'conda@728c89f4b128' on 2022-07-12
          program call               : xtb Zn_PhOH_C2_3.xyz --gfn 1 --opt -T 48

   ID    Z sym.   atoms
    1   30 Zn     1, 59, 121
    2    6 C      2-6, 8-12, 14-18, 20-25, 27-31, 33-38, 60-64, 66-70, 72-76,
                  78-83, 85-89, 91-96, 117-120, 122-126, 128-132, 134-138,
                  140-145, 147-151, 153-158
    3    7 N      7, 19, 26, 39, 65, 77, 84, 97, 127, 139, 146, 159
    4    8 O      13, 32, 71, 90, 133, 152
    5    1 H      40-58, 98-116, 160-177
########################################################################
[WARNING] Please study the warnings concerning your input carefully
-1- prog_main_parseArguments: Unknown option '-T' provided
########################################################################

          :  Hamiltonian                  GFN1-xTB          :
 * total energy  :  -309.5903324 Eh     change       -0.1842295E-09 Eh
 * total energy  :  -310.1280268 Eh     change       -0.5376943E+00 Eh
 * total energy  :  -310.2758919 Eh     change       -0.1478651E+00 Eh
 * total energy  :  -310.3454558 Eh     change       -0.6956393E-01 Eh
 * total energy  :  -310.3671620 Eh     change       -0.2170619E-01 Eh
 * total energy  :  -310.3768281 Eh     change       -0.9666083E-02 Eh
 * total energy  :  -310.3816840 Eh     change       -0.4855869E-02 Eh
 * total energy  :  -310.3848525 Eh     change       -0.3168505E-02 Eh
 * total energy  :  -310.3867505 Eh     change       -0.1898023E-02 Eh
 * total energy  :  -310.3880352 Eh     change       -0.1284723E-02 Eh
 * total energy  :  -310.3957369 Eh     change       -0.1435664E-04 Eh
 * total energy  :  -310.3957497 Eh     change       -0.1280191E-04 Eh
 * total energy  :  -310.3957632 Eh     change       -0.1354225E-04 Eh
 * total energy  :  -310.3957693 Eh     change       -0.6076683E-05 Eh
 * total energy  :  -310.3957757 Eh     change       -0.6443227E-05 Eh
 * total energy  :  -310.3957801 Eh     change       -0.4334746E-05 Eh
 * total energy  :  -310.3957857 Eh     change       -0.5667572E-05 Eh
 * total energy  :  -310.3957927 Eh     change       -0.6981575E-05 Eh
 * total energy  :  -310.3957970 Eh     change       -0.4335128E-05 Eh
   *** GEOMETRY OPTIMIZATION CONVERGED AFTER 49 ITERATIONS ***

 final structure:
================
177
 xtb: 6.5.1 (b24c23e)
Zn          33.67322582376462       -0.02302415271431       -0.04202920354504
C           30.26388726004623       -0.07068966968269       -0.08286750726487
C           30.89927419060660       -1.30580758373242       -0.03172410306988
C           30.23027111044528       -2.57381909069744        0.05047348520801
C           31.19313040374202       -3.52800205132584        0.10461680525876
C           32.46356807773869       -2.85483841955904        0.04354628012720
N           32.24936162322283       -1.50911586624995       -0.03070975288350
C           33.71715126997731       -3.47748671714126        0.08101218476931
C           33.73863703619896       -4.96000536759098        0.15814593233826
C           33.18378898283382       -5.73516012351234       -0.86041536962523
C           33.20442734653554       -7.11982749120271       -0.78933550138598
C           33.77931557665663       -7.74671741592288        0.31345321498594
O           33.81787271888313       -9.10055022601538        0.42511752381564
C           34.33503224771825       -6.98477196847463        1.33940577611877
C           34.31506479323497       -5.60378888025336        1.25608646571607
C           34.95333540408086       -2.82119991401572        0.05839632150970
C           36.23529853372087       -3.46960010714949        0.04221292941823
C           37.17767080101156       -2.49286175171107        0.01262063642208
N           35.14198255068357       -1.46551777824792        0.02334815310611
C           36.48344446361308       -1.23890515363146        0.00094749753600
C           37.10821409562843        0.02339615708253       -0.02016279496823
C           36.45006706856963        1.26828259834303       -0.04050558296068
C           37.11075620133486        2.53873239307446       -0.10476196297975
C           36.14261618386772        3.48969541200364       -0.14179227182335
C           34.87810946967549        2.80921521259380       -0.09446552461820
N           35.10277193189373        1.45960372356605       -0.03913717089820
C           33.62471527548993        3.43067116933534       -0.13680225398475
C           33.60384360740935        4.91486689551309       -0.17700023423896
C           34.13540599739600        5.66240226150791        0.87667110509446
C           34.11490409666805        7.04566951868485        0.84652594338689
C           33.56414774193858        7.70475815606376       -0.25083863104380
O           33.56332813558498        9.06371068233319       -0.25049575358395
C           33.03351121285898        6.97342283818596       -1.31069390061897
C           33.05231425682921        5.58767641320506       -1.26766319220752
C           32.38868124438120        2.77286838768971       -0.14559189034440
C           31.10069275437482        3.41474303517597       -0.14243008647286
C           30.16351869186151        2.43389770527858       -0.13240494264559
C           30.86589544661589        1.18140761162464       -0.11984458969063
N           32.21030270258703        1.42016454911312       -0.12642106231049
H           29.17827543739946       -0.08524426793037       -0.07878881542784
H           29.15961335656906       -2.70501543510586        0.07272232527708
H           31.05901802127334       -4.59445364743792        0.19129351177183
H           32.74757156345707       -5.24924863601910       -1.72619059461789
H           32.77727534758984       -7.71726528964547       -1.58778270095550
H           33.40105467100785       -9.52707664999804       -0.33552231900500
H           34.77573198953005       -7.48549554701447        2.19263725239994
H           34.73620718432448       -5.01095491809826        2.06047343118348
H           36.39352488000765       -4.53606126169905        0.04030062199649
H           38.24983167541840       -2.60687590385346       -0.00075004866750
H           38.17971591053789        2.67890004148548       -0.13038224515326
H           36.27200613431457        4.55780470424381       -0.21153624127654
H           34.55329009961059        5.14969937741326        1.73593811831857
H           34.52009444508976        7.62722083204526        1.66543967654087
H           33.15618020351166        9.41427265673606       -1.05399592651413
H           32.60978169397139        7.49082946660968       -2.16490948264857
H           32.64987309331463        5.01986191563938       -2.09932816234387
H           30.93843754296416        4.48080347755218       -0.13415241447054
H           29.08966529926530        2.53788564655179       -0.12526019728249
Zn          55.49664913709583        0.00221599129617       -0.01518098697879
C           58.90585922958972        0.03950943444033       -0.10082999502044
C           58.27112614611939        1.27255769324012       -0.19289261988948
C           58.94097984868110        2.54006021064543       -0.27662915922855
C           57.97880313745969        3.49531920669616       -0.32346792928406
C           56.70783439913978        2.82180714559492       -0.27996761987778
N           56.92114786511714        1.47672243529865       -0.19448014771563
C           55.45515650039460        3.44712013566053       -0.29554553319403
C           55.43486007099104        4.92654975946882       -0.41735709351801
C           55.96849764498654        5.55287662399757       -1.54401681579706
C           55.94550578856489        6.93386474668177       -1.66560171469893
C           55.38992205378817        7.70763414973243       -0.64960846227355
O           55.34892045003919        9.06370414103057       -0.72693294368393
C           54.85700454845537        7.09549684815136        0.48323899739046
C           54.87857176932203        5.71624578315238        0.59201652144780
C           54.21882912097906        2.79633189158463       -0.21117131193362
C           52.93696849884302        3.44003260914838       -0.29278812217335
C           51.99423183054487        2.46833743027118       -0.19436009970260
N           54.02957441568557        1.44710277532265       -0.07537299086666
C           52.68785650366048        1.22140663143145       -0.05707702212666
C           52.06164604986234       -0.03635185085025        0.04405813876138
C           52.71858655057643       -1.27888538076392        0.13029056064808
C           52.05783537020819       -2.54748307383251        0.22258397275916
C           53.02571249709705       -3.49676400439674        0.29352635761507
C           54.29036415165582       -2.81615107360963        0.25419308834733
N           54.06599590511944       -1.46963431544160        0.14696589819192
C           55.54339614942118       -3.43848226782016        0.29223370312059
C           55.56367902174737       -4.91556275943047        0.44460901485050
C           55.03591008250868       -5.51794163285164        1.58928952127890
C           55.05863202796984       -6.89299155682546        1.74227815515734
C           55.60773142522524       -7.69056733697129        0.74013272291865
O           55.61181408409828       -9.03746120671428        0.92059280026305
C           56.13378408711995       -7.10508382514728       -0.40884036502176
C           56.11289775686141       -5.72577486875162       -0.54937088104569
C           56.77980136268897       -2.78751631177002        0.20301091714898
C           58.06755819513460       -3.42524676277138        0.27949184234445
C           59.00510386977798       -2.45182113884679        0.16153883156271
C           58.30321777932609       -1.20663949929232        0.02366016589047
N           56.95871795165503       -1.44276906781698        0.05569125727417
H           59.99143546795487        0.05269327104945       -0.11220387544271
H           60.01182035614156        2.67118327017002       -0.28828368766726
H           58.11361978764447        4.56424928845664       -0.36893821437711
H           56.38918694520797        4.95115039431408       -2.34210370634226
H           56.35525767320365        7.41452815289301       -2.54762232460381
H           55.74560445738852        9.38005561923091       -1.54963471949398
H           54.43177208299574        7.70989947247556        1.26723236250686
H           54.47430578194065        5.24082542084295        1.47880313578782
H           52.77905632033067        4.49807064170409       -0.42679352076919
H           50.92222307049152        2.57998790344034       -0.22561643831074
H           50.98878947018505       -2.68860037332769        0.23013008665208
H           52.89627372129591       -4.56538627414657        0.35474847647177
H           54.61942156398666       -4.89659648420191        2.37434009571616
H           54.65674341679260       -7.36165842540186        2.63212911213628
H           56.01578496977110       -9.49081711601722        0.16858207659503
H           56.55606293164814       -7.73032234461877       -1.18837313497549
H           56.51225833665065       -5.27226163424451       -1.44983138320356
H           58.22955801363035       -4.48220114473596        0.41892892290736
H           60.07895617024378       -2.55524759870443        0.17478781147662
C           38.51837221705787        0.04013199166971       -0.03244064217539
C           39.73504459786601        0.04092962590120       -0.03734328208145
C           49.43435306478878       -0.04843475549151        0.04907089644625
C           50.65103234231156       -0.04860662628874        0.04693179734017
Zn          44.58481918430148        0.00596603142281       -0.00816771365836
C           41.14510875097159        0.03918009331602       -0.03919662271421
C           41.79195845426280        1.11886022746491        0.59241073873019
C           41.12018568828763        2.19143960224753        1.26414352624521
C           42.08016750012130        3.01992954845754        1.74979518472971
C           43.34935363556382        2.46424570765297        1.37221687012179
N           43.13736079364149        1.30433900096766        0.67615162926069
C           44.59803024774488        3.00875525463381        1.69311826234788
C           44.60495627972593        4.29187107927187        2.44032213242271
C           45.17228723608889        4.36683051131520        3.71492075971370
C           45.17821351329998        5.55719608889053        4.42015218421789
C           44.61816952297834        6.69973601046708        3.85170838771183
O           44.64365871239642        7.85289474312969        4.56959650544930
C           44.05187106876030        6.64160163578978        2.58062634905760
C           44.04439028166208        5.44223982568662        1.88486539428551
C           45.84122446155100        2.44721451023537        1.38043789454368
C           47.11593978555458        3.03918671664183        1.67486015940964
C           48.06818362029978        2.18837035930022        1.21347351138927
N           46.04258738645125        1.25802535189022        0.73218240998404
C           47.38658843327580        1.07513398852924        0.62254057078516
C           48.02392832349199       -0.03764713120700        0.04004285750490
C           47.37562222157779       -1.13476149678073       -0.55927093462231
C           48.04529724624557       -2.26421201387748       -1.13303182375653
C           47.08558067854979       -3.08479332931823       -1.63218016359213
C           45.81892495017220       -2.45862242241433       -1.37629591238657
N           46.03144861497562       -1.28002945628503       -0.71280865428901
C           44.57179967732063       -2.98229218798525       -1.73509295929560
C           44.56759733446098       -4.25431545538877       -2.50099482850493
C           43.96153224112663       -5.39762620165633       -1.97971798461020
C           43.95578703934721       -6.58561951851767       -2.69459146728221
C           44.55482986005710       -6.63904127359259       -3.95082759128074
O           44.56801860680566       -7.78114086896854       -4.68698403047554
C           45.16153838193667       -5.50379973193172       -4.48471479703464
C           45.16841834563080       -4.32488153408865       -3.76032304821744
C           43.32877285757526       -2.41037234166309       -1.44147723002822
C           42.05670331947127       -2.93349625800494       -1.85412985093395
C           41.10406718072864       -2.09418484701303       -1.37272617362009
C           41.78349157724579       -1.04530429114852       -0.67189556140225
N           43.12632084212439       -1.25548036822653       -0.73437649180125
H           40.05038097796923        2.28723137459083        1.36013707957788
H           41.94141602413886        3.92035543818786        2.32627410378867
H           45.59689369967178        3.47507319546802        4.16243531220365
H           45.61130302747419        5.61560825730335        5.41110500846516
H           44.22804180185597        8.57808161606791        4.08419132543791
H           43.62064506469527        7.53440524111458        2.14043663382455
H           43.61386978984515        5.40165110581807        0.89040940657201
H           47.26366423677602        3.98964702148399        2.16177337536311
H           49.13918578610456        2.30123204644911        1.26614114385266
H           49.11382349890778       -2.40798075598405       -1.14741542089465
H           47.22212698048951       -4.03632348689011       -2.12035041425729
H           43.50508561673247       -5.36065928115314       -0.99675873572924
H           43.48861901934247       -7.47304545220445       -2.28099424472164
H           44.12007098623451       -8.50175645202984       -4.22400978239547
H           45.62019044340671       -5.55858792873220       -5.46434743914630
H           45.62975855175723       -3.43832924754751       -4.18105659826976
H           41.91135769128813       -3.82091681607539       -2.44887620242632
H           40.03494803279821       -2.16606397255261       -1.49314329745919

          :  Hamiltonian                  GFN1-xTB          :
         :: total energy            -310.395797052893 Eh    ::
         :: gradient norm              0.000911316901 Eh/a0 ::
         :: HOMO-LUMO gap              0.936646441573 eV    ::
         :: SCC energy              -315.080684745909 Eh    ::
         :: repulsion energy           4.848280329246 Eh    ::

    * Orbital Energies and Occupations

         #    Occupation            Energy/Eh            Energy/eV
      -------------------------------------------------------------
         1        2.0000           -0.8030088             -21.8510
       ...           ...                  ...                  ...
       267        2.0000           -0.4170973             -11.3498
       268        2.0000           -0.4167505             -11.3404
       269        2.0000           -0.4161351             -11.3236
       270        2.0000           -0.4151479             -11.2968
       271        2.0000           -0.4147729             -11.2865
       272        2.0000           -0.4144798             -11.2786
       273        2.0000           -0.4138277             -11.2608
       274        2.0000           -0.3899973             -10.6124
       275        2.0000           -0.3897501             -10.6056
       276        2.0000           -0.3894153             -10.5965
       277        2.0000           -0.3863756             -10.5138
       278        2.0000           -0.3786568             -10.3038
       279        2.0000           -0.3693276             -10.0499 (HOMO)
       280                         -0.3349065              -9.1133 (LUMO)
       281                         -0.3244578              -8.8289
       282                         -0.3223100              -8.7705
       283                         -0.3218357              -8.7576
       284                         -0.3216971              -8.7538
       285                         -0.3147114              -8.5637
       286                         -0.2928768              -7.9696
       287                         -0.2859189              -7.7802
       288                         -0.2817558              -7.6670
       289                         -0.2645668              -7.1992
       290                         -0.2645492              -7.1988
       ...                                ...                  ...
       596                          1.3462069              36.6322
      -------------------------------------------------------------
                  HL-Gap            0.0344211 Eh            0.9366 eV

Wiberg/Mayer (AO) data.
largest (>0.10) Wiberg bond orders for each atom

     #   Z sym  total        # sym  WBO       # sym  WBO       # sym  WBO
 ---------------------------------------------------------------------------
     1  30 Zn   1.999 --    39 N    0.461     7 N    0.460    26 N    0.457
                            19 N    0.457
     2   6 C    3.927 --    38 C    1.357     3 C    1.356    40 H    0.971
     3   6 C    3.923 --     2 C    1.356     7 N    1.234     4 C    1.172
     4   6 C    3.960 --     5 C    1.657     3 C    1.172    41 H    0.976
     5   6 C    3.963 --     4 C    1.657     6 C    1.173    42 H    0.973
     6   6 C    3.918 --     8 C    1.315     7 N    1.243     5 C    1.173
     7   7 N    3.293 --     6 C    1.243     3 C    1.234     1 Zn   0.460
     8   6 C    3.934 --    16 C    1.321     6 C    1.315     9 C    1.028
     9   6 C    3.989 --    10 C    1.394    15 C    1.384     8 C    1.028
    10   6 C    3.987 --    11 C    1.451     9 C    1.394    43 H    0.973
                            14 C    0.105
    11   6 C    3.988 --    10 C    1.451    12 C    1.373    44 H    0.970
                            15 C    0.103
    12   6 C    3.901 --    11 C    1.373    14 C    1.365    13 O    1.038
    13   8 O    2.041 --    12 C    1.038    45 H    0.866
    14   6 C    3.990 --    15 C    1.466    12 C    1.365    46 H    0.971
                            10 C    0.105
    15   6 C    3.988 --    14 C    1.466     9 C    1.384    47 H    0.973
                            11 C    0.103
    16   6 C    3.913 --     8 C    1.321    19 N    1.227    17 C    1.180
    17   6 C    3.960 --    18 C    1.644    16 C    1.180    48 H    0.973
    18   6 C    3.962 --    17 C    1.644    20 C    1.187    49 H    0.971
    19   7 N    3.298 --    20 C    1.260    16 C    1.227     1 Zn   0.457
    20   6 C    3.909 --    21 C    1.260    19 N    1.260    18 C    1.187
    21   6 C    3.938 --    22 C    1.261    20 C    1.260   117 C    1.174
    22   6 C    3.909 --    21 C    1.261    26 N    1.260    23 C    1.187
    23   6 C    3.962 --    24 C    1.645    22 C    1.187    50 H    0.972
    24   6 C    3.960 --    23 C    1.645    25 C    1.180    51 H    0.973
    25   6 C    3.913 --    27 C    1.322    26 N    1.227    24 C    1.180
    26   7 N    3.297 --    22 C    1.260    25 C    1.227     1 Zn   0.457
    27   6 C    3.934 --    25 C    1.322    35 C    1.315    28 C    1.028
    28   6 C    3.989 --    34 C    1.394    29 C    1.384    27 C    1.028
    29   6 C    3.988 --    30 C    1.466    28 C    1.384    52 H    0.973
                            33 C    0.103
    30   6 C    3.990 --    29 C    1.466    31 C    1.365    53 H    0.971
                            34 C    0.105
    31   6 C    3.901 --    33 C    1.373    30 C    1.365    32 O    1.038
    32   8 O    2.041 --    31 C    1.038    54 H    0.866
    33   6 C    3.988 --    34 C    1.451    31 C    1.373    55 H    0.970
                            29 C    0.103
    34   6 C    3.987 --    33 C    1.451    28 C    1.394    56 H    0.973
                            30 C    0.105
    35   6 C    3.918 --    27 C    1.315    39 N    1.243    36 C    1.173
    36   6 C    3.963 --    37 C    1.657    35 C    1.173    57 H    0.973
    37   6 C    3.960 --    36 C    1.657    38 C    1.172    58 H    0.976
    38   6 C    3.923 --     2 C    1.357    39 N    1.233    37 C    1.172
    39   7 N    3.294 --    35 C    1.243    38 C    1.233     1 Zn   0.461
    40   1 H    1.002 --     2 C    0.971
    41   1 H    0.998 --     4 C    0.976
    42   1 H    1.005 --     5 C    0.973
    43   1 H    1.005 --    10 C    0.973
    44   1 H    0.999 --    11 C    0.970
    45   1 H    0.888 --    13 O    0.866
    46   1 H    0.999 --    14 C    0.971
    47   1 H    1.005 --    15 C    0.973
    48   1 H    1.005 --    17 C    0.973
    49   1 H    1.005 --    18 C    0.971
    50   1 H    1.005 --    23 C    0.972
    51   1 H    1.005 --    24 C    0.973
    52   1 H    1.005 --    29 C    0.973
    53   1 H    0.999 --    30 C    0.971
    54   1 H    0.888 --    32 O    0.866
    55   1 H    0.999 --    33 C    0.970
    56   1 H    1.005 --    34 C    0.973
    57   1 H    1.005 --    36 C    0.973
    58   1 H    0.998 --    37 C    0.976
    59  30 Zn   1.999 --    97 N    0.460    65 N    0.460    84 N    0.457
                            77 N    0.456
    60   6 C    3.927 --    96 C    1.357    61 C    1.357    98 H    0.971
    61   6 C    3.923 --    60 C    1.357    65 N    1.234    62 C    1.172
    62   6 C    3.960 --    63 C    1.657    61 C    1.172    99 H    0.976
    63   6 C    3.963 --    62 C    1.657    64 C    1.173   100 H    0.973
    64   6 C    3.918 --    66 C    1.315    65 N    1.243    63 C    1.173
    65   7 N    3.294 --    64 C    1.243    61 C    1.234    59 Zn   0.460
    66   6 C    3.934 --    74 C    1.321    64 C    1.315    67 C    1.028
    67   6 C    3.989 --    68 C    1.394    73 C    1.384    66 C    1.028
    68   6 C    3.987 --    69 C    1.451    67 C    1.394   101 H    0.973
                            72 C    0.105
    69   6 C    3.988 --    68 C    1.451    70 C    1.373   102 H    0.970
                            73 C    0.103
    70   6 C    3.901 --    69 C    1.373    72 C    1.365    71 O    1.038
    71   8 O    2.041 --    70 C    1.038   103 H    0.866
    72   6 C    3.990 --    73 C    1.466    70 C    1.365   104 H    0.971
                            68 C    0.105
    73   6 C    3.988 --    72 C    1.466    67 C    1.384   105 H    0.973
                            69 C    0.103
    74   6 C    3.913 --    66 C    1.321    77 N    1.227    75 C    1.180
    75   6 C    3.961 --    76 C    1.645    74 C    1.180   106 H    0.973
    76   6 C    3.962 --    75 C    1.645    78 C    1.186   107 H    0.971
    77   7 N    3.297 --    78 C    1.260    74 C    1.227    59 Zn   0.456
    78   6 C    3.909 --    79 C    1.260    77 N    1.260    76 C    1.186
    79   6 C    3.938 --    80 C    1.262    78 C    1.260   120 C    1.173
    80   6 C    3.909 --    79 C    1.262    84 N    1.259    81 C    1.187
    81   6 C    3.962 --    82 C    1.645    80 C    1.187   108 H    0.971
    82   6 C    3.960 --    81 C    1.645    83 C    1.180   109 H    0.973
    83   6 C    3.913 --    85 C    1.322    84 N    1.227    82 C    1.180
    84   7 N    3.298 --    80 C    1.259    83 C    1.227    59 Zn   0.457
    85   6 C    3.934 --    83 C    1.322    93 C    1.315    86 C    1.027
    86   6 C    3.989 --    92 C    1.395    87 C    1.384    85 C    1.027
    87   6 C    3.988 --    88 C    1.466    86 C    1.384   110 H    0.973
                            91 C    0.103
    88   6 C    3.990 --    87 C    1.466    89 C    1.365   111 H    0.971
                            92 C    0.105
    89   6 C    3.901 --    91 C    1.373    88 C    1.365    90 O    1.038
    90   8 O    2.041 --    89 C    1.038   112 H    0.866
    91   6 C    3.988 --    92 C    1.451    89 C    1.373   113 H    0.970
                            87 C    0.103
    92   6 C    3.988 --    91 C    1.451    86 C    1.395   114 H    0.973
                            88 C    0.105
    93   6 C    3.918 --    85 C    1.315    97 N    1.243    94 C    1.173
    94   6 C    3.963 --    95 C    1.657    93 C    1.173   115 H    0.973
    95   6 C    3.960 --    94 C    1.657    96 C    1.172   116 H    0.976
    96   6 C    3.923 --    60 C    1.357    97 N    1.233    95 C    1.172
    97   7 N    3.294 --    93 C    1.243    96 C    1.233    59 Zn   0.460
    98   1 H    1.002 --    60 C    0.971
    99   1 H    0.998 --    62 C    0.976
   100   1 H    1.005 --    63 C    0.973
   101   1 H    1.005 --    68 C    0.973
   102   1 H    0.999 --    69 C    0.970
   103   1 H    0.888 --    71 O    0.866
   104   1 H    0.999 --    72 C    0.971
   105   1 H    1.005 --    73 C    0.973
   106   1 H    1.005 --    75 C    0.973
   107   1 H    1.005 --    76 C    0.971
   108   1 H    1.005 --    81 C    0.971
   109   1 H    1.005 --    82 C    0.973
   110   1 H    1.005 --    87 C    0.973
   111   1 H    0.999 --    88 C    0.971
   112   1 H    0.888 --    90 O    0.866
   113   1 H    0.999 --    91 C    0.970
   114   1 H    1.005 --    92 C    0.973
   115   1 H    1.005 --    94 C    0.973
   116   1 H    0.998 --    95 C    0.976
   117   6 C    3.930 --   118 C    2.577    21 C    1.174
   118   6 C    3.932 --   117 C    2.577   122 C    1.175
   119   6 C    3.932 --   120 C    2.578   141 C    1.174
   120   6 C    3.930 --   119 C    2.578    79 C    1.173
   121  30 Zn   1.997 --   139 N    0.458   146 N    0.457   159 N    0.457
                           127 N    0.457
   122   6 C    3.927 --   123 C    1.259   158 C    1.258   118 C    1.175
   123   6 C    3.909 --   127 N    1.260   122 C    1.259   124 C    1.188
   124   6 C    3.961 --   125 C    1.642   123 C    1.188   160 H    0.972
   125   6 C    3.961 --   124 C    1.642   126 C    1.182   161 H    0.973
   126   6 C    3.912 --   128 C    1.319   127 N    1.226   125 C    1.182
   127   7 N    3.291 --   123 C    1.260   126 C    1.226   121 Zn   0.457
   128   6 C    3.929 --   126 C    1.319   136 C    1.319   129 C    1.028
   129   6 C    3.989 --   135 C    1.394   130 C    1.383   128 C    1.028
   130   6 C    3.988 --   131 C    1.466   129 C    1.383   162 H    0.973
                           134 C    0.103
   131   6 C    3.990 --   130 C    1.466   132 C    1.365   163 H    0.971
                           135 C    0.105
   132   6 C    3.901 --   134 C    1.373   131 C    1.365   133 O    1.039
   133   8 O    2.042 --   132 C    1.039   164 H    0.865
   134   6 C    3.988 --   135 C    1.451   132 C    1.373   165 H    0.970
                           130 C    0.103
   135   6 C    3.987 --   134 C    1.451   129 C    1.394   166 H    0.973
                           131 C    0.105
   136   6 C    3.912 --   128 C    1.319   139 N    1.226   137 C    1.182
   137   6 C    3.961 --   138 C    1.642   136 C    1.182   167 H    0.973
   138   6 C    3.961 --   137 C    1.642   140 C    1.188   168 H    0.971
   139   7 N    3.292 --   140 C    1.260   136 C    1.226   121 Zn   0.458
   140   6 C    3.909 --   139 N    1.260   141 C    1.259   138 C    1.188
   141   6 C    3.927 --   142 C    1.259   140 C    1.259   119 C    1.174
   142   6 C    3.909 --   146 N    1.260   141 C    1.259   143 C    1.188
   143   6 C    3.960 --   144 C    1.642   142 C    1.188   169 H    0.971
   144   6 C    3.961 --   143 C    1.642   145 C    1.182   170 H    0.973
   145   6 C    3.912 --   147 C    1.319   146 N    1.226   144 C    1.182
   146   7 N    3.292 --   142 C    1.260   145 C    1.226   121 Zn   0.457
   147   6 C    3.929 --   155 C    1.319   145 C    1.319   148 C    1.028
   148   6 C    3.989 --   149 C    1.394   154 C    1.384   147 C    1.028
   149   6 C    3.987 --   150 C    1.451   148 C    1.394   171 H    0.973
                           153 C    0.105
   150   6 C    3.988 --   149 C    1.451   151 C    1.373   172 H    0.970
                           154 C    0.103
   151   6 C    3.901 --   150 C    1.373   153 C    1.365   152 O    1.038
   152   8 O    2.041 --   151 C    1.038   173 H    0.865
   153   6 C    3.990 --   154 C    1.466   151 C    1.365   174 H    0.971
                           149 C    0.105
   154   6 C    3.988 --   153 C    1.466   148 C    1.384   175 H    0.973
                           150 C    0.103
   155   6 C    3.912 --   147 C    1.319   159 N    1.226   156 C    1.182
   156   6 C    3.961 --   157 C    1.641   155 C    1.182   176 H    0.973
   157   6 C    3.961 --   156 C    1.641   158 C    1.189   177 H    0.972
   158   6 C    3.909 --   159 N    1.260   122 C    1.258   157 C    1.189
   159   7 N    3.291 --   158 C    1.260   155 C    1.226   121 Zn   0.457
   160   1 H    1.005 --   124 C    0.972
   161   1 H    1.005 --   125 C    0.973
   162   1 H    1.005 --   130 C    0.973
   163   1 H    0.999 --   131 C    0.971
   164   1 H    0.887 --   133 O    0.865
   165   1 H    0.999 --   134 C    0.970
   166   1 H    1.005 --   135 C    0.973
   167   1 H    1.005 --   137 C    0.973
   168   1 H    1.005 --   138 C    0.971
   169   1 H    1.005 --   143 C    0.971
   170   1 H    1.005 --   144 C    0.973
   171   1 H    1.005 --   149 C    0.973
   172   1 H    0.999 --   150 C    0.970
   173   1 H    0.887 --   152 O    0.865
   174   1 H    0.999 --   153 C    0.971
   175   1 H    1.005 --   154 C    0.973
   176   1 H    1.005 --   156 C    0.973
   177   1 H    1.005 --   157 C    0.972
 ---------------------------------------------------------------------------

           -------------------------------------------------
          | TOTAL ENERGY             -310.395797052893 Eh   |
          | GRADIENT NORM               0.000911316901 Eh/α |
          | HOMO-LUMO GAP               0.936646441573 eV   |
           -------------------------------------------------

 * finished run on 2022/07/30 at 11:30:32.328
