   * xtb version 6.5.1 (b24c23e) compiled by 'conda@728c89f4b128' on 2022-07-12
          program call               : xtb PhNH2_C2_3.xyz --gfn 1 --opt -T 48

   ID    Z sym.   atoms
    1    6 C      1-5, 7-11, 13-17, 19-24, 26-30, 32-37, 62-66, 68-72, 74-78,
                  80-85, 87-91, 93-98, 123-131, 133-137, 139-143, 145-150,
                  152-156, 158-163
    2    7 N      6, 12, 18, 25, 31, 38, 67, 73, 79, 86, 92, 99, 132, 138,
                  144, 151, 157, 164
    3    1 H      39-61, 100-122, 165-186
########################################################################
[WARNING] Please study the warnings concerning your input carefully
-1- prog_main_parseArguments: Unknown option '-T' provided
########################################################################

          :  Hamiltonian                  GFN1-xTB          :
 * total energy  :  -304.3335964 Eh     change       -0.1165347E-08 Eh
 * total energy  :  -305.0984247 Eh     change       -0.7648283E+00 Eh
 * total energy  :  -305.2714009 Eh     change       -0.1729762E+00 Eh
 * total energy  :  -305.3575415 Eh     change       -0.8614056E-01 Eh
 * total energy  :  -305.3864355 Eh     change       -0.2889400E-01 Eh
 * total energy  :  -305.4047018 Eh     change       -0.1826637E-01 Eh
 * total energy  :  -305.4164137 Eh     change       -0.1171187E-01 Eh
 * total energy  :  -305.4244142 Eh     change       -0.8000475E-02 Eh
 * total energy  :  -305.4298972 Eh     change       -0.5483060E-02 Eh
 * total energy  :  -305.4337922 Eh     change       -0.3894997E-02 Eh
 * total energy  :  -305.4520096 Eh     change       -0.1151383E-04 Eh
 * total energy  :  -305.4520162 Eh     change       -0.6591934E-05 Eh
 * total energy  :  -305.4520229 Eh     change       -0.6693066E-05 Eh
 * total energy  :  -305.4520318 Eh     change       -0.8852021E-05 Eh
 * total energy  :  -305.4520395 Eh     change       -0.7720969E-05 Eh
 * total energy  :  -305.4520449 Eh     change       -0.5465236E-05 Eh
 * total energy  :  -305.4520505 Eh     change       -0.5585182E-05 Eh
 * total energy  :  -305.4520569 Eh     change       -0.6371856E-05 Eh
 * total energy  :  -305.4520619 Eh     change       -0.4972870E-05 Eh
   *** GEOMETRY OPTIMIZATION CONVERGED AFTER 59 ITERATIONS ***

 final structure:
================
186
 xtb: 6.5.1 (b24c23e)
C           30.76791592243709       -0.10277535440949        0.08618428765781
C           31.38100356015309       -0.97359417586382        0.97778628467743
C           30.73485170102436       -1.88381785092475        1.86001952034856
C           31.70135216361199       -2.54283143267572        2.56699028426786
C           32.96895636245395       -2.04894950763106        2.14669268872046
N           32.72488550101109       -1.11256072662406        1.18190091152952
C           34.23355187292016       -2.44534865491541        2.59695437003533
C           34.26734932386843       -3.46098381993940        3.67655215853902
C           34.89557736585851       -4.69289241983572        3.47826760412423
C           34.92799644732330       -5.64277595539813        4.48368047329909
C           34.34134421332710       -5.37295313869056        5.72270423480787
N           34.33963085944760       -6.33485725062766        6.71862834189806
C           33.70467289536408       -4.14622700122731        5.92685392390162
C           33.66879338092881       -3.20551940503678        4.91264658506785
C           35.44753620589798       -1.95588702169736        2.10669949569772
C           36.74413630326607       -2.35160177327712        2.62459576163644
C           37.66511087162574       -1.67887652638963        1.90373297907472
N           35.60343254148135       -1.04399740229817        1.10737819212975
C           36.93207065287903       -0.86033612720270        0.95884455342006
C           37.56979515193704       -0.01804515102105        0.02568234130180
C           36.92972252070697        0.81981619903261       -0.90712777663263
C           37.56610811286117        1.66072690471615       -1.85727996384403
C           36.59446464315023        2.31928034450047       -2.55888263022370
C           35.33174772020634        1.91125818655039       -2.04810287388023
N           35.58604268177346        0.99828004981065       -1.05832125026683
C           34.06817422764860        2.33566987995515       -2.47533463095765
C           34.03070542922455        3.35638501626331       -3.54901264430293
C           33.39458247971274        3.08726314753068       -4.76354403784759
C           33.35366714857339        4.03648127748022       -5.76923929560909
C           33.93863537809813        5.29021981009249       -5.57423444597916
N           33.93124803931360        6.22994283651880       -6.59113206131371
C           34.58208180019695        5.56553271419078       -4.36502848923302
C           34.62686807333426        4.60688315838887       -3.36822660345861
C           32.85301384927062        1.86972245676444       -1.96133295404804
C           31.54883837967421        2.36637468751278       -2.37144995690749
C           30.63509705093197        1.67910196323158       -1.65636325565089
C           31.38011758674556        0.77343954813326       -0.80055309168207
N           32.71206023907762        0.92151468327951       -1.00483745833027
H           29.68256588419789       -0.11294613209365        0.09172600347171
H           29.66652650589161       -2.01373535255082        1.92973029786328
H           31.55471287443214       -3.31196975563429        3.30790876111853
H           33.44634479429969       -0.60103694682197        0.68490461082657
H           35.34575255714756       -4.91328981752073        2.51658394147351
H           35.41023507104309       -6.59932332349259        4.31426494579279
H           34.21322968663461       -5.97876161519114        7.65268773014991
H           35.06961586364705       -7.02526971790533        6.64294155952041
H           33.24353743265715       -3.93242691917561        6.88498741053073
H           33.18994686770130       -2.24787231084814        5.08624190189318
H           36.90800308753921       -3.04079364416847        3.43710409692489
H           38.73897701777430       -1.71720857993085        1.98770727408420
H           38.63274193878442        1.74648394555870       -1.98393020350885
H           36.73781742742462        3.01944716292404       -3.36558490506197
H           34.86841751743697        0.52194632085882       -0.52193102416886
H           32.94537168476448        2.11358582982972       -4.92581386168814
H           32.86589667216436        3.81148049598604       -6.71146086044477
H           33.19793656475043        6.11258359269503       -7.27210575596985
H           34.05585548285717        7.18312698590574       -6.28932535279604
H           35.04118396558889        6.53570121300441       -4.20901992029486
H           35.11014805707258        4.83663992421468       -2.42479993742241
H           31.37971659941063        3.14595245216169       -3.09688005485386
H           29.55960748573336        1.76308397143212       -1.67572567067540
C           59.30417823148399        0.02391915609088       -0.14393767403756
C           58.69272669714511        0.67039993243555       -1.21060812302647
C           59.34132197748021        1.28812777361356       -2.31607025238949
C           58.37793680198173        1.82595414815294       -3.12305373211865
C           57.11009337748519        1.56367231977437       -2.53076105309463
N           57.35034492995312        0.85277084588480       -1.38868281616755
C           55.84772242207434        1.94184852628449       -3.00372288047038
C           55.81339039507547        2.76190270024440       -4.23714194329498
C           55.12460895321308        2.31828845971842       -5.36906181467911
C           55.09114236481854        3.07982105400574       -6.52354691303258
C           55.73791666599060        4.31762355809807       -6.56633312463414
N           55.73857508508637        5.06520534810996       -7.73159941701224
C           56.43349124558906        4.76646778150612       -5.44084859326920
C           56.46952041180909        3.99419343301874       -4.29334284839583
C           54.63515043297330        1.60754012684752       -2.39360671270895
C           53.34233833450821        2.08315467964624       -2.85011675380339
C           52.42269151866869        1.54524629948929       -2.02174306188920
N           54.47999603100197        0.81877058664738       -1.29455989408680
C           53.15411816033280        0.74977630722202       -1.05587623482656
C           52.51681783088007        0.02508561846085       -0.02839294320905
C           53.15330905936233       -0.69948607587298        0.99694789328959
C           52.51330579228219       -1.47307403824262        2.00050811117535
C           53.48177864039844       -2.00524822685080        2.80654594946908
C           54.74499885710641       -1.56673813569696        2.32295780698697
N           54.49501975286817       -0.79041110089179        1.22194670291167
C           56.00754039997653       -1.87386823065598        2.84427566778280
C           56.04290358236333       -2.68996289354695        4.07960123280815
C           56.71307110129715       -3.91603655820022        4.10388374671896
C           56.74908855667363       -4.68308791403892        5.25455064267064
C           56.12426658500799       -4.22999305421892        6.41930457417783
N           56.12666571062903       -5.01144110839532        7.56204330301063
C           55.44682784971999       -3.00812282711643        6.40242694555884
C           55.40735410439972       -2.25195155937896        5.24439030172812
C           57.22200101615059       -1.46867196123099        2.27873926279246
C           58.52648365281771       -1.73606967964639        2.86364988615674
C           59.43895603617796       -1.20888389028258        2.02195628179403
C           58.69279300488390       -0.60836556802143        0.93098094225218
N           57.36120711275304       -0.77212694680023        1.12571033223294
H           60.38952985602536        0.01971459107610       -0.15910245113396
H           60.40907311030658        1.30632327817782       -2.46652907296554
H           58.52725226857245        2.34978031813291       -4.05328220243294
H           56.62654759567410        0.50851992768960       -0.76670585973644
H           54.62769266388163        1.35461129118823       -5.34697949010379
H           54.56176153482022        2.71961901722159       -7.39892084635394
H           55.91961165244489        6.04834657878559       -7.60576215287562
H           54.97747928835443        4.86976877270522       -8.36224230648783
H           56.94017861615061        5.72502865329661       -5.46870019651825
H           56.99350632221767        4.36062726444159       -3.41719022623797
H           53.18123996564631        2.75350104103924       -3.67887508799529
H           51.35267877201562        1.67686864235337       -2.03262756595137
H           51.44744842224447       -1.61106979359857        2.08200053404528
H           53.33655029878418       -2.65710015693168        3.65248666610957
H           55.21557208489306       -0.36062547784257        0.65131606351361
H           57.19185333066120       -4.27980221854485        3.20135159417365
H           57.26316694019563       -5.63808560936240        5.25710278904208
H           56.87811397950888       -5.68023932729075        7.61831372906895
H           55.96366086251286       -4.50999122637486        8.42056457298592
H           54.95677499339808       -2.65262238822027        7.30234615741387
H           54.89719756145076       -1.29477971236529        5.24651673669625
H           58.69682750951900       -2.24364355707326        3.79958231667665
H           60.51430439337475       -1.20178791337545        2.10973012072332
C           38.98011961586311       -0.00242087787125        0.01682083836015
C           40.19755378385027        0.01154107015725        0.01187409854340
C           49.89045434581192        0.01471271653321       -0.00633626109371
C           51.10775445618845        0.02092333013137       -0.01401880964683
C           41.60715433975622        0.02315406512455        0.01274320393671
C           42.23705236034402       -0.27527379258950        1.23624175667771
C           41.59475161851421       -0.58557670519672        2.46215443790773
C           42.56254314046961       -0.77629232086664        3.41023115685409
C           43.82659380494620       -0.57433576014231        2.79328456646768
N           43.57950300161360       -0.28496829844207        1.47744973880103
C           45.08585873677661       -0.66025485515688        3.40113942491242
C           45.09969665492602       -0.94049838434841        4.85716403426753
C           45.73461646261190       -2.08048214223085        5.35625779871620
C           45.74952489848867       -2.34771750659645        6.71367110982731
C           45.13884043604075       -1.46570321785650        7.60873578022186
N           45.11873437195691       -1.74880540597576        8.96399478553577
C           44.49767808276631       -0.32568729178966        7.11758474415006
C           44.47910459143750       -0.07115216039633        5.75765241462196
C           46.31150075809824       -0.49953411664272        2.75133598979304
C           47.59388325590957       -0.52138297185551        3.43107829259238
C           48.53407359797747       -0.33810343550297        2.48048850010339
N           46.49334152820877       -0.28309396800319        1.41945231804724
C           47.82530343261563       -0.19428948967900        1.22511312473732
C           48.48213662874036        0.01884143914013       -0.00291348389903
C           47.85302582037696        0.24815816466542       -1.24138555075587
C           48.49476891135987        0.41521313551840       -2.49525119833569
C           47.52722084739944        0.62837565874079       -3.43911765125380
C           46.26494743869639        0.60258528860237       -2.78687833477776
N           46.51204896590738        0.35867286587783       -1.46209981577818
C           45.00546693022798        0.76869387874789       -3.37700869991652
C           44.99308156211877        1.07628405697034       -4.82767032679605
C           45.61501344653347        2.22752561800426       -5.31693372845529
C           45.59919750731708        2.52301444700053       -6.66865855930127
C           44.96073255477662        1.66386252809777       -7.56650045388408
N           44.98324881751960        1.93111659561027       -8.92493902191990
C           44.35083564072230        0.50180749945670       -7.08724848717708
C           44.36230481689854        0.21936886316728       -5.73292425916660
C           43.78037298162766        0.66279237054749       -2.71501663352279
C           42.49712460255228        0.88786897520424       -3.35459091992945
C           41.55671953636537        0.67172634757604       -2.41142183183137
C           42.26520719306443        0.33295950701190       -1.19412076037122
N           43.59819907136882        0.34423259254059       -1.40355214859911
H           40.52785842237250       -0.65136192938974        2.59745171791169
H           42.41415113020490       -1.04172917590936        4.44413974590674
H           44.29710482705649       -0.10805220047974        0.78246274778203
H           46.20410641322560       -2.77395456408575        4.66721938290035
H           46.23660127288894       -3.24166230201739        7.08770827555638
H           45.85095715152777       -2.36472496704018        9.27981837494013
H           44.97354183985661       -0.95110659761532        9.56218480741516
H           44.01912693447850        0.36129600850150        7.80705852691891
H           43.99651395099683        0.82660656734370        5.38679805077494
H           47.73502515825728       -0.64150571318974        4.49305150447540
H           49.60457634032369       -0.28315432052249        2.59700185913304
H           49.55988685174819        0.36424065900618       -2.65154245231764
H           47.67338878497454        0.77594362725363       -4.49665956592379
H           45.79480418524507        0.26116661992789       -0.75134241484606
H           46.09689169792377        2.90920045969298       -4.62444111106550
H           46.07814609151161        3.42453918401824       -7.03502428077220
H           44.25288011925915        1.48542207894536       -9.45710595751260
H           45.12689068152307        2.89909307973480       -9.16486886481158
H           43.86716207726090       -0.17683975676395       -7.78129606863733
H           43.89382324958943       -0.68874195013286       -5.36976555943695
H           42.35486778080002        1.18325741233391       -4.38152112954822
H           40.48487108880567        0.73303063799913       -2.50766594523772

          :  Hamiltonian                  GFN1-xTB          :
         :: total energy            -305.452061876297 Eh    ::
         :: gradient norm              0.000490063411 Eh/a0 ::
         :: HOMO-LUMO gap              0.803147792749 eV    ::
         :: SCC energy              -310.397052079299 Eh    ::
         :: repulsion energy           5.105922804835 Eh    ::

    * Orbital Energies and Occupations

         #    Occupation            Energy/Eh            Energy/eV
      -------------------------------------------------------------
         1        2.0000           -0.7938884             -21.6028
       ...           ...                  ...                  ...
       267        2.0000           -0.4047674             -11.0143
       268        2.0000           -0.3980340             -10.8311
       269        2.0000           -0.3974522             -10.8152
       270        2.0000           -0.3970102             -10.8032
       271        2.0000           -0.3954168             -10.7598
       272        2.0000           -0.3951941             -10.7538
       273        2.0000           -0.3950658             -10.7503
       274        2.0000           -0.3891120             -10.5883
       275        2.0000           -0.3885506             -10.5730
       276        2.0000           -0.3882098             -10.5637
       277        2.0000           -0.3790007             -10.3131
       278        2.0000           -0.3724762             -10.1356
       279        2.0000           -0.3636941              -9.8966 (HOMO)
       280        0.0000           -0.3341789              -9.0935 (LUMO)
       281                         -0.3234334              -8.8011
       282                         -0.3202597              -8.7147
       283                         -0.3201544              -8.7118
       284                         -0.3198435              -8.7034
       285                         -0.3133807              -8.5275
       286                         -0.2905168              -7.9054
       287                         -0.2834018              -7.7118
       288                         -0.2788256              -7.5872
       289                         -0.2557807              -6.9601
       290                         -0.2556961              -6.9578
       ...                                ...                  ...
       608                          1.3474268              36.6653
      -------------------------------------------------------------
                  HL-Gap            0.0295151 Eh            0.8031 eV

Wiberg/Mayer (AO) data.
largest (>0.10) Wiberg bond orders for each atom

     #   Z sym  total        # sym  WBO       # sym  WBO       # sym  WBO
 ---------------------------------------------------------------------------
     1   6 C    3.923 --    37 C    1.365     2 C    1.345    39 H    0.971
     2   6 C    3.903 --     1 C    1.345     3 C    1.231     6 N    1.170
     3   6 C    3.953 --     4 C    1.592     2 C    1.231    40 H    0.977
     4   6 C    3.959 --     3 C    1.592     5 C    1.237    41 H    0.974
     5   6 C    3.895 --     7 C    1.302     4 C    1.237     6 N    1.175
     6   7 N    3.468 --     5 C    1.175     2 C    1.170    42 H    0.874
     7   6 C    3.939 --    15 C    1.332     5 C    1.302     8 C    1.033
     8   6 C    3.988 --    14 C    1.382     9 C    1.381     7 C    1.033
     9   6 C    3.988 --    10 C    1.469     8 C    1.381    43 H    0.973
    10   6 C    3.990 --     9 C    1.469    11 C    1.354    44 H    0.972
    11   6 C    3.952 --    13 C    1.355    10 C    1.354    12 N    1.114
    12   7 N    3.133 --    11 C    1.114    45 H    0.934    46 H    0.934
    13   6 C    3.990 --    14 C    1.468    11 C    1.355    47 H    0.972
    14   6 C    3.987 --    13 C    1.468     8 C    1.382    48 H    0.973
    15   6 C    3.915 --     7 C    1.332    18 N    1.288    16 C    1.128
    16   6 C    3.966 --    17 C    1.705    15 C    1.128    49 H    0.973
    17   6 C    3.964 --    16 C    1.705    19 C    1.131    50 H    0.969
    18   7 N    3.020 --    19 C    1.341    15 C    1.288
    19   6 C    3.915 --    18 N    1.341    20 C    1.259    17 C    1.131
    20   6 C    3.935 --    19 C    1.259    21 C    1.255   123 C    1.178
    21   6 C    3.891 --    20 C    1.255    22 C    1.251    25 N    1.187
    22   6 C    3.959 --    23 C    1.580    21 C    1.251    51 H    0.970
    23   6 C    3.955 --    22 C    1.580    24 C    1.243    52 H    0.974
    24   6 C    3.897 --    26 C    1.306    23 C    1.243    25 N    1.165
    25   7 N    3.473 --    21 C    1.187    24 C    1.165    53 H    0.873
    26   6 C    3.925 --    34 C    1.320    24 C    1.306    27 C    1.034
    27   6 C    3.988 --    33 C    1.381    28 C    1.380    26 C    1.034
    28   6 C    3.987 --    29 C    1.469    27 C    1.380    54 H    0.973
    29   6 C    3.989 --    28 C    1.469    30 C    1.354    55 H    0.972
    30   6 C    3.951 --    32 C    1.355    29 C    1.354    31 N    1.114
    31   7 N    3.132 --    30 C    1.114    56 H    0.934    57 H    0.934
    32   6 C    3.990 --    33 C    1.468    30 C    1.355    58 H    0.972
    33   6 C    3.987 --    32 C    1.468    27 C    1.381    59 H    0.973
    34   6 C    3.928 --    26 C    1.320    38 N    1.317    35 C    1.120
    35   6 C    3.967 --    36 C    1.719    34 C    1.120    60 H    0.974
    36   6 C    3.965 --    35 C    1.719    37 C    1.119    61 H    0.976
    37   6 C    3.930 --     1 C    1.365    38 N    1.300    36 C    1.119
    38   7 N    3.010 --    34 C    1.317    37 C    1.300
    39   1 H    1.002 --     1 C    0.971
    40   1 H    0.998 --     3 C    0.977
    41   1 H    1.005 --     4 C    0.974
    42   1 H    0.987 --     6 N    0.874
    43   1 H    1.005 --     9 C    0.973
    44   1 H    0.999 --    10 C    0.972
    45   1 H    0.961 --    12 N    0.934
    46   1 H    0.961 --    12 N    0.934
    47   1 H    0.999 --    13 C    0.972
    48   1 H    1.005 --    14 C    0.973
    49   1 H    1.006 --    16 C    0.973
    50   1 H    1.007 --    17 C    0.969
    51   1 H    1.006 --    22 C    0.970
    52   1 H    1.005 --    23 C    0.974
    53   1 H    0.988 --    25 N    0.873
    54   1 H    1.005 --    28 C    0.973
    55   1 H    0.999 --    29 C    0.972
    56   1 H    0.961 --    31 N    0.934
    57   1 H    0.961 --    31 N    0.934
    58   1 H    0.999 --    32 C    0.972
    59   1 H    1.005 --    33 C    0.973
    60   1 H    1.006 --    35 C    0.974
    61   1 H    0.999 --    36 C    0.976
    62   6 C    3.922 --    98 C    1.365    63 C    1.345   100 H    0.971
    63   6 C    3.904 --    62 C    1.345    64 C    1.232    67 N    1.170
    64   6 C    3.951 --    65 C    1.592    63 C    1.232   101 H    0.977
    65   6 C    3.959 --    64 C    1.592    66 C    1.237   102 H    0.974
    66   6 C    3.895 --    68 C    1.300    65 C    1.237    67 N    1.176
    67   7 N    3.468 --    66 C    1.176    63 C    1.170   103 H    0.874
    68   6 C    3.938 --    76 C    1.331    66 C    1.300    69 C    1.036
    69   6 C    3.988 --    75 C    1.381    70 C    1.379    68 C    1.036
    70   6 C    3.986 --    71 C    1.469    69 C    1.379   104 H    0.972
    71   6 C    3.990 --    70 C    1.469    72 C    1.354   105 H    0.972
    72   6 C    3.951 --    74 C    1.354    71 C    1.354    73 N    1.115
    73   7 N    3.133 --    72 C    1.115   106 H    0.934   107 H    0.934
    74   6 C    3.989 --    75 C    1.468    72 C    1.354   108 H    0.972
    75   6 C    3.987 --    74 C    1.468    69 C    1.381   109 H    0.973
    76   6 C    3.915 --    68 C    1.331    79 N    1.288    77 C    1.128
    77   6 C    3.965 --    78 C    1.704    76 C    1.128   110 H    0.974
    78   6 C    3.964 --    77 C    1.704    80 C    1.131   111 H    0.971
    79   7 N    3.020 --    80 C    1.342    76 C    1.288
    80   6 C    3.914 --    79 N    1.342    81 C    1.257    78 C    1.131
    81   6 C    3.935 --    80 C    1.257    82 C    1.254   126 C    1.180
    82   6 C    3.890 --    81 C    1.254    83 C    1.251    86 N    1.188
    83   6 C    3.957 --    84 C    1.579    82 C    1.251   112 H    0.972
    84   6 C    3.955 --    83 C    1.579    85 C    1.244   113 H    0.974
    85   6 C    3.897 --    87 C    1.305    84 C    1.244    86 N    1.166
    86   7 N    3.473 --    82 C    1.188    85 C    1.166   114 H    0.873
    87   6 C    3.924 --    95 C    1.318    85 C    1.305    88 C    1.037
    88   6 C    3.988 --    94 C    1.380    89 C    1.379    87 C    1.037
    89   6 C    3.985 --    90 C    1.470    88 C    1.379   115 H    0.972
    90   6 C    3.989 --    89 C    1.470    91 C    1.354   116 H    0.972
    91   6 C    3.951 --    93 C    1.354    90 C    1.354    92 N    1.115
    92   7 N    3.133 --    91 C    1.115   118 H    0.934   117 H    0.933
    93   6 C    3.989 --    94 C    1.469    91 C    1.354   119 H    0.972
    94   6 C    3.986 --    93 C    1.469    88 C    1.380   120 H    0.973
    95   6 C    3.928 --    87 C    1.318    99 N    1.318    96 C    1.120
    96   6 C    3.967 --    97 C    1.719    95 C    1.120   121 H    0.974
    97   6 C    3.965 --    96 C    1.719    98 C    1.119   122 H    0.976
    98   6 C    3.930 --    62 C    1.365    99 N    1.300    97 C    1.119
    99   7 N    3.009 --    95 C    1.318    98 C    1.300
   100   1 H    1.002 --    62 C    0.971
   101   1 H    0.998 --    64 C    0.977
   102   1 H    1.005 --    65 C    0.974
   103   1 H    0.986 --    67 N    0.874
   104   1 H    1.006 --    70 C    0.972
   105   1 H    0.999 --    71 C    0.972
   106   1 H    0.961 --    73 N    0.934
   107   1 H    0.961 --    73 N    0.934
   108   1 H    0.999 --    74 C    0.972
   109   1 H    1.005 --    75 C    0.973
   110   1 H    1.006 --    77 C    0.974
   111   1 H    1.006 --    78 C    0.971
   112   1 H    1.005 --    83 C    0.972
   113   1 H    1.005 --    84 C    0.974
   114   1 H    0.987 --    86 N    0.873
   115   1 H    1.005 --    89 C    0.972
   116   1 H    0.999 --    90 C    0.972
   117   1 H    0.961 --    92 N    0.933
   118   1 H    0.961 --    92 N    0.934
   119   1 H    0.999 --    93 C    0.972
   120   1 H    1.005 --    94 C    0.973
   121   1 H    1.006 --    96 C    0.974
   122   1 H    0.999 --    97 C    0.976
   123   6 C    3.928 --   124 C    2.572    20 C    1.178
   124   6 C    3.931 --   123 C    2.572   127 C    1.180
   125   6 C    3.931 --   126 C    2.570   146 C    1.182
   126   6 C    3.929 --   125 C    2.570    81 C    1.180
   127   6 C    3.922 --   163 C    1.258   128 C    1.251   124 C    1.180
   128   6 C    3.892 --   129 C    1.255   127 C    1.251   132 N    1.187
   129   6 C    3.955 --   130 C    1.574   128 C    1.255   165 H    0.970
   130   6 C    3.956 --   129 C    1.574   131 C    1.248   166 H    0.974
   131   6 C    3.893 --   133 C    1.297   130 C    1.248   132 N    1.166
   132   7 N    3.469 --   128 C    1.187   131 C    1.166   167 H    0.874
   133   6 C    3.927 --   141 C    1.335   131 C    1.297   134 C    1.033
   134   6 C    3.988 --   140 C    1.381   135 C    1.380   133 C    1.033
   135   6 C    3.988 --   136 C    1.469   134 C    1.380   168 H    0.973
   136   6 C    3.989 --   135 C    1.469   137 C    1.354   169 H    0.972
   137   6 C    3.951 --   139 C    1.355   136 C    1.354   138 N    1.114
   138   7 N    3.132 --   137 C    1.114   170 H    0.934   171 H    0.934
   139   6 C    3.990 --   140 C    1.468   137 C    1.355   172 H    0.972
   140   6 C    3.987 --   139 C    1.468   134 C    1.381   173 H    0.973
   141   6 C    3.916 --   133 C    1.335   144 N    1.286   142 C    1.128
   142   6 C    3.966 --   143 C    1.705   141 C    1.128   174 H    0.974
   143   6 C    3.964 --   142 C    1.705   145 C    1.132   175 H    0.971
   144   7 N    3.007 --   145 C    1.342   141 C    1.286
   145   6 C    3.915 --   144 N    1.342   146 C    1.257   143 C    1.132
   146   6 C    3.923 --   145 C    1.257   147 C    1.250   125 C    1.182
   147   6 C    3.891 --   148 C    1.255   146 C    1.250   151 N    1.188
   148   6 C    3.955 --   149 C    1.574   147 C    1.255   176 H    0.972
   149   6 C    3.956 --   148 C    1.574   150 C    1.249   177 H    0.974
   150   6 C    3.893 --   152 C    1.297   149 C    1.249   151 N    1.166
   151   7 N    3.469 --   147 C    1.188   150 C    1.166   178 H    0.874
   152   6 C    3.926 --   160 C    1.335   150 C    1.297   153 C    1.033
   153   6 C    3.988 --   154 C    1.382   159 C    1.380   152 C    1.033
   154   6 C    3.987 --   155 C    1.468   153 C    1.382   179 H    0.973
   155   6 C    3.990 --   154 C    1.468   156 C    1.355   180 H    0.972
   156   6 C    3.952 --   155 C    1.355   158 C    1.354   157 N    1.114
   157   7 N    3.133 --   156 C    1.114   182 H    0.934   181 H    0.934
   158   6 C    3.990 --   159 C    1.469   156 C    1.354   183 H    0.972
   159   6 C    3.988 --   158 C    1.469   153 C    1.380   184 H    0.973
   160   6 C    3.917 --   152 C    1.335   164 N    1.286   161 C    1.128
   161   6 C    3.966 --   162 C    1.705   160 C    1.128   185 H    0.973
   162   6 C    3.964 --   161 C    1.705   163 C    1.132   186 H    0.970
   163   6 C    3.916 --   164 N    1.342   127 C    1.258   162 C    1.132
   164   7 N    3.007 --   163 C    1.342   160 C    1.286
   165   1 H    1.006 --   129 C    0.970
   166   1 H    1.005 --   130 C    0.974
   167   1 H    0.988 --   132 N    0.874
   168   1 H    1.005 --   135 C    0.973
   169   1 H    0.999 --   136 C    0.972
   170   1 H    0.961 --   138 N    0.934
   171   1 H    0.961 --   138 N    0.934
   172   1 H    0.999 --   139 C    0.972
   173   1 H    1.005 --   140 C    0.973
   174   1 H    1.006 --   142 C    0.974
   175   1 H    1.006 --   143 C    0.971
   176   1 H    1.005 --   148 C    0.972
   177   1 H    1.005 --   149 C    0.974
   178   1 H    0.988 --   151 N    0.874
   179   1 H    1.005 --   154 C    0.973
   180   1 H    0.999 --   155 C    0.972
   181   1 H    0.961 --   157 N    0.934
   182   1 H    0.961 --   157 N    0.934
   183   1 H    0.999 --   158 C    0.972
   184   1 H    1.005 --   159 C    0.973
   185   1 H    1.006 --   161 C    0.973
   186   1 H    1.006 --   162 C    0.970
 ---------------------------------------------------------------------------

           -------------------------------------------------
          | TOTAL ENERGY             -305.452061876297 Eh   |
          | GRADIENT NORM               0.000490063411 Eh/α |
          | HOMO-LUMO GAP               0.803147792749 eV   |
           -------------------------------------------------

 * finished run on 2022/07/29 at 11:24:10.236
