   * xtb version 6.5.1 (b24c23e) compiled by 'conda@728c89f4b128' on 2022-07-12
          program call               : xtb Zn_Py_C2_3.xyz --gfn 1 --opt -T 48

   ID    Z sym.   atoms
    1   30 Zn     1, 55, 113
    2    6 C      2-6, 8-11, 13-17, 19-24, 26-29, 31-36, 56-60, 62-65, 67-71,
                  73-78, 80-83, 85-90, 109-112, 114-118, 120-123, 125-129,
                  131-136, 138-141, 143-148
    3    7 N      7, 12, 18, 25, 30, 37, 61, 66, 72, 79, 84, 91, 119, 124,
                  130, 137, 142, 149
    4    1 H      38-54, 92-108, 150-165

          :  Hamiltonian                  GFN1-xTB          :
 * total energy  :  -284.7985212 Eh     change       -0.2283969E-09 Eh
 * total energy  :  -284.9615201 Eh     change       -0.1629989E+00 Eh
 * total energy  :  -285.0755911 Eh     change       -0.1140710E+00 Eh
 * total energy  :  -285.1435332 Eh     change       -0.6794208E-01 Eh
 * total energy  :  -285.1815848 Eh     change       -0.3805164E-01 Eh
 * total energy  :  -285.2024877 Eh     change       -0.2090289E-01 Eh
 * total energy  :  -285.2197820 Eh     change       -0.1729428E-01 Eh
 * total energy  :  -285.2333795 Eh     change       -0.1359745E-01 Eh
 * total energy  :  -285.2446732 Eh     change       -0.1129374E-01 Eh
 * total energy  :  -285.2538252 Eh     change       -0.9151949E-02 Eh
 * total energy  :  -285.3164080 Eh     change       -0.9818017E-05 Eh
 * total energy  :  -285.3164180 Eh     change       -0.9995069E-05 Eh
 * total energy  :  -285.3164251 Eh     change       -0.7087372E-05 Eh
 * total energy  :  -285.3164393 Eh     change       -0.1418623E-04 Eh
 * total energy  :  -285.3164483 Eh     change       -0.9054258E-05 Eh
 * total energy  :  -285.3164553 Eh     change       -0.6991707E-05 Eh
 * total energy  :  -285.3164627 Eh     change       -0.7379421E-05 Eh
 * total energy  :  -285.3164686 Eh     change       -0.5895443E-05 Eh
 * total energy  :  -285.3164734 Eh     change       -0.4786225E-05 Eh
   *** GEOMETRY OPTIMIZATION CONVERGED AFTER 55 ITERATIONS ***

 final structure:
================
165
 xtb: 6.5.1 (b24c23e)
Zn          27.27022599828173       -0.03165702299325       -0.02345993675068
C           23.86014910621900       -0.05388360511637       -0.03924451342968
C           24.48616674462673       -1.28590872372975        0.10680127335064
C           23.80821842974479       -2.54018834423455        0.28080756010587
C           24.76404673512930       -3.49403276349264        0.40743454608538
C           26.03921671157833       -2.83445726162665        0.30366337239450
N           25.83498602426865       -1.49722264572909        0.12766524870776
C           27.28829655155184       -3.45874214655498        0.40434535691910
C           27.29566992815081       -4.93064733808889        0.58432079773254
C           27.84062036542116       -5.51931011046774        1.72519334843760
C           27.82235081712086       -6.89945070385612        1.84903726307988
N           27.30925599590458       -7.70352451735897        0.92300517524332
C           26.78928082014953       -7.15109024989445       -0.16837099492608
C           26.75737939328128       -5.78174084679398       -0.38038673878505
C           28.53022806739253       -2.81592325852244        0.34917674281934
C           29.80767242213671       -3.47165535051537        0.40392293348436
C           30.75696940909167       -2.50772320360945        0.29433827432557
N           28.72810489772933       -1.46998485858275        0.19651758153603
C           30.07144831858973       -1.25529993261202        0.16371288247970
C           30.70485874328268       -0.00980578549646       -0.00945543469894
C           30.05701089567346        1.22770988977550       -0.18540646893009
C           30.72730164311815        2.48108470260128       -0.37327696149225
C           29.76653812787704        3.43263812832648       -0.49119508268012
C           28.49735565316631        2.77030665417493       -0.36695871380588
N           28.71129969824048        1.42968949445459       -0.19175987741539
C           27.24791184414959        3.39654091309290       -0.44044021019232
C           27.23845622633712        4.87038193895727       -0.60387163800801
C           26.67297781596284        5.47392507406938       -1.72662353648713
C           26.68805353466912        6.85584914636573       -1.83175465306808
N           27.21641567142735        7.64766760274359       -0.90404559813350
C           27.75609596655483        7.08087319784302        0.17049971464440
C           27.79296676870715        5.70897099890585        0.36286513715053
C           26.00602990563622        2.75420776112694       -0.36847977566603
C           24.72333680875540        3.40624737117196       -0.40456151456040
C           23.77900568565260        2.43880062508986       -0.29615948902961
C           24.47178879116409        1.18572603428759       -0.18207486715949
N           25.81785177512267        1.41075869082548       -0.22406030133138
H           22.77456206822754       -0.05910477192857       -0.03042336415025
H           22.73671166090751       -2.66225339707260        0.30814995134061
H           24.62323502659768       -4.55061072561013        0.57000491946480
H           28.25862793565870       -4.90295296086853        2.51228415986286
H           28.23736846018599       -7.37987394812128        2.73026312954263
H           26.37970451887037       -7.83325165974504       -0.90778937097296
H           26.33424920248558       -5.37736787260516       -1.29224727962804
H           29.95775954306432       -4.53509121501871        0.49797711902223
H           31.82842634326694       -2.62955383122514        0.28928359293737
H           31.79722553372053        2.61045390143285       -0.41120110986769
H           29.90343980620007        4.48874673521495       -0.65914470961108
H           26.24154541452295        4.86832939392307       -2.51482487777362
H           26.25707269783190        7.34777352420111       -2.69910673135715
H           28.17769137292638        7.75358453292208        0.91179337027674
H           28.23261183162054        5.29220118789706        1.26130845703450
H           24.56994235455734        4.47009455366378       -0.48998641397317
H           22.70624036919632        2.55209818147806       -0.28562505521564
Zn          49.10035248598701        0.04692607652050       -0.02222039358976
C           52.51141332836462        0.05471491138714       -0.05946116820839
C           51.88725496415844        1.27196769547564       -0.30393416802943
C           52.56713771411467        2.51656799584733       -0.53157134372572
C           51.61274700066119        3.46386843709335       -0.70820691278013
C           50.33663237906559        2.80670025242426       -0.60103456935799
N           50.53877939522313        1.48135593745946       -0.34904592168549
C           49.08820374897963        3.43163810590479       -0.70398445829703
C           49.08269524821859        4.88898910017587       -0.97884030704562
C           48.53886359255083        5.79447939861271       -0.06800186268758
C           48.56082869317031        7.14805199173775       -0.36408708516950
N           49.07681767768927        7.63566897820127       -1.48805640689018
C           49.59525294224741        6.77967319236148       -2.36273665125298
C           49.62322756391949        5.40962546488493       -2.15405959324823
C           47.84529628980708        2.80377437869462       -0.56421620014630
C           46.56972901233377        3.44740290369022       -0.71522932720751
C           45.61833494438880        2.49990407823829       -0.51698167166676
N           47.64394429968581        1.47726890206391       -0.29158409674285
C           46.29996446511304        1.26667587907975       -0.25366627588250
C           45.66293520683456        0.03786419899713        0.00756004835568
C           46.31045057237924       -1.18648544485959        0.26365740173534
C           45.63967407930545       -2.43440344082971        0.48230376730427
C           46.59939466265719       -3.37624164605573        0.66684597064750
C           47.86916502095107       -2.71120309014955        0.56766976446591
N           47.65619892787084       -1.38270996259729        0.31471854659906
C           49.11770683985758       -3.33427339265113        0.67526140917836
C           49.12561402855417       -4.78781813376501        0.96848817820108
C           49.67713600575707       -5.70415077775646        0.07330973984493
C           49.66013612950834       -7.05340556065758        0.38951414659782
N           49.14283492165844       -7.52660485841004        1.51888078544664
C           48.61688932715168       -6.66004419144927        2.37887754980318
C           48.58294549312749       -5.29364255782222        2.14940226335522
C           50.36048642439052       -2.70710981207915        0.52638722641400
C           51.64224920141320       -3.34274182126829        0.68361931449596
C           52.58829423476231       -2.39351099916575        0.47515501644609
C           51.89754369305533       -1.16534818206373        0.19672065878625
N           50.55093129833293       -1.38721185286930        0.23924951779691
H           53.59702978083440        0.05954691727052       -0.05797395693305
H           53.63883848708987        2.63929592183505       -0.54464413410384
H           51.75531686551260        4.51800129384209       -0.88447190108083
H           48.11893916346794        5.44382205593239        0.86733266736328
H           48.14684498425363        7.87187086794264        0.33179902905523
H           50.00729676144483        7.20737611996007       -3.27218266506838
H           50.04552310225684        4.74915877667667       -2.90204224828779
H           46.42199919204958        4.48834284757863       -0.95368622350731
H           44.54740318578114        2.62082381376640       -0.54529201074386
H           44.57009496741902       -2.57030849424550        0.48080946643922
H           46.46106238897892       -4.43138301319765        0.83933673444285
H           50.09887997192695       -5.36581951965777       -0.86575022707343
H           50.07977879486540       -7.78551898112300       -0.29417333861663
H           48.20478180025314       -7.07627139221405        3.29359448608400
H           48.15468186895334       -4.62377534610269        2.88563802741522
H           51.79398038858522       -4.38026779613733        0.93483357211625
H           53.66102682451636       -2.50181314171394        0.51101664022742
C           32.11570694972775       -0.00337507163542       -0.01459108947103
C           33.33201198862732       -0.00078610082847       -0.01548150968303
C           43.03543608508357        0.02226349773278        0.00064632301047
C           44.25221268258341        0.03046127889462        0.00325821864225
Zn          38.18243773419947        0.00417586966883       -0.01605423887010
C           34.74251877209614       -0.00030674617324       -0.01734909605692
C           35.38528580749416       -0.92874617839148        0.82355560670139
C           34.70928901305908       -1.83517653447230        1.70429518598453
C           35.66588897673596       -2.54533166567448        2.35506538680507
C           36.93719885084122       -2.08404417482462        1.87109623523289
N           36.73006238090875       -1.09592636595033        0.94690445359540
C           38.18433293648447       -2.54833164344058        2.30359302861975
C           38.18448974957663       -3.63605047479759        3.31211529599984
C           37.63300799320291       -4.88590350920214        3.03207330832238
C           37.65615336599911       -5.86963342529284        4.00801732902669
N           38.17950052196315       -5.68063659897977        5.21521890672679
C           38.70569310274949       -4.49161399595688        5.49130480975082
C           38.73376206867309       -3.44781711536191        4.58004615881282
C           39.43050962689549       -2.07668677420659        1.87644999679717
C           40.70219231294750       -2.59291082104261        2.29969632585770
C           41.65818916341487       -1.87746292294582        1.65396065537696
N           39.63727536544499       -1.06979700046177        0.97232572302253
C           40.98214781189803       -0.92622776974585        0.82204994788257
C           41.62505899860968        0.01528697685997       -0.00515766671716
C           40.98058293412728        0.94978157603129       -0.83907756834106
C           41.65477830965250        1.90109888676899       -1.67229641389817
C           40.69781038232573        2.60537572872121       -2.32867871763583
C           39.42734466274428        2.08295511681035       -1.90966050596882
N           39.63562641481108        1.08318713401346       -0.99806876713405
C           38.18078880940498        2.54403732213539       -2.34703085699966
C           38.18156624775099        3.61887937636118       -3.36929305164729
C           38.73820492069858        3.41403463779374       -4.63155436050890
C           38.71149291841315        4.44413018424624       -5.55815536003757
N           38.17978955306923        5.63524820155920       -5.30212008930005
C           37.64971854730278        5.84009355653612       -4.10055240756776
C           37.62478359536731        4.87073399779633       -3.11020372235132
C           36.93420215241608        2.07875369684585       -1.91439420149395
C           35.66235503860409        2.53348005687337       -2.40294450901213
C           34.70677969560242        1.82670691397145       -1.74704848443794
C           35.38398152426193        0.92711160846464       -0.86027589769502
N           36.72850356690252        1.09670581048903       -0.98322719684800
H           33.63905263450372       -1.90643863362902        1.81549403054972
H           35.52424053346937       -3.30528826259314        3.10646616502295
H           37.20555052418952       -5.08951355401293        2.05744090537667
H           37.23611413342038       -6.85181643707948        3.81144210167429
H           39.12325094491209       -4.36669528857607        6.48620293998795
H           39.16256961905101       -2.49121945607710        4.85427447803367
H           40.84453472940972       -3.40526190757087        2.99396813558430
H           42.72859335779548       -1.98178695375239        1.72996481653534
H           42.72476062905686        2.01224747979459       -1.74328948833758
H           40.83866461202794        3.41446411838326       -3.02703329047368
H           39.17188454717066        2.45499400780893       -4.88914211662960
H           39.13482204195056        4.30624806338374       -6.54890416440128
H           37.22544504388936        6.82363715819672       -3.92049260137564
H           37.19201164011479        5.08746499938064       -2.14074787131249
H           35.51967841331901        3.28727322648165       -3.16032157177253
H           33.63646928091238        1.89475762879736       -1.85940415309136

          :  Hamiltonian                  GFN1-xTB          :
         :: total energy            -285.316473403426 Eh    ::
         :: gradient norm              0.000619688669 Eh/a0 ::
         :: HOMO-LUMO gap              0.968140713850 eV    ::
         :: SCC energy              -289.769401555605 Eh    ::
         :: repulsion energy           4.608746694633 Eh    ::

    * Orbital Energies and Occupations

         #    Occupation            Energy/Eh            Energy/eV
      -------------------------------------------------------------
         1        2.0000           -0.7652742             -20.8242
       ...           ...                  ...                  ...
       249        2.0000           -0.4231540             -11.5146
       250        2.0000           -0.4187817             -11.3956
       251        2.0000           -0.4185602             -11.3896
       252        2.0000           -0.4184415             -11.3864
       253        2.0000           -0.4184214             -11.3858
       254        2.0000           -0.4183203             -11.3831
       255        2.0000           -0.4182938             -11.3824
       256        2.0000           -0.3987786             -10.8513
       257        2.0000           -0.3980296             -10.8309
       258        2.0000           -0.3979506             -10.8288
       259        2.0000           -0.3965615             -10.7910
       260        2.0000           -0.3883036             -10.5663
       261        2.0000           -0.3791206             -10.3164 (HOMO)
       262                         -0.3435421              -9.3483 (LUMO)
       263                         -0.3329004              -9.0587
       264                         -0.3322946              -9.0422
       265                         -0.3318336              -9.0297
       266                         -0.3317414              -9.0271
       267                         -0.3232702              -8.7966
       268                         -0.3033116              -8.2535
       269                         -0.2969010              -8.0791
       270                         -0.2937046              -7.9921
       271                         -0.2798312              -7.6146
       272                         -0.2794125              -7.6032
       ...                                ...                  ...
       560                          1.3388999              36.4333
      -------------------------------------------------------------
                  HL-Gap            0.0355785 Eh            0.9681 eV

Wiberg/Mayer (AO) data.
largest (>0.10) Wiberg bond orders for each atom

     #   Z sym  total        # sym  WBO       # sym  WBO       # sym  WBO
 ---------------------------------------------------------------------------
     1  30 Zn   1.996 --     7 N    0.460    37 N    0.460    25 N    0.456
                            18 N    0.456
     2   6 C    3.929 --     3 C    1.358    36 C    1.358    38 H    0.971
     3   6 C    3.921 --     2 C    1.358     7 N    1.233     4 C    1.170
     4   6 C    3.961 --     5 C    1.660     3 C    1.170    39 H    0.976
     5   6 C    3.963 --     4 C    1.660     6 C    1.171    40 H    0.973
     6   6 C    3.919 --     8 C    1.315     7 N    1.244     5 C    1.171
     7   7 N    3.294 --     6 C    1.244     3 C    1.233     1 Zn   0.460
     8   6 C    3.933 --    15 C    1.321     6 C    1.315     9 C    1.029
     9   6 C    3.985 --    14 C    1.392    10 C    1.392     8 C    1.029
                            12 N    0.107
    10   6 C    3.987 --    11 C    1.443     9 C    1.392    41 H    0.973
                            13 C    0.108
    11   6 C    3.972 --    10 C    1.443    12 N    1.415    42 H    0.972
                            14 C    0.108
    12   7 N    3.029 --    13 C    1.415    11 C    1.415     9 C    0.107
    13   6 C    3.972 --    14 C    1.442    12 N    1.415    43 H    0.972
                            10 C    0.108
    14   6 C    3.987 --    13 C    1.442     9 C    1.392    44 H    0.973
                            11 C    0.108
    15   6 C    3.914 --     8 C    1.321    18 N    1.228    16 C    1.178
    16   6 C    3.960 --    17 C    1.647    15 C    1.178    45 H    0.973
    17   6 C    3.962 --    16 C    1.647    19 C    1.185    46 H    0.972
    18   7 N    3.297 --    19 C    1.259    15 C    1.228     1 Zn   0.456
    19   6 C    3.908 --    20 C    1.263    18 N    1.259    17 C    1.185
    20   6 C    3.939 --    21 C    1.263    19 C    1.263   109 C    1.171
    21   6 C    3.908 --    20 C    1.263    25 N    1.259    22 C    1.185
    22   6 C    3.962 --    23 C    1.647    21 C    1.185    47 H    0.972
    23   6 C    3.960 --    22 C    1.647    24 C    1.178    48 H    0.973
    24   6 C    3.914 --    26 C    1.321    25 N    1.228    23 C    1.178
    25   7 N    3.297 --    21 C    1.259    24 C    1.228     1 Zn   0.456
    26   6 C    3.933 --    24 C    1.321    33 C    1.315    27 C    1.029
    27   6 C    3.985 --    28 C    1.392    32 C    1.392    26 C    1.029
                            30 N    0.107
    28   6 C    3.987 --    29 C    1.442    27 C    1.392    49 H    0.973
                            31 C    0.108
    29   6 C    3.972 --    28 C    1.442    30 N    1.415    50 H    0.972
                            32 C    0.108
    30   7 N    3.029 --    29 C    1.415    31 C    1.415    27 C    0.107
    31   6 C    3.972 --    32 C    1.443    30 N    1.415    51 H    0.972
                            28 C    0.108
    32   6 C    3.987 --    31 C    1.443    27 C    1.392    52 H    0.973
                            29 C    0.108
    33   6 C    3.919 --    26 C    1.315    37 N    1.244    34 C    1.171
    34   6 C    3.963 --    35 C    1.660    33 C    1.171    53 H    0.973
    35   6 C    3.961 --    34 C    1.660    36 C    1.170    54 H    0.976
    36   6 C    3.921 --     2 C    1.358    37 N    1.233    35 C    1.170
    37   7 N    3.294 --    33 C    1.244    36 C    1.233     1 Zn   0.460
    38   1 H    1.001 --     2 C    0.971
    39   1 H    0.998 --     4 C    0.976
    40   1 H    1.005 --     5 C    0.973
    41   1 H    1.004 --    10 C    0.973
    42   1 H    1.013 --    11 C    0.972
    43   1 H    1.013 --    13 C    0.972
    44   1 H    1.004 --    14 C    0.973
    45   1 H    1.005 --    16 C    0.973
    46   1 H    1.004 --    17 C    0.972
    47   1 H    1.004 --    22 C    0.972
    48   1 H    1.004 --    23 C    0.973
    49   1 H    1.004 --    28 C    0.973
    50   1 H    1.013 --    29 C    0.972
    51   1 H    1.013 --    31 C    0.972
    52   1 H    1.004 --    32 C    0.973
    53   1 H    1.005 --    34 C    0.973
    54   1 H    0.998 --    35 C    0.976
    55  30 Zn   1.996 --    91 N    0.460    61 N    0.459    72 N    0.456
                            79 N    0.456
    56   6 C    3.929 --    90 C    1.358    57 C    1.358    92 H    0.971
    57   6 C    3.921 --    56 C    1.358    61 N    1.233    58 C    1.170
    58   6 C    3.960 --    59 C    1.660    57 C    1.170    93 H    0.976
    59   6 C    3.963 --    58 C    1.660    60 C    1.171    94 H    0.973
    60   6 C    3.919 --    62 C    1.315    61 N    1.244    59 C    1.171
    61   7 N    3.294 --    60 C    1.244    57 C    1.233    55 Zn   0.459
    62   6 C    3.933 --    69 C    1.321    60 C    1.315    63 C    1.029
    63   6 C    3.985 --    68 C    1.393    64 C    1.391    62 C    1.029
                            66 N    0.107
    64   6 C    3.987 --    65 C    1.443    63 C    1.391    95 H    0.973
                            67 C    0.108
    65   6 C    3.972 --    64 C    1.443    66 N    1.414    96 H    0.972
                            68 C    0.108
    66   7 N    3.029 --    67 C    1.416    65 C    1.414    63 C    0.107
    67   6 C    3.972 --    68 C    1.442    66 N    1.416    97 H    0.972
                            64 C    0.108
    68   6 C    3.987 --    67 C    1.442    63 C    1.393    98 H    0.973
                            65 C    0.108
    69   6 C    3.914 --    62 C    1.321    72 N    1.228    70 C    1.179
    70   6 C    3.960 --    71 C    1.646    69 C    1.179    99 H    0.973
    71   6 C    3.962 --    70 C    1.646    73 C    1.186   100 H    0.970
    72   7 N    3.297 --    73 C    1.259    69 C    1.228    55 Zn   0.456
    73   6 C    3.907 --    74 C    1.261    72 N    1.259    71 C    1.186
    74   6 C    3.939 --    75 C    1.261    73 C    1.261   112 C    1.174
    75   6 C    3.907 --    74 C    1.261    79 N    1.259    76 C    1.185
    76   6 C    3.962 --    77 C    1.646    75 C    1.185   101 H    0.971
    77   6 C    3.960 --    76 C    1.646    78 C    1.179   102 H    0.973
    78   6 C    3.914 --    80 C    1.321    79 N    1.228    77 C    1.179
    79   7 N    3.297 --    75 C    1.259    78 C    1.228    55 Zn   0.456
    80   6 C    3.933 --    78 C    1.321    87 C    1.314    81 C    1.029
    81   6 C    3.985 --    86 C    1.392    82 C    1.392    80 C    1.029
                            84 N    0.107
    82   6 C    3.987 --    83 C    1.443    81 C    1.392   103 H    0.973
                            85 C    0.108
    83   6 C    3.972 --    82 C    1.443    84 N    1.415   104 H    0.972
                            86 C    0.108
    84   7 N    3.029 --    83 C    1.415    85 C    1.415    81 C    0.107
    85   6 C    3.972 --    86 C    1.443    84 N    1.415   105 H    0.972
                            82 C    0.108
    86   6 C    3.987 --    85 C    1.443    81 C    1.392   106 H    0.973
                            83 C    0.108
    87   6 C    3.919 --    80 C    1.314    91 N    1.244    88 C    1.171
    88   6 C    3.963 --    89 C    1.660    87 C    1.171   107 H    0.973
    89   6 C    3.960 --    88 C    1.660    90 C    1.170   108 H    0.976
    90   6 C    3.921 --    56 C    1.358    91 N    1.233    89 C    1.170
    91   7 N    3.294 --    87 C    1.244    90 C    1.233    55 Zn   0.460
    92   1 H    1.001 --    56 C    0.971
    93   1 H    0.998 --    58 C    0.976
    94   1 H    1.005 --    59 C    0.973
    95   1 H    1.004 --    64 C    0.973
    96   1 H    1.013 --    65 C    0.972
    97   1 H    1.013 --    67 C    0.972
    98   1 H    1.004 --    68 C    0.973
    99   1 H    1.004 --    70 C    0.973
   100   1 H    1.005 --    71 C    0.970
   101   1 H    1.005 --    76 C    0.971
   102   1 H    1.005 --    77 C    0.973
   103   1 H    1.004 --    82 C    0.973
   104   1 H    1.013 --    83 C    0.972
   105   1 H    1.013 --    85 C    0.972
   106   1 H    1.004 --    86 C    0.973
   107   1 H    1.005 --    88 C    0.973
   108   1 H    0.998 --    89 C    0.976
   109   6 C    3.930 --   110 C    2.580    20 C    1.171
   110   6 C    3.932 --   109 C    2.580   114 C    1.172
   111   6 C    3.933 --   112 C    2.578   132 C    1.175
   112   6 C    3.930 --   111 C    2.578    74 C    1.174
   113  30 Zn   1.994 --   137 N    0.457   149 N    0.457   119 N    0.456
                           130 N    0.456
   114   6 C    3.929 --   148 C    1.261   115 C    1.261   110 C    1.172
   115   6 C    3.909 --   114 C    1.261   119 N    1.259   116 C    1.186
   116   6 C    3.961 --   117 C    1.644   115 C    1.186   150 H    0.972
   117   6 C    3.961 --   116 C    1.644   118 C    1.180   151 H    0.973
   118   6 C    3.913 --   120 C    1.318   119 N    1.227   117 C    1.180
   119   7 N    3.292 --   115 C    1.259   118 C    1.227   113 Zn   0.456
   120   6 C    3.929 --   127 C    1.319   118 C    1.318   121 C    1.028
   121   6 C    3.985 --   122 C    1.392   126 C    1.392   120 C    1.028
                           124 N    0.107
   122   6 C    3.987 --   123 C    1.442   121 C    1.392   152 H    0.973
                           125 C    0.108
   123   6 C    3.972 --   122 C    1.442   124 N    1.415   153 H    0.972
                           126 C    0.108
   124   7 N    3.029 --   125 C    1.415   123 C    1.415   121 C    0.107
   125   6 C    3.972 --   126 C    1.442   124 N    1.415   154 H    0.972
                           122 C    0.108
   126   6 C    3.987 --   125 C    1.442   121 C    1.392   155 H    0.973
                           123 C    0.108
   127   6 C    3.913 --   120 C    1.319   130 N    1.227   128 C    1.181
   128   6 C    3.961 --   129 C    1.644   127 C    1.181   156 H    0.973
   129   6 C    3.961 --   128 C    1.644   131 C    1.187   157 H    0.971
   130   7 N    3.292 --   131 C    1.260   127 C    1.227   113 Zn   0.456
   131   6 C    3.908 --   130 N    1.260   132 C    1.260   129 C    1.187
   132   6 C    3.929 --   133 C    1.260   131 C    1.260   111 C    1.175
   133   6 C    3.908 --   137 N    1.260   132 C    1.260   134 C    1.187
   134   6 C    3.961 --   135 C    1.644   133 C    1.187   158 H    0.970
   135   6 C    3.961 --   134 C    1.644   136 C    1.181   159 H    0.973
   136   6 C    3.912 --   138 C    1.318   137 N    1.227   135 C    1.181
   137   7 N    3.292 --   133 C    1.260   136 C    1.227   113 Zn   0.457
   138   6 C    3.929 --   145 C    1.318   136 C    1.318   139 C    1.028
   139   6 C    3.985 --   144 C    1.393   140 C    1.392   138 C    1.028
                           142 N    0.107
   140   6 C    3.987 --   141 C    1.443   139 C    1.392   160 H    0.973
                           143 C    0.108
   141   6 C    3.972 --   140 C    1.443   142 N    1.415   161 H    0.972
                           144 C    0.108
   142   7 N    3.029 --   143 C    1.415   141 C    1.415   139 C    0.107
   143   6 C    3.972 --   144 C    1.442   142 N    1.415   162 H    0.972
                           140 C    0.108
   144   6 C    3.987 --   143 C    1.442   139 C    1.393   163 H    0.973
                           141 C    0.108
   145   6 C    3.913 --   138 C    1.318   149 N    1.227   146 C    1.180
   146   6 C    3.961 --   147 C    1.644   145 C    1.180   164 H    0.973
   147   6 C    3.961 --   146 C    1.644   148 C    1.186   165 H    0.972
   148   6 C    3.909 --   114 C    1.261   149 N    1.259   147 C    1.186
   149   7 N    3.292 --   148 C    1.259   145 C    1.227   113 Zn   0.457
   150   1 H    1.004 --   116 C    0.972
   151   1 H    1.005 --   117 C    0.973
   152   1 H    1.004 --   122 C    0.973
   153   1 H    1.013 --   123 C    0.972
   154   1 H    1.013 --   125 C    0.972
   155   1 H    1.004 --   126 C    0.973
   156   1 H    1.005 --   128 C    0.973
   157   1 H    1.005 --   129 C    0.971
   158   1 H    1.005 --   134 C    0.970
   159   1 H    1.004 --   135 C    0.973
   160   1 H    1.004 --   140 C    0.973
   161   1 H    1.013 --   141 C    0.972
   162   1 H    1.013 --   143 C    0.972
   163   1 H    1.004 --   144 C    0.973
   164   1 H    1.005 --   146 C    0.973
   165   1 H    1.004 --   147 C    0.972
 ---------------------------------------------------------------------------

           -------------------------------------------------
          | TOTAL ENERGY             -285.316473403426 Eh   |
          | GRADIENT NORM               0.000619688669 Eh/α |
          | HOMO-LUMO GAP               0.968140713850 eV   |
           -------------------------------------------------

 * finished run on 2022/07/30 at 07:09:48.745
