   * xtb version 6.5.1 (b24c23e) compiled by 'conda@728c89f4b128' on 2022-07-12
          program call               : xtb Zn_m-CP_C4_3.xyz --gfn 1 --opt -T 48

   ID    Z sym.   atoms
    1   30 Zn     1, 63, 133
    2    6 C      2-6, 8-12, 15-20, 22-27, 29-35, 38-42, 64-68, 70-74, 77-82,
                  84-89, 91-97, 100-104, 125-132, 134-138, 140-144, 147-152,
                  154-159, 161-167, 170-174
    3    7 N      7, 21, 28, 43, 69, 83, 90, 105, 139, 153, 160, 175
    4    8 O      13, 14, 36, 37, 75, 76, 98, 99, 145, 146, 168, 169
    5    1 H      44-62, 106-124, 176-193
########################################################################
[WARNING] Please study the warnings concerning your input carefully
-1- prog_main_parseArguments: Unknown option '-T' provided
########################################################################

          :  Hamiltonian                  GFN1-xTB          :
 * total energy  :  -357.9067736 Eh     change       -0.4772573E-09 Eh
 * total energy  :  -358.8752743 Eh     change       -0.9685007E+00 Eh
 * total energy  :  -359.0908123 Eh     change       -0.2155380E+00 Eh
 * total energy  :  -359.2179222 Eh     change       -0.1271099E+00 Eh
 * total energy  :  -359.2834934 Eh     change       -0.6557122E-01 Eh
 * total energy  :  -359.3343649 Eh     change       -0.5087148E-01 Eh
 * total energy  :  -359.3791422 Eh     change       -0.4477731E-01 Eh
 * total energy  :  -359.4136773 Eh     change       -0.3453512E-01 Eh
 * total energy  :  -359.4348177 Eh     change       -0.2114033E-01 Eh
 * total energy  :  -359.4550156 Eh     change       -0.2019794E-01 Eh
 * total energy  :  -359.7035798 Eh     change       -0.1211909E-04 Eh
 * total energy  :  -359.7035926 Eh     change       -0.1286868E-04 Eh
 * total energy  :  -359.7036071 Eh     change       -0.1447742E-04 Eh
 * total energy  :  -359.7036209 Eh     change       -0.1376612E-04 Eh
 * total energy  :  -359.7036347 Eh     change       -0.1384265E-04 Eh
 * total energy  :  -359.7036489 Eh     change       -0.1412143E-04 Eh
 * total energy  :  -359.7036597 Eh     change       -0.1089155E-04 Eh
 * total energy  :  -359.7036674 Eh     change       -0.7643053E-05 Eh
 * total energy  :  -359.7036722 Eh     change       -0.4832085E-05 Eh
   *** GEOMETRY OPTIMIZATION CONVERGED AFTER 121 ITERATIONS ***

 final structure:
================
193
 xtb: 6.5.1 (b24c23e)
Zn          31.64204363736390        0.18594182113235       -0.46698748465597
C           28.25004717229686        0.12822833034058       -0.12949407792198
C           28.86264502010318        1.37029562116174       -0.01527079291242
C           28.17512903311205        2.61225334056995        0.20418128541838
C           29.11865923424356        3.58505611107225        0.25454175397473
C           30.39687141741931        2.94702041249103        0.07831666842360
N           30.20513631193466        1.60736808647594       -0.09322116385641
C           31.63677470676615        3.59717013112168        0.06389812190135
C           31.63467574502103        5.06462127496619        0.28961640329208
C           31.15990564397768        5.59709851620067        1.48492367266296
C           31.15927105282913        6.97556362404894        1.69525453913720
C           30.64220787146934        7.48085164637447        2.99147145735403
O           30.69369806018901        8.81624740704976        3.10589576777426
O           30.21293268546637        6.78050341687600        3.87251361616958
C           31.63398314528936        7.83450725983400        0.70399086946001
C           32.10595667027775        7.30728231607237       -0.48777335704438
C           32.10869845373240        5.93504973159932       -0.69497301591754
C           32.87863898170362        2.98551243643702       -0.14039639633531
C           34.15098788911658        3.65161554157876       -0.09031250334895
C           35.10342883651171        2.71303210648686       -0.32444945708535
N           33.08348620667856        1.65528537090279       -0.39128795811199
C           34.42453591308375        1.46465948835216       -0.51257246521254
C           35.06379638087523        0.23891311020406       -0.78714189920209
C           34.42219134951245       -1.00468914160234       -0.95515076709574
C           35.09302866640585       -2.23160003964968       -1.27080577519433
C           34.14246747905911       -3.19859948827238       -1.33481434538026
C           32.88129845630011       -2.57198815565342       -1.04863979776909
N           33.08761891112499       -1.23553319307219       -0.83441809318418
C           31.64392767221140       -3.22366761860499       -1.01442140504266
C           31.64648625372762       -4.69155048198219       -1.24141631177480
C           32.31122449545499       -5.54290149490985       -0.35602868132109
C           32.31585801931034       -6.91540374157031       -0.56288179632519
C           31.66148807103147       -7.45473025347288       -1.65764099163290
C           30.99501279840074       -6.61436700730850       -2.55090130890171
C           30.31021787755203       -7.23026851277852       -3.71434684626774
O           29.69616372938393       -6.34139278577785       -4.50972270043889
O           30.29203032016023       -8.41243641671472       -3.94516745044990
C           30.98642001950273       -5.23677378493010       -2.34028254004658
C           30.40479797570664       -2.61556030661402       -0.78123358315585
C           29.13958265198682       -3.29725419603996       -0.70367059057304
C           28.19311281168149       -2.35766631082937       -0.45659374730225
C           28.86838438586772       -1.09277573937505       -0.37090345399460
N           30.20611509115554       -1.28315372895798       -0.56686875927699
H           27.17026214711867        0.10978479408763       -0.01856210281165
H           27.10553550181402        2.71546736097454        0.29879736913066
H           28.96634862728135        4.64386375364947        0.38973173362735
H           30.79961913857181        4.94422498662094        2.27244493429156
H           30.34131014309127        9.06381873861615        3.97616272765241
H           31.63119711581644        8.90521068848993        0.86829608846791
H           32.47360638006607        7.96893425664255       -1.26400456831584
H           32.46803279497112        5.53046771065909       -1.63465999037357
H           34.29695126238867        4.70030576979903        0.11310577384493
H           36.17300597850334        2.84585547723081       -0.36166497101986
H           36.15506989923361       -2.33125354268991       -1.42924881410913
H           34.27981285032065       -4.24251419511146       -1.56675244191044
H           32.81531950293196       -5.12310197116222        0.50732465204334
H           32.83235268489673       -7.56386096730522        0.13563451825146
H           31.65680487493612       -8.52417257014406       -1.83544245469971
H           29.27722528831198       -6.82235243205093       -5.24172359761147
H           30.47845772080458       -4.58546592767377       -3.04170086583051
H           28.99990481440360       -4.36071800165243       -0.81442032457102
H           27.13053539515022       -2.49789694748227       -0.33412877398008
Zn          58.56503756071724        0.21215636198852       -0.36811902056889
C           61.96885188879956        0.13030342633188       -0.19375440573380
C           61.33503106748574       -1.07060858446445       -0.48839738729804
C           62.00415259443464       -2.31527850311022       -0.74579151170802
C           61.04243415333119       -3.24132609546966       -0.98362623190119
C           59.77188553394989       -2.57516547970248       -0.86416643925560
N           59.98536077499016       -1.25934094577344       -0.57520287210620
C           58.51864458640238       -3.17478480627424       -1.03885624463361
C           58.50064696951131       -4.63298970317219       -1.31609620092581
C           59.02526530056238       -5.53330774969335       -0.39286766906177
C           59.01082407480971       -6.90325379662051       -0.65208816025314
C           59.58592841645527       -7.81013784063299        0.37238384763793
O           59.51989463002277       -9.10765116964002        0.03863467037490
O           60.07367672468909       -7.44190128382640        1.41043729202912
C           58.46899311973613       -7.38352959433492       -1.84439527787783
C           57.94634437064015       -6.48963793430653       -2.76574224827751
C           57.96035268511579       -5.12634047596487       -2.50627149218809
C           57.28303253190311       -2.52145444656412       -0.97015146011539
C           55.99938123615690       -3.15416232591160       -1.10038386569224
C           55.05959815285147       -2.18333435656278       -0.96894471462644
N           57.09775259739354       -1.18348450299568       -0.74623379856649
C           55.75774701572337       -0.95147491103702       -0.74634279913526
C           55.13513221190648        0.29861583304390       -0.55637234353444
C           55.79501097035595        1.51646108176032       -0.29603642712429
C           55.13820831150689        2.78070052202773       -0.13809536154477
C           56.10486400993885        3.70267354867454        0.10365189089066
C           57.36236084117963        3.00729510497300        0.10476022670157
N           57.13699800210686        1.68141243406020       -0.15201539519963
C           58.61351105246256        3.59813933223788        0.31232616988316
C           58.63416283423356        5.05251635446884        0.61102214584154
C           58.00498987032515        5.55026978750522        1.75437146024100
C           58.02451886865811        6.90879021894694        2.03838200814505
C           58.66940520350943        7.78768983014980        1.18441425064713
C           59.30078476488696        7.30310464204585        0.03767823763663
C           59.97965494804347        8.27626386808441       -0.85370199441345
O           60.55995404780211        7.71172402266290       -1.92337657490636
O           60.01984151849271        9.46419014362219       -0.65823151933487
C           59.28304786926849        5.93887112491342       -0.24594635461740
C           59.84772214905933        2.93904138541543        0.26297611550004
C           61.12933239614592        3.54207540537154        0.51873691441137
C           62.06496020637538        2.57096612776762        0.37342338126704
C           61.36692024788053        1.36121956998221        0.03854123947740
N           60.02658746979009        1.61559711656005       -0.01516132213153
H           63.05263974424546        0.10371879244241       -0.13675609529850
H           63.07445042729964       -2.44990936394521       -0.74832926208917
H           61.17728561102877       -4.28248088600145       -1.22926110290805
H           59.43777669335714       -5.17954203757294        0.54572053896386
H           59.91512923439788       -9.62950474913385        0.75577050453560
H           58.45942962791742       -8.44799940634688       -2.04490881155546
H           57.52626517590374       -6.85540175651186       -3.69596010929672
H           57.56297943708910       -4.43225329129633       -3.23852843913339
H           55.83792866372228       -4.20851308193539       -1.25753483069902
H           53.98685105142221       -2.28628316220765       -1.00932048078497
H           54.07367449650525        2.93674767542304       -0.21174915753276
H           55.97973794917301        4.76282438366822        0.25465802761707
H           57.51030045304619        4.86228879374415        2.43092863363086
H           57.53479758130666        7.27951148620137        2.93170219012534
H           58.69411046743036        8.85166351214925        1.39099998879610
H           60.97754813284041        8.41127203099070       -2.45148340772922
H           59.76211623240653        5.56705854302666       -1.14401538165234
H           61.28745267054631        4.57462769909677        0.78607082082439
H           63.13437988475307        2.65307326572195        0.48844190359092
C           37.68592511563711        0.26961100679440       -0.95839885695909
C           36.46566394385965        0.25643640308481       -0.88963700960225
C           39.03413777367345        0.28897352984865       -1.01162293885381
C           40.25599870202605        0.30736628468233       -1.04068900314876
C           51.16375029692543        0.38672401304579       -0.74985507086540
C           49.94270999345105        0.40145732142474       -0.80580696133743
C           52.51135733427096        0.36317836608782       -0.68674175699001
C           53.73180046765209        0.33320670584269       -0.62831679812908
Zn          45.10122209545215        0.37421260515209       -0.98115603476951
C           41.66095378705563        0.33335993981416       -1.04723157623841
C           42.32758444694303       -0.82389223820317       -1.49757510675235
C           41.67411425400287       -1.99407823761589       -2.00485049766967
C           42.64780674874866       -2.88049325386550       -2.33554112375210
C           43.90586448931056       -2.26366510475143       -2.01944255918584
N           43.67450928169939       -1.00846113033885       -1.52353589024145
C           45.16362456720957       -2.84794350637896       -2.20202110495930
C           45.19439823174418       -4.23411360470155       -2.73406873730278
C           44.61653374992903       -5.27998897700375       -2.02039315731031
C           44.64897019700638       -6.58100014403543       -2.52096899073943
C           44.01857389575003       -7.65324073699730       -1.71092152726367
O           44.10018489070127       -8.86817874370913       -2.27326125174067
O           43.47852767193420       -7.47527779740334       -0.64919201522854
C           45.26040740699099       -6.84355629459131       -3.74690222609342
C           45.83557181793319       -5.80362113228965       -4.46015616907189
C           45.80583402831190       -4.50964032626840       -3.95946042305779
C           46.39718741286575       -2.24969442859812       -1.92269345203087
C           47.67722993851248       -2.88823929995283       -2.04918741208654
C           48.61500499110650       -1.98171660554636       -1.67144593557924
N           46.57946597162934       -0.97417685703547       -1.46000476924785
C           47.91719051455274       -0.78495037434368       -1.30560511511571
C           48.53896226616964        0.40162787831410       -0.86644799801363
C           47.87416235454447        1.58391447704849       -0.48337414967970
C           48.52968973099494        2.79190744648814       -0.07785260169593
C           47.55655038810076        3.69245050525930        0.21486076238364
C           46.29639836199917        3.03735345410449        0.00078635437601
N           46.52667187674790        1.75960256742236       -0.43387811052384
C           45.03848220790383        3.61923733460724        0.19026061769006
C           45.00879930217663        5.01603548536589        0.69493333036529
C           44.45485988535572        6.03711770085473       -0.08030669044565
C           44.42343187048082        7.34336003635059        0.38813763583157
C           44.94032177060777        7.64588583870359        1.63673882214388
C           45.49554052088208        6.63398662872648        2.42160619697680
C           46.03608611798422        6.99763356809105        3.75517942023659
O           46.55934844368872        5.95994751118954        4.42429972264462
O           46.02056085127559        8.11111875780702        4.21422640436742
C           45.53062191094282        5.32338509167595        1.94949224361641
C           43.80387724159856        3.00443152527905       -0.04430268455176
C           42.52028687504374        3.59348381713321        0.21686045724635
C           41.58173300470079        2.67409341396659       -0.12572023699904
C           42.28223724811593        1.51463742357804       -0.59321106284562
N           43.62204708521644        1.73741524402815       -0.53003044144395
H           40.60650821130466       -2.11174233234913       -2.10091687136252
H           42.52612286601799       -3.86221464524250       -2.76406203798896
H           44.14833528116129       -5.09653244981859       -1.05951462510878
H           43.66774431563097       -9.50963810069802       -1.68648201578019
H           45.28306753935374       -7.85460412004798       -4.13501092744599
H           46.31036150923701       -5.99985575442768       -5.41489735001953
H           46.24795257192317       -3.69884761456198       -4.52777130028520
H           47.83698438719544       -3.90476342944220       -2.37098251271094
H           49.68536294611528       -2.10815048954535       -1.63554691978129
H           49.59840365231232        2.92883903317262       -0.03218335345874
H           47.68022261670133        4.71348544959028        0.53813733284365
H           44.05920197787386        5.80373214033487       -1.06255980297229
H           43.99398791706979        8.12613353249447       -0.22677431477368
H           44.92207082453695        8.66024693077922        2.01895781732096
H           46.88726409962175        6.28027969343035        5.28033718062930
H           45.95023408049556        4.53728980895695        2.56605423102480
H           42.35913171644655        4.57865035505579        0.62407395555844
H           40.50890761592437        2.76441403552517       -0.06428982404936

          :  Hamiltonian                  GFN1-xTB          :
         :: total energy            -359.703672230772 Eh    ::
         :: gradient norm              0.000775456140 Eh/a0 ::
         :: HOMO-LUMO gap              0.928268948879 eV    ::
         :: SCC energy              -364.998116867126 Eh    ::
         :: repulsion energy           5.467977126044 Eh    ::

    * Orbital Energies and Occupations

         #    Occupation            Energy/Eh            Energy/eV
      -------------------------------------------------------------
         1        2.0000           -0.8330448             -22.6683
       ...           ...                  ...                  ...
       305        2.0000           -0.4266321             -11.6093
       306        2.0000           -0.4265520             -11.6071
       307        2.0000           -0.4261606             -11.5964
       308        2.0000           -0.4258993             -11.5893
       309        2.0000           -0.4251437             -11.5687
       310        2.0000           -0.4249477             -11.5634
       311        2.0000           -0.4209843             -11.4556
       312        2.0000           -0.4002236             -10.8906
       313        2.0000           -0.3991660             -10.8619
       314        2.0000           -0.3987233             -10.8498
       315        2.0000           -0.3963054             -10.7840
       316        2.0000           -0.3883131             -10.5665
       317        2.0000           -0.3797847             -10.3345 (HOMO)
       318                         -0.3456714              -9.4062 (LUMO)
       319                         -0.3353233              -9.1246
       320                         -0.3334760              -9.0743
       321                         -0.3328123              -9.0563
       322                         -0.3322725              -9.0416
       323                         -0.3269317              -8.8963
       324                         -0.3114612              -8.4753
       325                         -0.3107606              -8.4562
       326                         -0.3103197              -8.4442
       327                         -0.3099514              -8.4342
       328                         -0.3095030              -8.4220
       ...                                ...                  ...
       660                          1.5143687              41.2081
      -------------------------------------------------------------
                  HL-Gap            0.0341133 Eh            0.9283 eV

Wiberg/Mayer (AO) data.
largest (>0.10) Wiberg bond orders for each atom

     #   Z sym  total        # sym  WBO       # sym  WBO       # sym  WBO
 ---------------------------------------------------------------------------
     1  30 Zn   1.994 --     7 N    0.460    43 N    0.459    21 N    0.455
                            28 N    0.455
     2   6 C    3.928 --     3 C    1.358    42 C    1.357    44 H    0.971
     3   6 C    3.921 --     2 C    1.358     7 N    1.233     4 C    1.169
     4   6 C    3.961 --     5 C    1.661     3 C    1.169    45 H    0.975
     5   6 C    3.963 --     4 C    1.661     6 C    1.170    46 H    0.973
     6   6 C    3.919 --     8 C    1.315     7 N    1.244     5 C    1.170
     7   7 N    3.294 --     6 C    1.244     3 C    1.233     1 Zn   0.460
     8   6 C    3.932 --    18 C    1.322     6 C    1.315     9 C    1.027
     9   6 C    3.988 --    10 C    1.408    17 C    1.387     8 C    1.027
                            15 C    0.102
    10   6 C    3.984 --     9 C    1.408    11 C    1.396    47 H    0.968
                            16 C    0.104
    11   6 C    3.988 --    10 C    1.396    15 C    1.391    12 C    1.006
    12   6 C    3.836 --    14 O    1.692    13 O    1.089    11 C    1.006
    13   8 O    2.098 --    12 C    1.089    48 H    0.838    14 O    0.129
    14   8 O    1.961 --    12 C    1.692    13 O    0.129
    15   6 C    3.987 --    16 C    1.448    11 C    1.391    49 H    0.971
                             9 C    0.102
    16   6 C    3.994 --    15 C    1.448    17 C    1.441    50 H    0.973
                            10 C    0.104
    17   6 C    3.987 --    16 C    1.441     9 C    1.387    51 H    0.973
    18   6 C    3.914 --     8 C    1.322    21 N    1.227    19 C    1.179
    19   6 C    3.959 --    20 C    1.646    18 C    1.179    52 H    0.973
    20   6 C    3.962 --    19 C    1.646    22 C    1.186    53 H    0.974
    21   7 N    3.296 --    22 C    1.262    18 C    1.227     1 Zn   0.455
    22   6 C    3.902 --    21 N    1.262    23 C    1.254    20 C    1.186
    23   6 C    3.938 --    22 C    1.254    24 C    1.254   126 C    1.190
    24   6 C    3.902 --    28 N    1.263    23 C    1.254    25 C    1.186
    25   6 C    3.962 --    26 C    1.647    24 C    1.186    54 H    0.974
    26   6 C    3.959 --    25 C    1.647    27 C    1.178    55 H    0.973
    27   6 C    3.914 --    29 C    1.324    28 N    1.226    26 C    1.178
    28   7 N    3.296 --    24 C    1.263    27 C    1.226     1 Zn   0.455
    29   6 C    3.932 --    27 C    1.324    39 C    1.315    30 C    1.025
    30   6 C    3.988 --    38 C    1.407    31 C    1.389    29 C    1.025
                            33 C    0.103
    31   6 C    3.987 --    32 C    1.439    30 C    1.389    56 H    0.973
    32   6 C    3.994 --    33 C    1.451    31 C    1.439    57 H    0.972
                            38 C    0.104
    33   6 C    3.986 --    32 C    1.451    34 C    1.387    58 H    0.969
                            30 C    0.103
    34   6 C    3.988 --    38 C    1.399    33 C    1.387    35 C    1.006
    35   6 C    3.835 --    37 O    1.691    36 O    1.089    34 C    1.006
    36   8 O    2.098 --    35 C    1.089    59 H    0.839    37 O    0.129
    37   8 O    1.960 --    35 C    1.691    36 O    0.129
    38   6 C    3.985 --    30 C    1.407    34 C    1.399    60 H    0.970
                            32 C    0.104
    39   6 C    3.919 --    29 C    1.315    43 N    1.244    40 C    1.171
    40   6 C    3.963 --    41 C    1.660    39 C    1.171    61 H    0.973
    41   6 C    3.960 --    40 C    1.660    42 C    1.170    62 H    0.975
    42   6 C    3.921 --     2 C    1.357    43 N    1.233    41 C    1.170
    43   7 N    3.294 --    39 C    1.244    42 C    1.233     1 Zn   0.459
    44   1 H    1.001 --     2 C    0.971
    45   1 H    0.998 --     4 C    0.975
    46   1 H    1.004 --     5 C    0.973
    47   1 H    1.007 --    10 C    0.968
    48   1 H    0.873 --    13 O    0.838
    49   1 H    1.005 --    15 C    0.971
    50   1 H    1.002 --    16 C    0.973
    51   1 H    1.005 --    17 C    0.973
    52   1 H    1.004 --    19 C    0.973
    53   1 H    1.002 --    20 C    0.974
    54   1 H    1.002 --    25 C    0.974
    55   1 H    1.004 --    26 C    0.973
    56   1 H    1.004 --    31 C    0.973
    57   1 H    1.002 --    32 C    0.972
    58   1 H    1.005 --    33 C    0.969
    59   1 H    0.874 --    36 O    0.839
    60   1 H    1.007 --    38 C    0.970
    61   1 H    1.004 --    40 C    0.973
    62   1 H    0.998 --    41 C    0.975
    63  30 Zn   1.994 --    69 N    0.460   105 N    0.459    83 N    0.455
                            90 N    0.455
    64   6 C    3.928 --    65 C    1.358   104 C    1.357   106 H    0.971
    65   6 C    3.921 --    64 C    1.358    69 N    1.232    66 C    1.169
    66   6 C    3.960 --    67 C    1.661    65 C    1.169   107 H    0.975
    67   6 C    3.963 --    66 C    1.661    68 C    1.170   108 H    0.973
    68   6 C    3.919 --    70 C    1.315    69 N    1.245    67 C    1.170
    69   7 N    3.294 --    68 C    1.245    65 C    1.232    63 Zn   0.460
    70   6 C    3.932 --    80 C    1.322    68 C    1.315    71 C    1.028
    71   6 C    3.988 --    72 C    1.407    79 C    1.387    70 C    1.028
                            77 C    0.102
    72   6 C    3.984 --    71 C    1.407    73 C    1.396   109 H    0.968
                            78 C    0.104
    73   6 C    3.988 --    72 C    1.396    77 C    1.390    74 C    1.006
    74   6 C    3.836 --    76 O    1.692    75 O    1.089    73 C    1.006
    75   8 O    2.098 --    74 C    1.089   110 H    0.838    76 O    0.129
    76   8 O    1.961 --    74 C    1.692    75 O    0.129
    77   6 C    3.987 --    78 C    1.448    73 C    1.390   111 H    0.971
                            71 C    0.102
    78   6 C    3.994 --    77 C    1.448    79 C    1.441   112 H    0.973
                            72 C    0.104
    79   6 C    3.987 --    78 C    1.441    71 C    1.387   113 H    0.973
    80   6 C    3.914 --    70 C    1.322    83 N    1.227    81 C    1.179
    81   6 C    3.959 --    82 C    1.646    80 C    1.179   114 H    0.973
    82   6 C    3.962 --    81 C    1.646    84 C    1.186   115 H    0.974
    83   7 N    3.296 --    84 C    1.263    80 C    1.227    63 Zn   0.455
    84   6 C    3.902 --    83 N    1.263    85 C    1.254    82 C    1.186
    85   6 C    3.938 --    84 C    1.254    86 C    1.254   132 C    1.190
    86   6 C    3.902 --    90 N    1.263    85 C    1.254    87 C    1.186
    87   6 C    3.962 --    88 C    1.646    86 C    1.186   116 H    0.974
    88   6 C    3.959 --    87 C    1.646    89 C    1.179   117 H    0.973
    89   6 C    3.914 --    91 C    1.323    90 N    1.226    88 C    1.179
    90   7 N    3.296 --    86 C    1.263    89 C    1.226    63 Zn   0.455
    91   6 C    3.932 --    89 C    1.323   101 C    1.315    92 C    1.027
    92   6 C    3.988 --   100 C    1.406    93 C    1.389    91 C    1.027
                            95 C    0.102
    93   6 C    3.987 --    94 C    1.439    92 C    1.389   118 H    0.973
    94   6 C    3.994 --    95 C    1.451    93 C    1.439   119 H    0.972
                           100 C    0.104
    95   6 C    3.986 --    94 C    1.451    96 C    1.387   120 H    0.969
                            92 C    0.102
    96   6 C    3.988 --   100 C    1.399    95 C    1.387    97 C    1.006
    97   6 C    3.835 --    99 O    1.692    98 O    1.089    96 C    1.006
    98   8 O    2.098 --    97 C    1.089   121 H    0.838    99 O    0.129
    99   8 O    1.960 --    97 C    1.692    98 O    0.129
   100   6 C    3.985 --    92 C    1.406    96 C    1.399   122 H    0.969
                            94 C    0.104
   101   6 C    3.919 --    91 C    1.315   105 N    1.244   102 C    1.171
   102   6 C    3.963 --   103 C    1.660   101 C    1.171   123 H    0.973
   103   6 C    3.960 --   102 C    1.660   104 C    1.170   124 H    0.975
   104   6 C    3.921 --    64 C    1.357   105 N    1.233   103 C    1.170
   105   7 N    3.293 --   101 C    1.244   104 C    1.233    63 Zn   0.459
   106   1 H    1.001 --    64 C    0.971
   107   1 H    0.998 --    66 C    0.975
   108   1 H    1.004 --    67 C    0.973
   109   1 H    1.007 --    72 C    0.968
   110   1 H    0.873 --    75 O    0.838
   111   1 H    1.005 --    77 C    0.971
   112   1 H    1.002 --    78 C    0.973
   113   1 H    1.005 --    79 C    0.973
   114   1 H    1.004 --    81 C    0.973
   115   1 H    1.002 --    82 C    0.974
   116   1 H    1.002 --    87 C    0.974
   117   1 H    1.004 --    88 C    0.973
   118   1 H    1.005 --    93 C    0.973
   119   1 H    1.002 --    94 C    0.972
   120   1 H    1.005 --    95 C    0.969
   121   1 H    0.873 --    98 O    0.838
   122   1 H    1.008 --   100 C    0.969
   123   1 H    1.004 --   102 C    0.973
   124   1 H    0.998 --   103 C    0.975
   125   6 C    3.934 --   126 C    2.474   127 C    1.310
   126   6 C    3.924 --   125 C    2.474    23 C    1.190   128 C    0.199
   127   6 C    3.931 --   128 C    2.472   125 C    1.310
   128   6 C    3.925 --   127 C    2.472   134 C    1.192   126 C    0.199
   129   6 C    3.931 --   130 C    2.472   131 C    1.310
   130   6 C    3.925 --   129 C    2.472   155 C    1.193   132 C    0.199
   131   6 C    3.934 --   132 C    2.473   129 C    1.310
   132   6 C    3.924 --   131 C    2.473    85 C    1.190   130 C    0.199
   133  30 Zn   1.992 --   153 N    0.457   139 N    0.457   160 N    0.455
                           175 N    0.455
   134   6 C    3.927 --   135 C    1.253   174 C    1.251   128 C    1.192
   135   6 C    3.902 --   139 N    1.263   134 C    1.253   136 C    1.187
   136   6 C    3.960 --   137 C    1.644   135 C    1.187   176 H    0.974
   137   6 C    3.960 --   136 C    1.644   138 C    1.180   177 H    0.973
   138   6 C    3.911 --   140 C    1.321   139 N    1.225   137 C    1.180
   139   7 N    3.292 --   135 C    1.263   138 C    1.225   133 Zn   0.457
   140   6 C    3.927 --   138 C    1.321   150 C    1.319   141 C    1.026
   141   6 C    3.988 --   142 C    1.409   149 C    1.388   140 C    1.026
                           147 C    0.103
   142   6 C    3.984 --   141 C    1.409   143 C    1.396   178 H    0.968
                           148 C    0.104
   143   6 C    3.988 --   142 C    1.396   147 C    1.391   144 C    1.005
   144   6 C    3.836 --   146 O    1.692   145 O    1.089   143 C    1.005
   145   8 O    2.098 --   144 C    1.089   179 H    0.838   146 O    0.129
   146   8 O    1.961 --   144 C    1.692   145 O    0.129
   147   6 C    3.987 --   148 C    1.448   143 C    1.391   180 H    0.971
                           141 C    0.103
   148   6 C    3.994 --   147 C    1.448   149 C    1.441   181 H    0.972
                           142 C    0.104
   149   6 C    3.987 --   148 C    1.441   141 C    1.388   182 H    0.973
   150   6 C    3.912 --   140 C    1.319   153 N    1.225   151 C    1.182
   151   6 C    3.960 --   152 C    1.642   150 C    1.182   183 H    0.973
   152   6 C    3.960 --   151 C    1.642   154 C    1.188   184 H    0.974
   153   7 N    3.291 --   154 C    1.263   150 C    1.225   133 Zn   0.457
   154   6 C    3.902 --   153 N    1.263   155 C    1.251   152 C    1.188
   155   6 C    3.927 --   156 C    1.252   154 C    1.251   130 C    1.193
   156   6 C    3.903 --   160 N    1.263   155 C    1.252   157 C    1.188
   157   6 C    3.960 --   158 C    1.644   156 C    1.188   185 H    0.974
   158   6 C    3.960 --   157 C    1.644   159 C    1.181   186 H    0.973
   159   6 C    3.912 --   161 C    1.321   160 N    1.225   158 C    1.181
   160   7 N    3.291 --   156 C    1.263   159 C    1.225   133 Zn   0.455
   161   6 C    3.927 --   159 C    1.321   171 C    1.320   162 C    1.025
   162   6 C    3.988 --   170 C    1.406   163 C    1.390   161 C    1.025
                           165 C    0.103
   163   6 C    3.987 --   164 C    1.439   162 C    1.390   187 H    0.973
                           166 C    0.100
   164   6 C    3.994 --   165 C    1.451   163 C    1.439   188 H    0.972
                           170 C    0.104
   165   6 C    3.986 --   164 C    1.451   166 C    1.388   189 H    0.969
                           162 C    0.103
   166   6 C    3.988 --   170 C    1.399   165 C    1.388   167 C    1.005
                           163 C    0.100
   167   6 C    3.836 --   169 O    1.692   168 O    1.090   166 C    1.005
   168   8 O    2.098 --   167 C    1.090   190 H    0.838   169 O    0.129
   169   8 O    1.960 --   167 C    1.692   168 O    0.129
   170   6 C    3.985 --   162 C    1.406   166 C    1.399   191 H    0.969
                           164 C    0.104
   171   6 C    3.912 --   161 C    1.320   175 N    1.225   172 C    1.181
   172   6 C    3.960 --   173 C    1.643   171 C    1.181   192 H    0.973
   173   6 C    3.960 --   172 C    1.643   174 C    1.188   193 H    0.974
   174   6 C    3.902 --   175 N    1.263   134 C    1.251   173 C    1.188
   175   7 N    3.291 --   174 C    1.263   171 C    1.225   133 Zn   0.455
   176   1 H    1.002 --   136 C    0.974
   177   1 H    1.004 --   137 C    0.973
   178   1 H    1.007 --   142 C    0.968
   179   1 H    0.873 --   145 O    0.838
   180   1 H    1.005 --   147 C    0.971
   181   1 H    1.002 --   148 C    0.972
   182   1 H    1.005 --   149 C    0.973
   183   1 H    1.004 --   151 C    0.973
   184   1 H    1.002 --   152 C    0.974
   185   1 H    1.002 --   157 C    0.974
   186   1 H    1.004 --   158 C    0.973
   187   1 H    1.005 --   163 C    0.973
   188   1 H    1.002 --   164 C    0.972
   189   1 H    1.005 --   165 C    0.969
   190   1 H    0.873 --   168 O    0.838
   191   1 H    1.007 --   170 C    0.969
   192   1 H    1.004 --   172 C    0.973
   193   1 H    1.002 --   173 C    0.974
 ---------------------------------------------------------------------------

           -------------------------------------------------
          | TOTAL ENERGY             -359.703672230772 Eh   |
          | GRADIENT NORM               0.000775456140 Eh/α |
          | HOMO-LUMO GAP               0.928268948879 eV   |
           -------------------------------------------------

 * finished run on 2022/07/30 at 10:19:11.637
