   * xtb version 6.5.1 (b24c23e) compiled by 'conda@728c89f4b128' on 2022-07-12
          program call               : xtb Ni_m-CP_C8_2.xyz --gfn 1 --opt -T 48

   ID    Z sym.   atoms
    1   28 Ni     1, 63
    2    6 C      2-6, 8-12, 15-20, 22-27, 29-35, 38-42, 64-68, 70-74, 77-82,
                  84-89, 91-97, 100-104, 125-132
    3    7 N      7, 21, 28, 43, 69, 83, 90, 105
    4    8 O      13, 14, 36, 37, 75, 76, 98, 99
    5    1 H      44-62, 106-124
########################################################################
[WARNING] Please study the warnings concerning your input carefully
-1- prog_main_parseArguments: Unknown option '-T' provided
########################################################################

          :  Hamiltonian                  GFN1-xTB          :
 * total energy  :  -251.3885507 Eh     change       -0.1543299E-09 Eh
 * total energy  :  -252.1476572 Eh     change       -0.7591065E+00 Eh
 * total energy  :  -252.2904578 Eh     change       -0.1428006E+00 Eh
 * total energy  :  -252.3543599 Eh     change       -0.6390217E-01 Eh
 * total energy  :  -252.3822771 Eh     change       -0.2791715E-01 Eh
 * total energy  :  -252.3956722 Eh     change       -0.1339507E-01 Eh
 * total energy  :  -252.4047045 Eh     change       -0.9032377E-02 Eh
 * total energy  :  -252.4113841 Eh     change       -0.6679537E-02 Eh
 * total energy  :  -252.4163229 Eh     change       -0.4938770E-02 Eh
 * total energy  :  -252.4195188 Eh     change       -0.3195930E-02 Eh
 * total energy  :  -252.4308031 Eh     change       -0.1188510E-04 Eh
 * total energy  :  -252.4308181 Eh     change       -0.1501843E-04 Eh
 * total energy  :  -252.4308278 Eh     change       -0.9705194E-05 Eh
 * total energy  :  -252.4308392 Eh     change       -0.1137675E-04 Eh
 * total energy  :  -252.4308477 Eh     change       -0.8536754E-05 Eh
 * total energy  :  -252.4308472 Eh     change        0.5869658E-06 Eh
 * total energy  :  -252.4308533 Eh     change       -0.6095070E-05 Eh
 * total energy  :  -252.4308584 Eh     change       -0.5178587E-05 Eh
 * total energy  :  -252.4308609 Eh     change       -0.2477885E-05 Eh
   *** GEOMETRY OPTIMIZATION CONVERGED AFTER 44 ITERATIONS ***

 final structure:
================
132
 xtb: 6.5.1 (b24c23e)
Ni          13.19500198559419       -0.01994025317598        0.01668186821995
C            9.80382038784602       -0.00829020658054        0.18183057304725
C           10.45744596157658        1.20549455829235        0.21549891170095
C            9.78095167040283        2.46468214742012        0.28869135721154
C           10.73972049058965        3.41586953132085        0.37164959406802
C           12.00158073076205        2.73479874146886        0.36155226873951
N           11.81860475432032        1.38063812762410        0.23436706450939
C           13.22621696368312        3.37405445734216        0.49866385080921
C           13.24254602741881        4.84297657390626        0.70673933476715
C           12.66956052407827        5.40102708391707        1.84548897687871
C           12.69061484090801        6.78121623710842        2.04287677167532
C           12.06945489216681        7.31603190246487        3.28085549231977
O           12.15856651409793        8.64926293987531        3.39215629443613
O           11.53228367442497        6.63851611375275        4.11919256077586
C           13.28277609257506        7.61421347216439        1.09378626569133
C           13.85094414429160        7.06038701570056       -0.04271624345806
C           13.83508133628461        5.68617937272637       -0.23584244043729
C           14.43738401001274        2.69731829997419        0.45749861303632
C           15.70637318993862        3.32896385389788        0.65699835238408
C           16.64995248602615        2.37202509178935        0.48807821485023
N           14.60169380451977        1.35501582886475        0.20060433777145
C           15.95536344123226        1.15962515698596        0.19236368825942
C           16.60827012590953       -0.03603728639656       -0.12012500934336
C           15.92145462950299       -1.22341890726109       -0.38705927082002
C           16.57863289164169       -2.43936495279321       -0.74625206947668
C           15.61482941434173       -3.38540375867745       -0.85130083591653
C           14.37194887851945       -2.74456781083801       -0.54470392084252
N           14.56934359410259       -1.40591445863636       -0.29133125879712
C           13.15599872648522       -3.41148512652031       -0.48434914068725
C           13.14045748127857       -4.87980308803398       -0.69734128966956
C           13.81282687475140       -5.72876367723253        0.18423951680040
C           13.79750772058235       -7.10322125889070       -0.00866052569687
C           13.11543742749772       -7.64576144839552       -1.08481635881341
C           12.44137078765142       -6.80711279664736       -1.97377502589800
C           11.72418479673677       -7.42751059538768       -3.11603786286292
O           11.10191298135906       -6.53996847266211       -3.90541552222216
O           11.68958969842864       -8.61155260614817       -3.33372808478456
C           12.45298175377993       -5.42749514139691       -1.77790433984187
C           11.95432032538531       -2.76431281282199       -0.22923977000111
C           10.69276606564565       -3.43695768995315       -0.11879887636866
C            9.75385079958176       -2.48029883604928        0.06697526222074
C           10.44299691643213       -1.22608921287665        0.07984375175404
N           11.79414480217775       -1.40987460175829       -0.07657990617334
H            8.72150715731994       -0.00494394233501        0.23709597693345
H            8.70935556987172        2.58402752291997        0.27562601858985
H           10.61784927317339        4.48504658117631        0.43278518218162
H           12.21439181071940        4.76732355754036        2.59876573945663
H           11.73397124955570        8.91830972667507        4.22296495612384
H           13.29580360769729        8.68640710690003        1.24759898736534
H           14.31007925981376        7.70246857070801       -0.78585743484671
H           14.27380497286990        5.25947704267776       -1.13087490509207
H           15.84651336647798        4.36906561525875        0.90201571351036
H           17.72198715110838        2.46360723043061        0.55405779344632
H           17.64142345028948       -2.53945594763094       -0.89661254339350
H           15.72463030517710       -4.42400664178090       -1.11732679499463
H           14.33848049629639       -5.30590460576124        1.03305377329878
H           14.31990505390299       -7.75059623545793        0.68640159428023
H           13.09428978161312       -8.71689009782960       -1.25101576814615
H           10.66172609453677       -7.02233267863283       -4.62404957281374
H           11.93835634540634       -4.77734666484582       -2.47546567948583
H           10.55736969298999       -4.50486426885258       -0.17382080833378
H            8.68818441267453       -2.59299781376507        0.18716139916012
Ni          31.76014566397746        0.01073822706671        0.02074542103112
C           35.15136416721848       -0.05068328684049        0.17389507483812
C           34.49901011114662       -1.20982974549311       -0.19005309806921
C           35.17688440226229       -2.42341296254230       -0.53103120621829
C           34.21916253150549       -3.35073448063616       -0.76283803270137
C           32.95656798043986       -2.70487947941543       -0.55082678161778
N           33.13804487276798       -1.38298931656837       -0.22966995035791
C           31.73260915029068       -3.35509608134023       -0.63004600775318
C           31.71687721566299       -4.81163173359584       -0.91196709294396
C           32.29038152386986       -5.71033222684099       -0.01759878104684
C           32.26768920183754       -7.07963374387505       -0.28001514154078
C           32.88854671006328       -7.98887915236529        0.71612266550556
O           32.80162293967920       -9.28537101032797        0.38541380719987
O           33.42421359236816       -7.62183619510736        1.73038989397156
C           31.67337329146335       -7.55799536535145       -1.44759977369418
C           31.10507642224726       -6.66399906011160       -2.34145906682951
C           31.12267102566814       -5.30176203169754       -2.07701410250841
C           30.52075788950971       -2.70297299320710       -0.44884681745484
C           29.25239852447215       -3.36635836608984       -0.46658320929211
C           28.30784403945360       -2.40750767385455       -0.31497790649231
N           30.35506919745374       -1.35039162044400       -0.25432648264788
C           29.00120915764369       -1.16429084419552       -0.19912440684772
C           28.34686305155920        0.06712306307331       -0.10456216160382
C           29.03222697209453        1.27741218483701        0.03099744353124
C           28.37370427195190        2.54330292720045        0.08878640859524
C           29.33649048431039        3.47275097865870        0.29890264954582
C           30.58010183741581        2.76823270179194        0.37936175715905
N           30.38415989558007        1.42002831403513        0.18147825819926
C           31.79542303528785        3.38008563701029        0.65410783882405
C           31.81039937138667        4.83754026047504        0.93206796271841
C           31.13998689563959        5.35212897629520        2.04366455520920
C           31.15690319678086        6.71413241731421        2.31070473406861
C           31.83858315606134        7.57813261003382        1.47016876588973
C           32.51040239802546        7.07569563757615        0.35474351414225
C           33.22775261117929        8.03464034626342       -0.52266643110704
O           33.85041927803363        7.45289949088059       -1.55801578199337
O           33.26217284311440        9.22497148724466       -0.34252823231258
C           32.49709335442490        5.70789608180936        0.08876344154178
C           32.99783590767557        2.68632768207372        0.68407749060546
C           34.25871692561704        3.28753274884406        1.00800648164845
C           35.19871088992377        2.32366792255780        0.87153551718702
C           34.51089823841768        1.13312408495894        0.47450272532199
N           33.15950683145245        1.35639867298869        0.38648066859453
H           36.23369023983354       -0.07070409122508        0.22522988507168
H           36.24861791331907       -2.53079776159137       -0.58194479829284
H           34.34217277130452       -4.38134507896704       -1.05343404666704
H           32.74684695209912       -5.35670497895520        0.90042745676680
H           33.22598559045635       -9.81064108857378        1.08320929087039
H           31.65853746577681       -8.62192640518220       -1.65068915336275
H           30.64421023768137       -7.02892870766096       -3.25236975419195
H           30.68371321261240       -4.60665786620792       -2.78396757609236
H           29.11320075400096       -4.42966488893327       -0.57371289306793
H           27.23589429095455       -2.51663133602384       -0.28303780752336
H           27.31078859131080        2.68588341241261       -0.02087583665564
H           29.22561831456224        4.54114097641298        0.38711061404005
H           30.61485750008077        4.67543928805986        2.70844818355563
H           30.63632145411990        7.09910817833097        3.18012942850641
H           31.86134434703492        8.64465331553179        1.66357807126390
H           34.29083480655948        8.14313656330884       -2.08000877135053
H           33.01009946374304        5.32104495659612       -0.78375880920780
H           34.39295913152787        4.31510064507309        1.30441789006987
H           36.26428734689341        2.39220770370133        1.02198400763380
C           18.01219503338833       -0.04151567031748       -0.16409074541080
C           19.23593623084428       -0.02591555200629       -0.19253515230968
C           20.57867672169470       -0.00958768725625       -0.21218984779039
C           21.80851989976133        0.02086201464560       -0.21885983688325
C           23.14648830075470        0.04405018075452       -0.21446069933464
C           24.37648816802326        0.06876806812566       -0.19905931527885
C           25.71924374166440        0.07793418179932       -0.17559950858729
C           26.94293079724200        0.08412497986521       -0.14446768325490

          :  Hamiltonian                  GFN1-xTB          :
         :: total energy            -252.430860913309 Eh    ::
         :: gradient norm              0.000634159946 Eh/a0 ::
         :: HOMO-LUMO gap              1.217021158490 eV    ::
         :: SCC energy              -256.185215025092 Eh    ::
         :: repulsion energy           3.870637395929 Eh    ::

    * Orbital Energies and Occupations

         #    Occupation            Energy/Eh            Energy/eV
      -------------------------------------------------------------
         1        2.0000           -0.8346229             -22.7112
       ...           ...                  ...                  ...
       213        2.0000           -0.4142097             -11.2712
       214        2.0000           -0.4055077             -11.0344
       215        2.0000           -0.4055059             -11.0344
       216        2.0000           -0.4051893             -11.0258
       217        2.0000           -0.4051874             -11.0257
       218        2.0000           -0.4043039             -11.0017
       219        2.0000           -0.4043020             -11.0016
       220        2.0000           -0.4032581             -10.9732
       221        2.0000           -0.4032560             -10.9732
       222        2.0000           -0.4031796             -10.9711
       223        2.0000           -0.4031777             -10.9710
       224        2.0000           -0.4008148             -10.9067
       225        2.0000           -0.3915345             -10.6542 (HOMO)
       226                         -0.3468097              -9.4372 (LUMO)
       227                         -0.3371866              -9.1753
       228                         -0.3371836              -9.1752
       229                         -0.3367979              -9.1647
       230                         -0.3359005              -9.1403
       231                         -0.3358793              -9.1397
       232                         -0.3138765              -8.5410
       233                         -0.3132505              -8.5240
       234                         -0.3123917              -8.5006
       235                         -0.3123263              -8.4988
       236                         -0.3084376              -8.3930
       ...                                ...                  ...
       462                          1.6007862              43.5596
      -------------------------------------------------------------
                  HL-Gap            0.0447247 Eh            1.2170 eV

Wiberg/Mayer (AO) data.
largest (>0.10) Wiberg bond orders for each atom

     #   Z sym  total        # sym  WBO       # sym  WBO       # sym  WBO
 ---------------------------------------------------------------------------
     1  28 Ni   3.008 --     7 N    0.664    43 N    0.664    21 N    0.660
                            28 N    0.660
     2   6 C    3.935 --     3 C    1.365    42 C    1.364    44 H    0.970
     3   6 C    3.922 --     2 C    1.365     7 N    1.213     4 C    1.174
     4   6 C    3.960 --     5 C    1.651     3 C    1.174    45 H    0.975
     5   6 C    3.963 --     4 C    1.651     6 C    1.175    46 H    0.973
     6   6 C    3.920 --     8 C    1.325     7 N    1.221     5 C    1.175
     7   7 N    3.402 --     6 C    1.221     3 C    1.213     1 Ni   0.664
     8   6 C    3.938 --    18 C    1.329     6 C    1.325     9 C    1.023
     9   6 C    3.988 --    10 C    1.410    17 C    1.389     8 C    1.023
                            15 C    0.103
    10   6 C    3.985 --     9 C    1.410    11 C    1.396    47 H    0.968
                            16 C    0.104
    11   6 C    3.988 --    10 C    1.396    15 C    1.392    12 C    1.004
                            17 C    0.100
    12   6 C    3.836 --    14 O    1.693    13 O    1.090    11 C    1.004
    13   8 O    2.099 --    12 C    1.090    48 H    0.838    14 O    0.129
    14   8 O    1.962 --    12 C    1.693    13 O    0.129
    15   6 C    3.988 --    16 C    1.448    11 C    1.392    49 H    0.970
                             9 C    0.103
    16   6 C    3.994 --    15 C    1.448    17 C    1.441    50 H    0.972
                            10 C    0.104
    17   6 C    3.988 --    16 C    1.441     9 C    1.389    51 H    0.973
                            11 C    0.100
    18   6 C    3.915 --     8 C    1.329    21 N    1.207    19 C    1.183
    19   6 C    3.958 --    20 C    1.636    18 C    1.183    52 H    0.973
    20   6 C    3.961 --    19 C    1.636    22 C    1.191    53 H    0.973
    21   7 N    3.406 --    22 C    1.239    18 C    1.207     1 Ni   0.660
    22   6 C    3.902 --    23 C    1.262    21 N    1.239    20 C    1.191
    23   6 C    3.945 --    24 C    1.262    22 C    1.262   125 C    1.186
    24   6 C    3.903 --    23 C    1.262    28 N    1.239    25 C    1.191
    25   6 C    3.961 --    26 C    1.636    24 C    1.191    54 H    0.973
    26   6 C    3.958 --    25 C    1.636    27 C    1.183    55 H    0.973
    27   6 C    3.915 --    29 C    1.329    28 N    1.206    26 C    1.183
    28   7 N    3.406 --    24 C    1.239    27 C    1.206     1 Ni   0.660
    29   6 C    3.938 --    27 C    1.329    39 C    1.324    30 C    1.023
    30   6 C    3.988 --    38 C    1.407    31 C    1.390    29 C    1.023
                            33 C    0.103
    31   6 C    3.988 --    32 C    1.439    30 C    1.390    56 H    0.973
                            34 C    0.100
    32   6 C    3.994 --    33 C    1.451    31 C    1.439    57 H    0.972
                            38 C    0.104
    33   6 C    3.986 --    32 C    1.451    34 C    1.388    58 H    0.969
                            30 C    0.103
    34   6 C    3.988 --    38 C    1.399    33 C    1.388    35 C    1.005
                            31 C    0.100
    35   6 C    3.836 --    37 O    1.693    36 O    1.090    34 C    1.005
    36   8 O    2.099 --    35 C    1.090    59 H    0.838    37 O    0.129
    37   8 O    1.961 --    35 C    1.693    36 O    0.129
    38   6 C    3.986 --    30 C    1.407    34 C    1.399    60 H    0.969
                            32 C    0.104
    39   6 C    3.920 --    29 C    1.324    43 N    1.222    40 C    1.176
    40   6 C    3.963 --    41 C    1.650    39 C    1.176    61 H    0.973
    41   6 C    3.960 --    40 C    1.650    42 C    1.174    62 H    0.975
    42   6 C    3.922 --     2 C    1.364    43 N    1.213    41 C    1.174
    43   7 N    3.402 --    39 C    1.222    42 C    1.213     1 Ni   0.664
    44   1 H    1.000 --     2 C    0.970
    45   1 H    0.997 --     4 C    0.975
    46   1 H    1.003 --     5 C    0.973
    47   1 H    1.007 --    10 C    0.968
    48   1 H    0.873 --    13 O    0.838
    49   1 H    1.005 --    15 C    0.970
    50   1 H    1.002 --    16 C    0.972
    51   1 H    1.004 --    17 C    0.973
    52   1 H    1.004 --    19 C    0.973
    53   1 H    1.002 --    20 C    0.973
    54   1 H    1.001 --    25 C    0.973
    55   1 H    1.004 --    26 C    0.973
    56   1 H    1.004 --    31 C    0.973
    57   1 H    1.001 --    32 C    0.972
    58   1 H    1.005 --    33 C    0.969
    59   1 H    0.873 --    36 O    0.838
    60   1 H    1.007 --    38 C    0.969
    61   1 H    1.004 --    40 C    0.973
    62   1 H    0.997 --    41 C    0.975
    63  28 Ni   3.008 --    69 N    0.664   105 N    0.664    83 N    0.660
                            90 N    0.660
    64   6 C    3.935 --    65 C    1.365   104 C    1.364   106 H    0.970
    65   6 C    3.922 --    64 C    1.365    69 N    1.213    66 C    1.174
    66   6 C    3.960 --    67 C    1.651    65 C    1.174   107 H    0.975
    67   6 C    3.963 --    66 C    1.651    68 C    1.175   108 H    0.973
    68   6 C    3.920 --    70 C    1.325    69 N    1.221    67 C    1.175
    69   7 N    3.402 --    68 C    1.221    65 C    1.213    63 Ni   0.664
    70   6 C    3.938 --    80 C    1.329    68 C    1.325    71 C    1.023
    71   6 C    3.988 --    72 C    1.410    79 C    1.389    70 C    1.023
                            77 C    0.103
    72   6 C    3.985 --    71 C    1.410    73 C    1.396   109 H    0.968
                            78 C    0.104
    73   6 C    3.988 --    72 C    1.396    77 C    1.392    74 C    1.004
                            79 C    0.100
    74   6 C    3.836 --    76 O    1.693    75 O    1.090    73 C    1.004
    75   8 O    2.099 --    74 C    1.090   110 H    0.838    76 O    0.129
    76   8 O    1.962 --    74 C    1.693    75 O    0.129
    77   6 C    3.988 --    78 C    1.448    73 C    1.392   111 H    0.970
                            71 C    0.103
    78   6 C    3.994 --    77 C    1.448    79 C    1.441   112 H    0.972
                            72 C    0.104
    79   6 C    3.988 --    78 C    1.441    71 C    1.389   113 H    0.973
                            73 C    0.100
    80   6 C    3.915 --    70 C    1.329    83 N    1.207    81 C    1.183
    81   6 C    3.958 --    82 C    1.636    80 C    1.183   114 H    0.973
    82   6 C    3.961 --    81 C    1.636    84 C    1.191   115 H    0.973
    83   7 N    3.406 --    84 C    1.239    80 C    1.207    63 Ni   0.660
    84   6 C    3.902 --    85 C    1.262    83 N    1.239    82 C    1.191
    85   6 C    3.945 --    86 C    1.262    84 C    1.262   132 C    1.186
    86   6 C    3.903 --    85 C    1.262    90 N    1.239    87 C    1.191
    87   6 C    3.961 --    88 C    1.636    86 C    1.191   116 H    0.973
    88   6 C    3.958 --    87 C    1.636    89 C    1.183   117 H    0.973
    89   6 C    3.915 --    91 C    1.329    90 N    1.206    88 C    1.183
    90   7 N    3.406 --    86 C    1.239    89 C    1.206    63 Ni   0.660
    91   6 C    3.938 --    89 C    1.329   101 C    1.324    92 C    1.023
    92   6 C    3.988 --   100 C    1.407    93 C    1.390    91 C    1.023
                            95 C    0.103
    93   6 C    3.988 --    94 C    1.439    92 C    1.390   118 H    0.973
                            96 C    0.100
    94   6 C    3.994 --    95 C    1.451    93 C    1.439   119 H    0.972
                           100 C    0.104
    95   6 C    3.986 --    94 C    1.451    96 C    1.388   120 H    0.969
                            92 C    0.103
    96   6 C    3.988 --   100 C    1.399    95 C    1.388    97 C    1.005
                            93 C    0.100
    97   6 C    3.836 --    99 O    1.693    98 O    1.090    96 C    1.005
    98   8 O    2.099 --    97 C    1.090   121 H    0.838    99 O    0.129
    99   8 O    1.961 --    97 C    1.693    98 O    0.129
   100   6 C    3.986 --    92 C    1.407    96 C    1.399   122 H    0.969
                            94 C    0.104
   101   6 C    3.920 --    91 C    1.324   105 N    1.222   102 C    1.176
   102   6 C    3.963 --   103 C    1.650   101 C    1.176   123 H    0.973
   103   6 C    3.960 --   102 C    1.650   104 C    1.174   124 H    0.975
   104   6 C    3.922 --    64 C    1.364   105 N    1.213   103 C    1.174
   105   7 N    3.402 --   101 C    1.222   104 C    1.213    63 Ni   0.664
   106   1 H    1.000 --    64 C    0.970
   107   1 H    0.997 --    66 C    0.975
   108   1 H    1.003 --    67 C    0.973
   109   1 H    1.007 --    72 C    0.968
   110   1 H    0.873 --    75 O    0.838
   111   1 H    1.005 --    77 C    0.970
   112   1 H    1.002 --    78 C    0.972
   113   1 H    1.004 --    79 C    0.973
   114   1 H    1.004 --    81 C    0.973
   115   1 H    1.002 --    82 C    0.973
   116   1 H    1.001 --    87 C    0.973
   117   1 H    1.004 --    88 C    0.973
   118   1 H    1.004 --    93 C    0.973
   119   1 H    1.001 --    94 C    0.972
   120   1 H    1.005 --    95 C    0.969
   121   1 H    0.873 --    98 O    0.838
   122   1 H    1.007 --   100 C    0.969
   123   1 H    1.004 --   102 C    0.973
   124   1 H    0.997 --   103 C    0.975
   125   6 C    3.878 --   126 C    2.445    23 C    1.186   128 C    0.187
   126   6 C    3.938 --   125 C    2.445   127 C    1.341
   127   6 C    3.894 --   128 C    2.341   126 C    1.341   130 C    0.183
   128   6 C    3.928 --   127 C    2.341   129 C    1.366   125 C    0.187
   129   6 C    3.928 --   130 C    2.341   128 C    1.366   132 C    0.187
   130   6 C    3.894 --   129 C    2.341   131 C    1.341   127 C    0.183
   131   6 C    3.938 --   132 C    2.445   130 C    1.341
   132   6 C    3.878 --   131 C    2.445    85 C    1.186   129 C    0.187
 ---------------------------------------------------------------------------

           -------------------------------------------------
          | TOTAL ENERGY             -252.430860913309 Eh   |
          | GRADIENT NORM               0.000634159946 Eh/α |
          | HOMO-LUMO GAP               1.217021158490 eV   |
           -------------------------------------------------

 * finished run on 2022/07/30 at 05:26:52.983
