   * xtb version 6.5.1 (b24c23e) compiled by 'conda@728c89f4b128' on 2022-07-12
          program call               : xtb Zn_m-CP_C8_3.xyz --gfn 1 --opt -T 48

   ID    Z sym.   atoms
    1   30 Zn     1, 63, 141
    2    6 C      2-6, 8-12, 15-20, 22-27, 29-35, 38-42, 64-68, 70-74, 77-82,
                  84-89, 91-97, 100-104, 125-140, 142-146, 148-152, 155-160,
                  162-167, 169-175, 178-182
    3    7 N      7, 21, 28, 43, 69, 83, 90, 105, 147, 161, 168, 183
    4    8 O      13, 14, 36, 37, 75, 76, 98, 99, 153, 154, 176, 177
    5    1 H      44-62, 106-124, 184-201
########################################################################
[WARNING] Please study the warnings concerning your input carefully
-1- prog_main_parseArguments: Unknown option '-T' provided
########################################################################

          :  Hamiltonian                  GFN1-xTB          :
 * total energy  :  -374.5698960 Eh     change       -0.6250843E-08 Eh
 * total energy  :  -375.4223552 Eh     change       -0.8524591E+00 Eh
 * total energy  :  -375.6752600 Eh     change       -0.2529048E+00 Eh
 * total energy  :  -375.7983118 Eh     change       -0.1230518E+00 Eh
 * total energy  :  -375.8630397 Eh     change       -0.6472792E-01 Eh
 * total energy  :  -375.9066719 Eh     change       -0.4363218E-01 Eh
 * total energy  :  -375.9387658 Eh     change       -0.3209395E-01 Eh
 * total energy  :  -375.9641084 Eh     change       -0.2534259E-01 Eh
 * total energy  :  -375.9864251 Eh     change       -0.2231669E-01 Eh
 * total energy  :  -376.0075533 Eh     change       -0.2112821E-01 Eh
 * total energy  :  -376.2130174 Eh     change       -0.9229838E-05 Eh
 * total energy  :  -376.2130262 Eh     change       -0.8780886E-05 Eh
 * total energy  :  -376.2129981 Eh     change        0.2810405E-04 Eh
 * total energy  :  -376.2130302 Eh     change       -0.3206857E-04 Eh
 * total energy  :  -376.2129579 Eh     change        0.7229296E-04 Eh
 * total energy  :  -376.2130315 Eh     change       -0.7362034E-04 Eh
 * total energy  :  -376.2130396 Eh     change       -0.8081354E-05 Eh
 * total energy  :  -376.2130477 Eh     change       -0.8141199E-05 Eh
 * total energy  :  -376.2130517 Eh     change       -0.3935608E-05 Eh
   *** GEOMETRY OPTIMIZATION CONVERGED AFTER 312 ITERATIONS ***

 final structure:
================
201
 xtb: 6.5.1 (b24c23e)
Zn          28.45195955885191       -0.34028956795624       -1.60107351949221
C           25.07141928733925       -0.75229315984219       -1.44162432006428
C           25.54191192238396        0.54943444390386       -1.32018787515408
C           24.71664485157665        1.71397447489008       -1.15844199958417
C           25.54852660720938        2.78183872657938       -1.07673259034233
C           26.89416815666385        2.28067298308139       -1.17693144824691
N           26.85422811877718        0.92656138103348       -1.33379254262353
C           28.05763397361313        3.05881849523340       -1.14100399358138
C           27.88864942172392        4.51993862603702       -0.93691516661419
C           27.30810265723279        5.00796939052894        0.23030544829799
C           27.15178844803732        6.38009002578248        0.42321186091974
C           26.52934380508087        6.83743274373015        1.69073234256684
O           26.43543062848103        8.17143887093863        1.79134095708088
O           26.13699835573644        6.10188554915759        2.56019576404465
C           27.57458800473041        7.27672326639078       -0.55808443044545
C           28.15101061842337        6.79343690245250       -1.72224529877328
C           28.30938804835440        5.42774442034697       -1.91173676065945
C           29.36539509421751        2.58009017293737       -1.27170258941621
C           30.55561416782440        3.37933777547259       -1.17161811907975
C           31.61303773160008        2.54404302832308       -1.33277008143305
N           29.72309299418076        1.27511714213641       -1.48185354340448
C           31.08128691037507        1.22650359015041       -1.52636211851622
C           31.86146025879482        0.06913140219198       -1.72476945214850
C           31.36594610723520       -1.23816914074927       -1.89815496826165
C           32.18002314683515       -2.39156190848999       -2.14750900899820
C           31.34154722658097       -3.45391984986815       -2.25124159578302
C           30.00606385436983       -2.96072831594295       -2.05243714235271
N           30.05790088559156       -1.60699538884622       -1.85341712717446
C           28.84363333935332       -3.73866896472056       -2.07485260948808
C           29.00728148812205       -5.20051016142685       -2.27742928256492
C           29.72454118814863       -5.96983573970891       -1.35853011834639
C           29.87233974936128       -7.33761040526062       -1.54337410203548
C           29.30761005467652       -7.95464221825338       -2.64701943536468
C           28.58890282339470       -7.19693172142331       -3.57310484805102
C           27.99647012288306       -7.89433014669398       -4.74151618267606
O           27.31929416164646       -7.08141145629113       -5.56616048290583
O           28.09761708363144       -9.07614477330628       -4.95106610358375
C           28.44007844081186       -5.82406560667023       -3.38691261200936
C           27.53614678467212       -3.26101040535093       -1.91962846158049
C           26.34727303903284       -4.07205793691849       -1.89088093387687
C           25.29510572421170       -3.23445856503472       -1.71532511340097
C           25.82767587110237       -1.90376127633244       -1.62421176862912
N           27.18688049386180       -1.95416988422301       -1.74595448415601
H           23.99527520114199       -0.88451280403130       -1.38685010926482
H           23.63866256464607        1.70411204066570       -1.12033424156396
H           25.27929389523250        3.82015084396404       -0.96735638884923
H           26.98551677401053        4.32644001526952        1.00987627555526
H           26.02112268263153        8.38749428975552        2.64249594938452
H           27.45075610409049        8.34228759599394       -0.40757870041929
H           28.47905802378073        7.48440467028209       -2.49061823911780
H           28.75043647126657        5.05627910087133       -2.83004464627426
H           30.57830700063892        4.44121844238143       -0.98652659872254
H           32.66265501419866        2.79063144483783       -1.31694554663448
H           33.25445487713515       -2.37957342700580       -2.23979809313297
H           31.60183494925109       -4.47995369561425       -2.45594915227484
H           30.15482451843863       -5.49163400042745       -0.48563028522050
H           30.42865276327707       -7.92193145262723       -0.81928575861306
H           29.41239843964651       -9.02192902362580       -2.80597722033359
H           26.96549827608874       -7.61162487816546       -6.29859477166569
H           27.89339572474081       -5.23596138530517       -4.11457848185907
H           26.32570049304821       -5.14626700036868       -1.98139455081865
H           24.24824871839602       -3.48488046026521       -1.64430128895790
Zn          61.78582212020721       -0.29005281660597       -1.53894153496959
C           65.16738921631384       -0.69338571264221       -1.38257225637631
C           64.41926731955010       -1.83368196355325       -1.64821843840294
C           64.96415326848960       -3.14178802099127       -1.88283875380568
C           63.91650328280647       -3.97567497814248       -2.09729676533609
C           62.71653401213093       -3.18843513704087       -1.98467295474818
N           63.05705954417041       -1.89380852912705       -1.72416159028605
C           61.40998508044018       -3.66959432450614       -2.13531088752891
C           61.25138805518128       -5.12440667186257       -2.38564389052267
C           61.69331622706835       -6.05460862604712       -1.44896471402054
C           61.54818585483600       -7.42113790657760       -1.68494056660171
C           62.04004799352964       -8.36159157154084       -0.64730913880811
O           61.85507796268237       -9.65214545721833       -0.96193367891001
O           62.56068808545592       -8.02395253744948        0.38514277672668
C           60.95793745580452       -7.86758009065765       -2.86732717103800
C           60.51709399559409       -6.94372741499944       -3.80180855673392
C           60.66035856956479       -5.58372677388219       -3.56513532294111
C           60.24248524204493       -2.90224307905194       -2.06197504878502
C           58.90292422777465       -3.41574624883755       -2.15260150565010
C           58.05984111275909       -2.36081229469283       -2.01600112654093
N           60.18656290122011       -1.54907002135145       -1.86179058218815
C           58.87383189072472       -1.19467470003494       -1.83450547192053
C           58.37496463061476        0.11102622282042       -1.66051462053415
C           59.15264711112185        1.27048414548760       -1.46286479323691
C           58.62127255919857        2.59612166648459       -1.33584333162579
C           59.67470101111262        3.42903487756324       -1.13934905467567
C           60.86076873343031        2.61749634369230       -1.13230951137752
N           60.50674182965032        1.31202651566696       -1.34635829248414
C           62.16388359457039        3.09197883372101       -0.94923713756911
C           62.32677657946519        4.54451542033765       -0.68756225807899
C           61.75331005658510        5.12982096962050        0.44361969061816
C           61.90805191300003        6.48622463513288        0.69436690062273
C           62.63542045167490        7.27574245088982       -0.18040891012900
C           63.21290408437628        6.70320775302172       -1.31486690672209
C           63.98588459311703        7.58190080554655       -2.22760554025559
O           64.50614066964194        6.93665996632590       -3.28228492674948
O           64.14739974203914        8.76350824348219       -2.05869752745140
C           63.05838765975832        5.34123832767075       -1.56576436838802
C           63.32921538715459        2.31619168390534       -0.98596196305846
C           64.66431068857493        2.79908456310751       -0.74892611427612
C           65.50135444733691        1.73917087306079       -0.87314996219917
C           64.68828567588838        0.59467266180258       -1.17636724680635
N           63.37821902271778        0.97558387924474       -1.23156490657410
H           66.24391106233561       -0.82304149957771       -1.32912820632775
H           66.01654281376311       -3.37853542525655       -1.88721676661308
H           63.94913949644928       -5.02973309048166       -2.32173230768004
H           62.14239552346760       -5.72581986160631       -0.51808733328665
H           62.20200911692008      -10.19811126765459       -0.23779621782431
H           60.84763264326606       -8.92956395966527       -3.05016816831931
H           60.06014331658048       -7.28358594644767       -4.72439487538260
H           60.32567391381555       -4.86713654457967       -4.30694632279939
H           58.64231612434915       -4.45312921360630       -2.28805882803651
H           56.98147861287377       -2.36389531832451       -2.02985026391741
H           57.57552459176954        2.85137231618163       -1.39942209412046
H           59.65306581932672        4.50050285928044       -1.02171905708270
H           61.19547791838974        4.51092128460597        1.13758579903929
H           61.46001679508753        6.92510038896148        1.57861486436090
H           62.76665273988644        8.33658984580260        0.00052086916655
H           64.99308330947338        7.57764766364486       -3.82520075889303
H           63.49590540593412        4.90224776799888       -2.45463904664763
H           64.92266609010493        3.81759686612135       -0.50706441088800
H           66.57433328488277        1.72064438027915       -0.76344826271018
C           33.25702586114846        0.24044127914051       -1.72184019335832
C           34.46631392346400        0.42397946312573       -1.67446808666509
C           35.78553735669422        0.65782668980518       -1.56327996142107
C           36.97764658244710        0.91699145453280       -1.41393648032604
C           38.25787401825079        1.24024702812116       -1.17241522330543
C           39.41163661088789        1.56965772239927       -0.91774701517280
C           40.63173775881247        2.02415401320085       -0.48169045704233
C           41.64715810606653        2.90242728480893       -0.74925032999147
C           48.54817984599549        2.86737611173113       -0.72633744943411
C           49.59183435877560        2.03430431875212       -0.42402848713477
C           50.81765916406129        1.58518795409127       -0.84930708146508
C           51.97484614425695        1.26553551165000       -1.10082691041639
C           53.25695087574080        0.94609574195499       -1.33800659555823
C           54.44968315011138        0.69086231608184       -1.48914332873757
C           55.76930415050765        0.45906674527991       -1.60071270448227
C           56.97893634873829        0.27953287478737       -1.65485723441777
Zn          45.11618538628185        1.56573461514489        0.57921013710701
C           41.69392415824154        1.53457291405166        0.35798658013500
C           42.34116749213853        0.27411492044694        0.29560217108309
C           41.67191172528286       -0.96859351730078        0.11678695171761
C           42.63091528378771       -1.93894152797195        0.17022265896982
C           43.88378610016501       -1.28484722731369        0.38007711664463
N           43.66659686210330        0.07387579359797        0.46235968583051
C           45.13523150831909       -1.90974944583379        0.39993550973283
C           45.13624562197346       -3.39125542897255        0.29644417338427
C           44.54800777868240       -4.16583747023494        1.29184467559744
C           44.54683332845724       -5.55704416587611        1.19697949892561
C           43.90837965246843       -6.32855985621982        2.29271475658498
O           43.96068525092149       -7.65671966886377        2.11419367258150
O           43.38661063701645       -5.83369868190716        3.25876673954610
C           45.13124831098629       -6.18314593998801        0.09607342547202
C           45.71284566281538       -5.41334677268672       -0.89897642420279
C           45.71867518108225       -4.02902390539857       -0.80115763838040
C           46.38266069117022       -1.27972088180554        0.45723483208914
C           47.65315323751612       -1.93117101550894        0.42748499800965
C           48.60785409139566       -0.95395317084521        0.40104568601268
N           46.58467459167657        0.08437335936395        0.48870468893098
C           47.91762082419352        0.28837345158309        0.43274694513486
C           48.54951886187514        1.56226415401405        0.44992578398934
C           47.90753379126665        2.88751900493181        0.66973706769162
C           48.57625623860940        3.87550683293885        1.54443745291178
C           47.62155264151215        4.59347920308560        2.14906574880438
C           46.33344053133968        4.05455066210788        1.73989396820553
N           46.51787174367293        3.03367188993044        0.88726016324136
C           45.09129952061165        4.55781209552912        2.15215688337721
C           45.07369125245746        5.69213893621247        3.10754493923263
C           44.46160592561689        6.90096461837802        2.76334501582847
C           44.44093380138607        7.96630868157945        3.65262067038962
C           45.03332138596620        7.84344901649738        4.89836411325974
C           45.64915311398593        6.64280518412360        5.25643473467667
C           46.26991456357865        6.54770868745211        6.59986147532603
O           46.84922356288742        5.36140822294201        6.84348512516917
O           46.27154108639052        7.43545803905011        7.41454054189614
C           45.66620907153595        5.57255596744428        4.36401605322875
C           43.86081796673491        4.04030847158951        1.72029916443639
C           42.56504258162812        4.49716321401141        2.19991034540586
C           41.62212601937743        3.77607441183850        1.58085130024399
C           42.30479731148538        2.86289409824576        0.63836077378719
N           43.69460124279465        3.04203001372464        0.83753068893337
H           40.61049478531807       -1.08598803542637       -0.03277194168816
H           42.49232601444578       -3.00230883297741        0.05890378260608
H           44.09653414216304       -3.69574590402703        2.15864860490286
H           43.52486557777112       -8.08613519961280        2.86816789702596
H           45.12673004645828       -7.26388142244197        0.02238253070977
H           46.16472884492227       -5.89324513216101       -1.75972591306870
H           46.16403030719572       -3.43238146462585       -1.58936597098346
H           47.81008344461812       -2.99786769674175        0.43360147651836
H           49.67964703251396       -1.06849527561678        0.36995607056151
H           49.64816121043783        3.97702592866595        1.59794768949591
H           47.75192749732206        5.42397573975820        2.82464496872204
H           44.01232361378176        7.00792922527768        1.78210365754760
H           43.96425923372453        8.89739470979703        3.36731047731994
H           45.02844105567731        8.66613501043280        5.60430543955269
H           47.22653713457125        5.38316917415702        7.73774181301916
H           46.12710166451171        4.63585458425646        4.65503428023231
H           42.42403522918574        5.26272062726309        2.94651524482287
H           40.54918418265974        3.82459132435777        1.67362063594216

          :  Hamiltonian                  GFN1-xTB          :
         :: total energy            -376.213051659057 Eh    ::
         :: gradient norm              0.000572183448 Eh/a0 ::
         :: HOMO-LUMO gap              1.067664081382 eV    ::
         :: SCC energy              -381.886224656870 Eh    ::
         :: repulsion energy           5.852581210743 Eh    ::

    * Orbital Energies and Occupations

         #    Occupation            Energy/Eh            Energy/eV
      -------------------------------------------------------------
         1        2.0000           -0.8337897             -22.6886
       ...           ...                  ...                  ...
       321        2.0000           -0.4279376             -11.6448
       322        2.0000           -0.4230723             -11.5124
       323        2.0000           -0.4225956             -11.4994
       324        2.0000           -0.4215655             -11.4714
       325        2.0000           -0.4146398             -11.2829
       326        2.0000           -0.4030546             -10.9677
       327        2.0000           -0.4010147             -10.9122
       328        2.0000           -0.4005634             -10.8999
       329        2.0000           -0.3978448             -10.8259
       330        2.0000           -0.3902880             -10.6203
       331        2.0000           -0.3893972             -10.5960
       332        2.0000           -0.3835420             -10.4367
       333        2.0000           -0.3809184             -10.3653 (HOMO)
       334                         -0.3416825              -9.2977 (LUMO)
       335                         -0.3402716              -9.2593
       336                         -0.3349757              -9.1152
       337                         -0.3345642              -9.1040
       338                         -0.3340855              -9.0909
       339                         -0.3211450              -8.7388
       340                         -0.3132802              -8.5248
       341                         -0.3117700              -8.4837
       342                         -0.3113092              -8.4712
       343                         -0.3106782              -8.4540
       344                         -0.3104313              -8.4473
       ...                                ...                  ...
       692                          1.5728571              42.7996
      -------------------------------------------------------------
                  HL-Gap            0.0392359 Eh            1.0677 eV

Wiberg/Mayer (AO) data.
largest (>0.10) Wiberg bond orders for each atom

     #   Z sym  total        # sym  WBO       # sym  WBO       # sym  WBO
 ---------------------------------------------------------------------------
     1  30 Zn   1.994 --     7 N    0.460    43 N    0.460    21 N    0.455
                            28 N    0.454
     2   6 C    3.929 --     3 C    1.358    42 C    1.358    44 H    0.971
     3   6 C    3.921 --     2 C    1.358     7 N    1.232     4 C    1.169
     4   6 C    3.961 --     5 C    1.661     3 C    1.169    45 H    0.975
     5   6 C    3.963 --     4 C    1.661     6 C    1.170    46 H    0.973
     6   6 C    3.918 --     8 C    1.314     7 N    1.246     5 C    1.170
     7   7 N    3.295 --     6 C    1.246     3 C    1.232     1 Zn   0.460
     8   6 C    3.933 --    18 C    1.325     6 C    1.314     9 C    1.026
     9   6 C    3.988 --    10 C    1.408    17 C    1.388     8 C    1.026
                            15 C    0.102
    10   6 C    3.984 --     9 C    1.408    11 C    1.396    47 H    0.968
                            16 C    0.104
    11   6 C    3.988 --    10 C    1.396    15 C    1.391    12 C    1.005
    12   6 C    3.836 --    14 O    1.692    13 O    1.090    11 C    1.005
    13   8 O    2.098 --    12 C    1.090    48 H    0.838    14 O    0.129
    14   8 O    1.961 --    12 C    1.692    13 O    0.129
    15   6 C    3.987 --    16 C    1.448    11 C    1.391    49 H    0.971
                             9 C    0.102
    16   6 C    3.994 --    15 C    1.448    17 C    1.441    50 H    0.972
                            10 C    0.104
    17   6 C    3.987 --    16 C    1.441     9 C    1.388    51 H    0.973
    18   6 C    3.913 --     8 C    1.325    21 N    1.226    19 C    1.177
    19   6 C    3.960 --    20 C    1.648    18 C    1.177    52 H    0.973
    20   6 C    3.962 --    19 C    1.648    22 C    1.184    53 H    0.974
    21   7 N    3.297 --    22 C    1.263    18 C    1.226     1 Zn   0.455
    22   6 C    3.902 --    21 N    1.263    23 C    1.254    20 C    1.184
    23   6 C    3.940 --    24 C    1.256    22 C    1.254   125 C    1.189
    24   6 C    3.902 --    28 N    1.263    23 C    1.256    25 C    1.184
    25   6 C    3.962 --    26 C    1.648    24 C    1.184    54 H    0.974
    26   6 C    3.960 --    25 C    1.648    27 C    1.177    55 H    0.973
    27   6 C    3.914 --    29 C    1.325    28 N    1.226    26 C    1.177
    28   7 N    3.296 --    24 C    1.263    27 C    1.226     1 Zn   0.454
    29   6 C    3.933 --    27 C    1.325    39 C    1.313    30 C    1.027
    30   6 C    3.988 --    38 C    1.405    31 C    1.389    29 C    1.027
                            33 C    0.102
    31   6 C    3.987 --    32 C    1.439    30 C    1.389    56 H    0.973
    32   6 C    3.994 --    33 C    1.451    31 C    1.439    57 H    0.972
                            38 C    0.104
    33   6 C    3.985 --    32 C    1.451    34 C    1.387    58 H    0.969
                            30 C    0.102
    34   6 C    3.988 --    38 C    1.399    33 C    1.387    35 C    1.006
    35   6 C    3.836 --    37 O    1.692    36 O    1.089    34 C    1.006
    36   8 O    2.098 --    35 C    1.089    59 H    0.838    37 O    0.129
    37   8 O    1.960 --    35 C    1.692    36 O    0.129
    38   6 C    3.985 --    30 C    1.405    34 C    1.399    60 H    0.969
                            32 C    0.104
    39   6 C    3.919 --    29 C    1.313    43 N    1.246    40 C    1.171
    40   6 C    3.963 --    41 C    1.660    39 C    1.171    61 H    0.973
    41   6 C    3.961 --    40 C    1.660    42 C    1.170    62 H    0.975
    42   6 C    3.921 --     2 C    1.358    43 N    1.232    41 C    1.170
    43   7 N    3.295 --    39 C    1.246    42 C    1.232     1 Zn   0.460
    44   1 H    1.001 --     2 C    0.971
    45   1 H    0.998 --     4 C    0.975
    46   1 H    1.004 --     5 C    0.973
    47   1 H    1.007 --    10 C    0.968
    48   1 H    0.873 --    13 O    0.838
    49   1 H    1.005 --    15 C    0.971
    50   1 H    1.002 --    16 C    0.972
    51   1 H    1.005 --    17 C    0.973
    52   1 H    1.004 --    19 C    0.973
    53   1 H    1.002 --    20 C    0.974
    54   1 H    1.002 --    25 C    0.974
    55   1 H    1.004 --    26 C    0.973
    56   1 H    1.005 --    31 C    0.973
    57   1 H    1.002 --    32 C    0.972
    58   1 H    1.005 --    33 C    0.969
    59   1 H    0.873 --    36 O    0.838
    60   1 H    1.008 --    38 C    0.969
    61   1 H    1.004 --    40 C    0.973
    62   1 H    0.998 --    41 C    0.975
    63  30 Zn   1.994 --    69 N    0.461   105 N    0.459    90 N    0.455
                            83 N    0.454
    64   6 C    3.929 --    65 C    1.359   104 C    1.357   106 H    0.971
    65   6 C    3.921 --    64 C    1.359    69 N    1.232    66 C    1.169
    66   6 C    3.961 --    67 C    1.661    65 C    1.169   107 H    0.975
    67   6 C    3.963 --    66 C    1.661    68 C    1.170   108 H    0.973
    68   6 C    3.919 --    70 C    1.314    69 N    1.246    67 C    1.170
    69   7 N    3.296 --    68 C    1.246    65 C    1.232    63 Zn   0.461
    70   6 C    3.933 --    80 C    1.324    68 C    1.314    71 C    1.027
    71   6 C    3.988 --    72 C    1.408    79 C    1.388    70 C    1.027
                            77 C    0.102
    72   6 C    3.984 --    71 C    1.408    73 C    1.396   109 H    0.968
                            78 C    0.104
    73   6 C    3.988 --    72 C    1.396    77 C    1.391    74 C    1.005
    74   6 C    3.836 --    76 O    1.692    75 O    1.089    73 C    1.005
    75   8 O    2.098 --    74 C    1.089   110 H    0.838    76 O    0.129
    76   8 O    1.961 --    74 C    1.692    75 O    0.129
    77   6 C    3.987 --    78 C    1.448    73 C    1.391   111 H    0.971
                            71 C    0.102
    78   6 C    3.994 --    77 C    1.448    79 C    1.441   112 H    0.972
                            72 C    0.104
    79   6 C    3.987 --    78 C    1.441    71 C    1.388   113 H    0.973
    80   6 C    3.914 --    70 C    1.324    83 N    1.227    81 C    1.177
    81   6 C    3.960 --    82 C    1.648    80 C    1.177   114 H    0.973
    82   6 C    3.962 --    81 C    1.648    84 C    1.184   115 H    0.974
    83   7 N    3.296 --    84 C    1.262    80 C    1.227    63 Zn   0.454
    84   6 C    3.902 --    83 N    1.262    85 C    1.257    82 C    1.184
    85   6 C    3.940 --    84 C    1.257    86 C    1.253   140 C    1.188
    86   6 C    3.902 --    90 N    1.263    85 C    1.253    87 C    1.185
    87   6 C    3.962 --    88 C    1.648    86 C    1.185   116 H    0.974
    88   6 C    3.960 --    87 C    1.648    89 C    1.177   117 H    0.973
    89   6 C    3.914 --    91 C    1.325    90 N    1.225    88 C    1.177
    90   7 N    3.297 --    86 C    1.263    89 C    1.225    63 Zn   0.455
    91   6 C    3.933 --    89 C    1.325   101 C    1.313    92 C    1.027
    92   6 C    3.988 --   100 C    1.406    93 C    1.389    91 C    1.027
                            95 C    0.102
    93   6 C    3.987 --    94 C    1.440    92 C    1.389   118 H    0.973
    94   6 C    3.994 --    95 C    1.450    93 C    1.440   119 H    0.972
                           100 C    0.104
    95   6 C    3.985 --    94 C    1.450    96 C    1.387   120 H    0.969
                            92 C    0.102
    96   6 C    3.988 --   100 C    1.399    95 C    1.387    97 C    1.006
    97   6 C    3.836 --    99 O    1.692    98 O    1.089    96 C    1.006
    98   8 O    2.098 --    97 C    1.089   121 H    0.838    99 O    0.129
    99   8 O    1.961 --    97 C    1.692    98 O    0.129
   100   6 C    3.985 --    92 C    1.406    96 C    1.399   122 H    0.969
                            94 C    0.104
   101   6 C    3.919 --    91 C    1.313   105 N    1.246   102 C    1.171
   102   6 C    3.963 --   103 C    1.660   101 C    1.171   123 H    0.973
   103   6 C    3.961 --   102 C    1.660   104 C    1.170   124 H    0.975
   104   6 C    3.921 --    64 C    1.357   105 N    1.233   103 C    1.170
   105   7 N    3.295 --   101 C    1.246   104 C    1.233    63 Zn   0.459
   106   1 H    1.001 --    64 C    0.971
   107   1 H    0.998 --    66 C    0.975
   108   1 H    1.004 --    67 C    0.973
   109   1 H    1.007 --    72 C    0.968
   110   1 H    0.873 --    75 O    0.838
   111   1 H    1.005 --    77 C    0.971
   112   1 H    1.002 --    78 C    0.972
   113   1 H    1.005 --    79 C    0.973
   114   1 H    1.004 --    81 C    0.973
   115   1 H    1.002 --    82 C    0.974
   116   1 H    1.002 --    87 C    0.974
   117   1 H    1.004 --    88 C    0.973
   118   1 H    1.005 --    93 C    0.973
   119   1 H    1.002 --    94 C    0.972
   120   1 H    1.005 --    95 C    0.969
   121   1 H    0.873 --    98 O    0.838
   122   1 H    1.008 --   100 C    0.969
   123   1 H    1.004 --   102 C    0.973
   124   1 H    0.998 --   103 C    0.975
   125   6 C    3.886 --   126 C    2.448    23 C    1.189   128 C    0.189
   126   6 C    3.934 --   125 C    2.448   127 C    1.335
   127   6 C    3.915 --   128 C    2.360   126 C    1.335   130 C    0.188
   128   6 C    3.926 --   127 C    2.360   129 C    1.344   125 C    0.189
   129   6 C    3.962 --   130 C    2.410   128 C    1.344   132 C    0.107
   130   6 C    3.891 --   129 C    2.410   131 C    1.245   127 C    0.188
   131   6 C    3.944 --   132 C    1.476   130 C    1.245   142 C    1.082
   132   6 C    3.059 --   131 C    1.476   182 C    0.814   142 C    0.439
                           129 C    0.107
   133   6 C    3.063 --   134 C    1.476   164 C    0.812   163 C    0.449
                           136 C    0.107
   134   6 C    3.944 --   133 C    1.476   135 C    1.245   163 C    1.082
   135   6 C    3.890 --   136 C    2.410   134 C    1.245   138 C    0.188
   136   6 C    3.963 --   135 C    2.410   137 C    1.344   133 C    0.107
   137   6 C    3.926 --   138 C    2.361   136 C    1.344   140 C    0.189
   138   6 C    3.915 --   137 C    2.361   139 C    1.335   135 C    0.188
   139   6 C    3.934 --   140 C    2.449   138 C    1.335
   140   6 C    3.886 --   139 C    2.449    85 C    1.188   137 C    0.189
   141  30 Zn   1.981 --   168 N    0.454   183 N    0.447   147 N    0.446
                           161 N    0.442
   142   6 C    3.834 --   143 C    1.173   131 C    1.082   182 C    0.940
                           132 C    0.439
   143   6 C    3.902 --   147 N    1.314   144 C    1.226   142 C    1.173
   144   6 C    3.961 --   145 C    1.592   143 C    1.226   184 H    0.976
   145   6 C    3.957 --   144 C    1.592   146 C    1.217   185 H    0.974
   146   6 C    3.936 --   148 C    1.322   145 C    1.217   147 N    1.186
   147   7 N    3.301 --   143 C    1.314   146 C    1.186   141 Zn   0.446
   148   6 C    3.930 --   158 C    1.323   146 C    1.322   149 C    1.026
   149   6 C    3.988 --   150 C    1.409   157 C    1.388   148 C    1.026
                           155 C    0.103
   150   6 C    3.985 --   149 C    1.409   151 C    1.396   186 H    0.968
                           156 C    0.104
   151   6 C    3.988 --   150 C    1.396   155 C    1.391   152 C    1.005
                           157 C    0.100
   152   6 C    3.836 --   154 O    1.692   153 O    1.089   151 C    1.005
   153   8 O    2.098 --   152 C    1.089   187 H    0.838   154 O    0.129
   154   8 O    1.961 --   152 C    1.692   153 O    0.129
   155   6 C    3.988 --   156 C    1.448   151 C    1.391   188 H    0.971
                           149 C    0.103
   156   6 C    3.994 --   155 C    1.448   157 C    1.441   189 H    0.972
                           150 C    0.104
   157   6 C    3.988 --   156 C    1.441   149 C    1.388   190 H    0.972
                           151 C    0.100
   158   6 C    3.935 --   148 C    1.323   159 C    1.220   161 N    1.183
   159   6 C    3.955 --   160 C    1.586   158 C    1.220   191 H    0.974
   160   6 C    3.960 --   159 C    1.586   162 C    1.231   192 H    0.976
   161   7 N    3.299 --   162 C    1.322   158 C    1.183   141 Zn   0.442
   162   6 C    3.901 --   161 N    1.322   160 C    1.231   163 C    1.159
   163   6 C    3.828 --   162 C    1.159   134 C    1.082   164 C    0.939
                           133 C    0.449
   164   6 C    3.941 --   168 N    1.043   165 C    1.020   163 C    0.939
                           133 C    0.812
   165   6 C    3.975 --   166 C    1.780   164 C    1.020   193 H    0.973
   166   6 C    3.978 --   165 C    1.780   167 C    1.113   194 H    0.970
   167   6 C    3.942 --   168 N    1.345   169 C    1.302   166 C    1.113
   168   7 N    3.251 --   167 C    1.345   164 C    1.043   141 Zn   0.454
   169   6 C    3.922 --   167 C    1.302   179 C    1.299   170 C    1.032
   170   6 C    3.988 --   178 C    1.404   171 C    1.386   169 C    1.032
                           173 C    0.101
   171   6 C    3.988 --   172 C    1.441   170 C    1.386   195 H    0.973
   172   6 C    3.994 --   173 C    1.450   171 C    1.441   196 H    0.973
                           178 C    0.102
   173   6 C    3.984 --   172 C    1.450   174 C    1.385   197 H    0.969
                           170 C    0.101
   174   6 C    3.987 --   178 C    1.399   173 C    1.385   175 C    1.008
   175   6 C    3.834 --   177 O    1.690   176 O    1.086   174 C    1.008
   176   8 O    2.096 --   175 C    1.086   198 H    0.839   177 O    0.128
   177   8 O    1.959 --   175 C    1.690   176 O    0.128
   178   6 C    3.986 --   170 C    1.404   174 C    1.399   199 H    0.969
                           172 C    0.102
   179   6 C    3.943 --   183 N    1.349   169 C    1.299   180 C    1.113
   180   6 C    3.978 --   181 C    1.779   179 C    1.113   200 H    0.970
   181   6 C    3.975 --   180 C    1.779   182 C    1.020   201 H    0.973
   182   6 C    3.942 --   183 N    1.043   181 C    1.020   142 C    0.940
                           132 C    0.814
   183   7 N    3.245 --   179 C    1.349   182 C    1.043   141 Zn   0.447
   184   1 H    0.999 --   144 C    0.976
   185   1 H    1.003 --   145 C    0.974
   186   1 H    1.007 --   150 C    0.968
   187   1 H    0.873 --   153 O    0.838
   188   1 H    1.005 --   155 C    0.971
   189   1 H    1.002 --   156 C    0.972
   190   1 H    1.005 --   157 C    0.972
   191   1 H    1.003 --   159 C    0.974
   192   1 H    0.999 --   160 C    0.976
   193   1 H    1.002 --   165 C    0.973
   194   1 H    1.004 --   166 C    0.970
   195   1 H    1.005 --   171 C    0.973
   196   1 H    1.002 --   172 C    0.973
   197   1 H    1.005 --   173 C    0.969
   198   1 H    0.875 --   176 O    0.839
   199   1 H    1.008 --   178 C    0.969
   200   1 H    1.004 --   180 C    0.970
   201   1 H    1.002 --   181 C    0.973
 ---------------------------------------------------------------------------

           -------------------------------------------------
          | TOTAL ENERGY             -376.213051659057 Eh   |
          | GRADIENT NORM               0.000572183448 Eh/α |
          | HOMO-LUMO GAP               1.067664081382 eV   |
           -------------------------------------------------

 * finished run on 2022/07/30 at 10:51:22.452
