   * xtb version 6.5.1 (b24c23e) compiled by 'conda@728c89f4b128' on 2022-07-12
          program call               : xtb Zn_PhCHO_C4_3.xyz --gfn 1 --opt -T 48

   ID    Z sym.   atoms
    1   30 Zn     1, 61, 129
    2    6 C      2-6, 8-13, 15-19, 21-26, 28-33, 35-40, 62-66, 68-73, 75-79,
                  81-86, 88-93, 95-100, 121-128, 130-134, 136-141, 143-147,
                  149-154, 156-161, 163-168
    3    7 N      7, 20, 27, 41, 67, 80, 87, 101, 135, 148, 155, 169
    4    8 O      14, 34, 74, 94, 142, 162
    5    1 H      42-60, 102-120, 170-187
########################################################################
[WARNING] Please study the warnings concerning your input carefully
-1- prog_main_parseArguments: Unknown option '-T' provided
########################################################################

          :  Hamiltonian                  GFN1-xTB          :
 * total energy  :  -329.7793813 Eh     change        0.6153300E-08 Eh
 * total energy  :  -330.7967808 Eh     change       -0.1017400E+01 Eh
 * total energy  :  -331.0140429 Eh     change       -0.2172621E+00 Eh
 * total energy  :  -331.1310353 Eh     change       -0.1169924E+00 Eh
 * total energy  :  -331.1918531 Eh     change       -0.6081781E-01 Eh
 * total energy  :  -331.2203699 Eh     change       -0.2851680E-01 Eh
 * total energy  :  -331.2354161 Eh     change       -0.1504615E-01 Eh
 * total energy  :  -331.2416507 Eh     change       -0.6234585E-02 Eh
 * total energy  :  -331.2486592 Eh     change       -0.7008553E-02 Eh
 * total energy  :  -331.2531147 Eh     change       -0.4455496E-02 Eh
 * total energy  :  -331.2710021 Eh     change       -0.1470380E-04 Eh
 * total energy  :  -331.2710073 Eh     change       -0.5245444E-05 Eh
 * total energy  :  -331.2710231 Eh     change       -0.1576094E-04 Eh
 * total energy  :  -331.2710104 Eh     change        0.1266304E-04 Eh
 * total energy  :  -331.2710346 Eh     change       -0.2415756E-04 Eh
 * total energy  :  -331.2710416 Eh     change       -0.7010278E-05 Eh
 * total energy  :  -331.2710427 Eh     change       -0.1153637E-05 Eh
 * total energy  :  -331.2710487 Eh     change       -0.5987050E-05 Eh
 * total energy  :  -331.2710525 Eh     change       -0.3740679E-05 Eh
   *** GEOMETRY OPTIMIZATION CONVERGED AFTER 46 ITERATIONS ***

 final structure:
================
187
 xtb: 6.5.1 (b24c23e)
Zn          32.00361816292919        0.00965545565774       -0.01516921676266
C           28.59716881153818        0.06804024587495       -0.12988462397723
C           29.23133371587986        1.29442512862357        0.02735832986622
C           28.56091603656935        2.55508326898523        0.18250739709610
C           29.52210885826998        3.49974822162930        0.33470736409248
C           30.79318075301921        2.82824817679660        0.26279197604771
N           30.58120738103016        1.49309602498561        0.08234512352036
C           32.04613194017686        3.44013308522502        0.39545018518787
C           32.06513215878795        4.90979591770268        0.58894099847786
C           32.60031072626069        5.46083410958068        1.75766694224191
C           32.61303524963945        6.82962066371073        1.94262612335783
C           32.09629150422144        7.68136618253485        0.96042976622262
C           32.12206229720938        9.13824566233777        1.18078248302865
O           32.56769096658767        9.65799563518923        2.17193642691254
C           31.56513446428565        7.13284132159351       -0.20959379836178
C           31.54754579519780        5.76143486653143       -0.39123166113400
C           33.28253375486360        2.78483118327848        0.36590974978819
C           34.56519559303671        3.42828067482874        0.44255650640978
C           35.50686175404235        2.45521117193419        0.34877811763940
N           33.46970822455285        1.43695912784592        0.21670856879838
C           34.81054499779140        1.21017737779925        0.20770144479333
C           35.43605871077539       -0.04473854073795        0.06539863460759
C           34.77840749446059       -1.28103653368600       -0.09198297277076
C           35.44196167943578       -2.54152913509466       -0.25203803897361
C           34.47509877812485       -3.48606272583277       -0.37636147168891
C           33.20961320421432       -2.81090246341951       -0.28670280592553
N           33.43199511856221       -1.47017141496770       -0.12233601857216
C           31.95591227252075       -3.42462603189324       -0.39085825339628
C           31.93530874785801       -4.89926450542526       -0.54029851650144
C           31.38041201704177       -5.48764025630436       -1.68052705550743
C           31.36095691697307       -6.86370880826012       -1.82156434240015
C           31.89150242564821       -7.68150044111790       -0.82074592497401
C           31.87844583860767       -9.14993762794759       -0.94447626962862
O           32.31691685237964       -9.89672415343870       -0.10707832671017
C           32.44515345129609       -7.09368561346610        0.32167808409438
C           32.46953603876694       -5.71935424353095        0.45869330784333
C           30.71929182454383       -2.76701559278819       -0.36572674929237
C           29.43070745723985       -3.40521413791955       -0.42951674087595
C           28.49486407335107       -2.42588009917189       -0.36193176437718
C           29.19855411866560       -1.17943431776316       -0.24416816845900
N           30.54276075659789       -1.42003156710530       -0.24501742318122
H           27.51190232236901        0.08478169257090       -0.15144416195646
H           27.49034383076184        2.68727582926258        0.18250036173202
H           29.38645035647655        4.55734082428074        0.49498660748738
H           32.98994650133626        4.80283594617912        2.52628572731935
H           33.02014629101808        7.26381555641919        2.84952011384314
H           31.69093800104375        9.73315422922447        0.34733183486037
H           31.16676089453027        7.78653382355445       -0.97888823804349
H           31.14646355267283        5.33982185049019       -1.30616807976580
H           34.72406147662211        4.49012496346915        0.53982140796721
H           36.57955593376971        2.56414567560221        0.36687999502251
H           36.51149111426758       -2.67795540304510       -0.27139136480056
H           34.60608662666659       -4.54501327599470       -0.53016080494789
H           30.97958754553325       -4.85558996276430       -2.46505096833911
H           30.93359035654386       -7.31107377274249       -2.71315968721454
H           31.42355298459638       -9.52395431769071       -1.88661120027647
H           32.85164131815305       -7.73625857373108        1.09533065104850
H           32.88788852426885       -5.26757899019763        1.35110941082556
H           29.26689286841207       -4.46843114873994       -0.50242002509316
H           27.42110943973814       -2.52744116335863       -0.38028794051443
Zn          58.95557620500780       -0.03296412877658       -0.05725303740591
C           62.36389448215411       -0.07504981996998       -0.11579242572591
C           61.73001079128074       -1.31119869716769       -0.14870358042607
C           62.40051294332874       -2.58130780237529       -0.16151906505566
C           61.43897453294320       -3.53780314506530       -0.16474635233718
C           60.16786255943278       -2.86256104058422       -0.16693980056738
N           60.37986511357995       -1.51533291383184       -0.15043352413291
C           58.91388709701523       -3.48614268068686       -0.15239549540459
C           58.89296094524568       -4.96847991612555       -0.16186967953935
C           58.33216911339372       -5.67038352011143        0.91004944783159
C           58.31635164218511       -7.05149970104465        0.90927260222954
C           58.85516281033407       -7.76465084919571       -0.16699822401445
C           58.82411291677496       -9.23777895557027       -0.14565469235806
O           58.35707027931269       -9.88494264433124        0.75676882663333
C           59.41197126447337       -7.06506018633164       -1.24054563339635
C           59.43301490231791       -5.68166387837941       -1.23578311659060
C           57.67662127249372       -2.83251213079338       -0.12080560417853
C           56.39476635391891       -3.47995770896186       -0.17324337271670
C           55.45232220956109       -2.50347901542105       -0.14636751401649
N           57.48862486157325       -1.47742878451335       -0.07500826427234
C           56.14755375757147       -1.25150407851612       -0.08224799802436
C           55.52146865283318        0.01018691604745       -0.03505294482609
C           56.17896968833082        1.25536846045549        0.01768134792073
C           55.51559395136600        2.52584130643049        0.04480123356495
C           56.48248728997119        3.47781757751574        0.07964279739182
C           57.74777297435741        2.79631692992154        0.08125296520841
N           57.52541029525140        1.44634084798814        0.03556897913553
C           59.00172454508724        3.41813441232520        0.08678996913037
C           59.02206733833143        4.89878935897723        0.15765778459692
C           59.58593813852579        5.64845201383738       -0.87876934601185
C           59.60480694877618        7.03029052685991       -0.81562392081386
C           59.06515225951843        7.69177174241601        0.29029777162589
C           59.07759695493800        9.16250153254487        0.38400869121427
O           58.63358579501528        9.77797803165369        1.31944681523724
C           58.50298894248286        6.94225877377272        1.32920899572125
C           58.47876242638046        5.56268869160807        1.26207584795735
C           60.23911567881309        2.76402738515904        0.03086074043189
C           61.52703857756376        3.40476190914272        0.08120473545452
C           62.46400192811178        2.42615306296610        0.01901098850262
C           61.76149026586523        1.17585402793956       -0.05838118728041
N           60.41689802337100        1.41397687500865       -0.04563987936151
H           63.44941262296551       -0.08862121829125       -0.11965740290705
H           63.47122218888042       -2.71239948812323       -0.15865029385913
H           61.57414306414783       -4.60748827532753       -0.15426693695951
H           57.92462438220240       -5.12050463524320        1.75095248690553
H           57.88953966811629       -7.60263641828629        1.74042501632958
H           59.27340904378613       -9.71646482305191       -1.04181851491445
H           59.82750496709940       -7.61044662938733       -2.08181706436328
H           59.85416617979500       -5.14191257725569       -2.07664657737364
H           56.23758604198714       -4.54455033448329       -0.23801645731700
H           54.37990225660343       -2.61361069520687       -0.17199732215227
H           54.44619888182436        2.66406578392545        0.03186282682748
H           56.35196844518638        4.54789608514112        0.08867282701306
H           59.99433788421516        5.13859155276133       -1.74415420710529
H           60.03893189014536        7.60404154445617       -1.62807563675456
H           59.53804278584057        9.67095871653105       -0.49006665479285
H           58.08959687859509        7.46399235166723        2.18569644319311
H           58.05337072428861        4.98442605128902        2.07458607223818
H           61.68930929724027        4.46721280057885        0.16758400471170
H           63.53767355091873        2.52933475754621        0.03275462550511
C           38.06378203213752       -0.06751228762019        0.06687007286041
C           36.84164608822953       -0.06109420161037        0.06950305072772
C           39.41298664597080       -0.06755097979612        0.05754758626360
C           40.63516874147286       -0.06178546846142        0.04645563169264
C           51.54413294765789        0.03095377981473       -0.05699072584985
C           50.32194727636906        0.02330496268566       -0.05648937681253
C           52.89359776337336        0.03096924912182       -0.05533043741556
C           54.11565287334976        0.02564210140599       -0.04564596967761
Zn          45.47876654535986       -0.01890556576576       -0.00720279026025
C           42.04014818074950       -0.05059082042874        0.03268600409256
C           42.67637360572409        1.16237605621647        0.36534686312644
C           41.99122738545486        2.37906098800298        0.68698058208296
C           42.94171051989517        3.30816577122715        0.96415313827506
C           44.21712208483967        2.66345879317658        0.82104079580532
N           44.01911610525413        1.36231282010452        0.44518317422129
C           45.46012541843315        3.27863113941978        1.00977411218113
C           45.44984698558415        4.68871438046509        1.46840501514510
C           46.00990217475674        5.69907894820971        0.68075142033819
C           45.99816705655680        7.01036743557788        1.11568125741937
C           45.43188852023658        7.34168474532196        2.35118472973623
C           45.43612974479398        8.74723134503391        2.79534478254329
O           45.90087472744406        9.65183377720688        2.15001813787622
C           44.87322068368297        6.33302836547671        3.13995242721607
C           44.87958366414668        5.02133163687528        2.70063054440179
C           46.71030293663270        2.68135516189561        0.81277775436957
C           47.97935429906713        3.31008485838234        1.05214061415372
C           48.93960287267403        2.39807993036655        0.75344857793811
N           46.92222540119427        1.39674377843399        0.38950131766731
C           48.26717859322632        1.20180577811386        0.34073134581377
C           48.91662386336628        0.01266637218680       -0.04712818367114
C           48.28020624235116       -1.18832087248393       -0.42037032377801
C           48.96441977766222       -2.37329775741920       -0.84586509155873
C           48.01425746166048       -3.30482717667540       -1.11587299808893
C           46.74010404739224       -2.69909510469642       -0.84678068227840
N           46.93836101128328       -1.40867909151895       -0.43492676904400
C           45.49699102378264       -3.32152927976121       -1.00802367256652
C           45.50182205173655       -4.73662834327632       -1.45109660905177
C           46.09713514272121       -5.72567171892245       -0.66311074204475
C           46.09744888588710       -7.04604191560366       -1.07657967919614
C           45.50775186518945       -7.40341736875317       -2.29162659320997
C           45.49840153821648       -8.80175439194113       -2.75755019675888
O           45.00916235994675       -9.15668187799655       -3.79959096048175
C           44.91465741569676       -6.41342153138764       -3.08236347141303
C           44.90877024888204       -5.09657725798911       -2.66539101779605
C           44.24744986415136       -2.72793316350615       -0.79531960823666
C           42.98074589923881       -3.39552153514236       -0.90887116000868
C           42.02015055440067       -2.48186856677296       -0.61609168059761
C           42.69047244290537       -1.25230051660421       -0.31259475062080
N           44.03456604040539       -1.42885923121725       -0.42018804941214
H           40.91988789635307        2.50169730318222        0.69161038943371
H           42.79345409259430        4.34284489001097        1.22815807724698
H           46.43887920510647        5.44765467793956       -0.28268633398346
H           46.42535773979915        7.80081614313226        0.50794897208367
H           44.97032137773073        8.91213009050502        3.79037029786632
H           44.43464774670804        6.58051277584218        4.10123419844613
H           44.45598014067431        4.23866540458645        3.32000813124263
H           48.11756518151957        4.31610263543476        1.41397422100226
H           50.00987548223058        2.51548130877086        0.81284108155775
H           50.03484459029819       -2.47048051592452       -0.93301339067179
H           48.16201170380128       -4.30966212277982       -1.47741167364388
H           46.54505783844149       -5.45349585621804        0.28607365921445
H           46.55601772147608       -7.80836490426298       -0.45503317883671
H           45.98536525566768       -9.51777385647210       -2.06171641163634
H           44.46239928086210       -6.69924087398516       -4.02601493810515
H           44.45836849059199       -4.32975685251076       -3.28559788990602
H           42.84494787965648       -4.43353511910055       -1.16622335299934
H           40.95121042096093       -2.62282668715995       -0.59857139572900

          :  Hamiltonian                  GFN1-xTB          :
         :: total energy            -331.271052453469 Eh    ::
         :: gradient norm              0.000444128216 Eh/a0 ::
         :: HOMO-LUMO gap              0.940477073384 eV    ::
         :: SCC energy              -336.470946557688 Eh    ::
         :: repulsion energy           5.368521415894 Eh    ::

    * Orbital Energies and Occupations

         #    Occupation            Energy/Eh            Energy/eV
      -------------------------------------------------------------
         1        2.0000           -0.7911130             -21.5273
       ...           ...                  ...                  ...
       287        2.0000           -0.4332204             -11.7885
       288        2.0000           -0.4330295             -11.7833
       289        2.0000           -0.4330023             -11.7826
       290        2.0000           -0.4325325             -11.7698
       291        2.0000           -0.4314871             -11.7414
       292        2.0000           -0.4313083             -11.7365
       293        2.0000           -0.4273821             -11.6297
       294        2.0000           -0.4063982             -11.0587
       295        2.0000           -0.4056809             -11.0391
       296        2.0000           -0.4056649             -11.0387
       297        2.0000           -0.4028836             -10.9630
       298        2.0000           -0.3952077             -10.7541
       299        2.0000           -0.3865597             -10.5188 (HOMO)
       300                         -0.3519978              -9.5783 (LUMO)
       301                         -0.3421469              -9.3103
       302                         -0.3420764              -9.3084
       303                         -0.3419146              -9.3040
       304                         -0.3418817              -9.3031
       305                         -0.3335309              -9.0758
       306                         -0.3266213              -8.8878
       307                         -0.3258976              -8.8681
       308                         -0.3255342              -8.8582
       309                         -0.3208176              -8.7299
       310                         -0.3207465              -8.7280
       ...                                ...                  ...
       636                          1.5089833              41.0615
      -------------------------------------------------------------
                  HL-Gap            0.0345619 Eh            0.9405 eV

Wiberg/Mayer (AO) data.
largest (>0.10) Wiberg bond orders for each atom

     #   Z sym  total        # sym  WBO       # sym  WBO       # sym  WBO
 ---------------------------------------------------------------------------
     1  30 Zn   1.993 --    41 N    0.459     7 N    0.459    20 N    0.455
                            27 N    0.455
     2   6 C    3.928 --    40 C    1.358     3 C    1.358    42 H    0.971
     3   6 C    3.920 --     2 C    1.358     7 N    1.232     4 C    1.170
     4   6 C    3.960 --     5 C    1.660     3 C    1.170    43 H    0.975
     5   6 C    3.963 --     4 C    1.660     6 C    1.171    44 H    0.973
     6   6 C    3.918 --     8 C    1.311     7 N    1.246     5 C    1.171
     7   7 N    3.293 --     6 C    1.246     3 C    1.232     1 Zn   0.459
     8   6 C    3.931 --    17 C    1.320     6 C    1.311     9 C    1.033
     9   6 C    3.985 --    16 C    1.383    10 C    1.379     8 C    1.033
    10   6 C    3.987 --    11 C    1.472     9 C    1.379    45 H    0.972
    11   6 C    3.988 --    10 C    1.472    12 C    1.369    46 H    0.968
    12   6 C    3.983 --    15 C    1.377    11 C    1.369    13 C    1.051
    13   6 C    3.864 --    14 O    1.806    12 C    1.051    47 H    0.942
    14   8 O    2.002 --    13 C    1.806
    15   6 C    3.993 --    16 C    1.466    12 C    1.377    48 H    0.971
    16   6 C    3.987 --    15 C    1.466     9 C    1.383    49 H    0.972
    17   6 C    3.912 --     8 C    1.320    20 N    1.227    18 C    1.178
    18   6 C    3.959 --    19 C    1.647    17 C    1.178    50 H    0.973
    19   6 C    3.962 --    18 C    1.647    21 C    1.186    51 H    0.974
    20   7 N    3.296 --    21 C    1.262    17 C    1.227     1 Zn   0.455
    21   6 C    3.901 --    20 N    1.262    22 C    1.254    19 C    1.186
    22   6 C    3.938 --    23 C    1.255    21 C    1.254   122 C    1.190
    23   6 C    3.901 --    27 N    1.262    22 C    1.255    24 C    1.185
    24   6 C    3.962 --    25 C    1.647    23 C    1.185    52 H    0.974
    25   6 C    3.959 --    24 C    1.647    26 C    1.178    53 H    0.973
    26   6 C    3.912 --    28 C    1.320    27 N    1.227    25 C    1.178
    27   7 N    3.296 --    23 C    1.262    26 C    1.227     1 Zn   0.455
    28   6 C    3.931 --    26 C    1.320    37 C    1.311    29 C    1.034
    29   6 C    3.985 --    30 C    1.382    36 C    1.379    28 C    1.034
    30   6 C    3.987 --    31 C    1.466    29 C    1.382    54 H    0.972
    31   6 C    3.993 --    30 C    1.466    32 C    1.377    55 H    0.971
    32   6 C    3.983 --    31 C    1.377    35 C    1.369    33 C    1.051
    33   6 C    3.864 --    34 O    1.806    32 C    1.051    56 H    0.942
    34   8 O    2.002 --    33 C    1.806
    35   6 C    3.988 --    36 C    1.472    32 C    1.369    57 H    0.968
    36   6 C    3.987 --    35 C    1.472    29 C    1.379    58 H    0.972
    37   6 C    3.918 --    28 C    1.311    41 N    1.246    38 C    1.171
    38   6 C    3.963 --    39 C    1.660    37 C    1.171    59 H    0.973
    39   6 C    3.960 --    38 C    1.660    40 C    1.170    60 H    0.975
    40   6 C    3.920 --     2 C    1.358    41 N    1.232    39 C    1.170
    41   7 N    3.293 --    37 C    1.246    40 C    1.232     1 Zn   0.459
    42   1 H    1.001 --     2 C    0.971
    43   1 H    0.998 --     4 C    0.975
    44   1 H    1.004 --     5 C    0.973
    45   1 H    1.004 --    10 C    0.972
    46   1 H    1.005 --    11 C    0.968
    47   1 H    1.010 --    13 C    0.942
    48   1 H    1.000 --    15 C    0.971
    49   1 H    1.004 --    16 C    0.972
    50   1 H    1.004 --    18 C    0.973
    51   1 H    1.002 --    19 C    0.974
    52   1 H    1.002 --    24 C    0.974
    53   1 H    1.004 --    25 C    0.973
    54   1 H    1.004 --    30 C    0.972
    55   1 H    1.000 --    31 C    0.971
    56   1 H    1.010 --    33 C    0.942
    57   1 H    1.005 --    35 C    0.968
    58   1 H    1.004 --    36 C    0.972
    59   1 H    1.004 --    38 C    0.973
    60   1 H    0.998 --    39 C    0.975
    61  30 Zn   1.993 --   101 N    0.459    67 N    0.458    80 N    0.455
                            87 N    0.455
    62   6 C    3.928 --   100 C    1.358    63 C    1.358   102 H    0.971
    63   6 C    3.920 --    62 C    1.358    67 N    1.233    64 C    1.170
    64   6 C    3.960 --    65 C    1.660    63 C    1.170   103 H    0.975
    65   6 C    3.963 --    64 C    1.660    66 C    1.171   104 H    0.973
    66   6 C    3.918 --    68 C    1.312    67 N    1.246    65 C    1.171
    67   7 N    3.293 --    66 C    1.246    63 C    1.233    61 Zn   0.458
    68   6 C    3.931 --    77 C    1.320    66 C    1.312    69 C    1.033
    69   6 C    3.985 --    76 C    1.383    70 C    1.379    68 C    1.033
    70   6 C    3.987 --    71 C    1.472    69 C    1.379   105 H    0.972
    71   6 C    3.988 --    70 C    1.472    72 C    1.368   106 H    0.968
    72   6 C    3.983 --    75 C    1.378    71 C    1.368    73 C    1.051
    73   6 C    3.864 --    74 O    1.806    72 C    1.051   107 H    0.942
    74   8 O    2.002 --    73 C    1.806
    75   6 C    3.993 --    76 C    1.466    72 C    1.378   108 H    0.971
    76   6 C    3.987 --    75 C    1.466    69 C    1.383   109 H    0.972
    77   6 C    3.912 --    68 C    1.320    80 N    1.228    78 C    1.178
    78   6 C    3.959 --    79 C    1.647    77 C    1.178   110 H    0.973
    79   6 C    3.962 --    78 C    1.647    81 C    1.186   111 H    0.974
    80   7 N    3.296 --    81 C    1.262    77 C    1.228    61 Zn   0.455
    81   6 C    3.901 --    80 N    1.262    82 C    1.255    79 C    1.186
    82   6 C    3.938 --    83 C    1.256    81 C    1.255   128 C    1.189
    83   6 C    3.901 --    87 N    1.262    82 C    1.256    84 C    1.185
    84   6 C    3.962 --    85 C    1.647    83 C    1.185   112 H    0.974
    85   6 C    3.959 --    84 C    1.647    86 C    1.178   113 H    0.973
    86   6 C    3.912 --    88 C    1.321    87 N    1.227    85 C    1.178
    87   7 N    3.296 --    83 C    1.262    86 C    1.227    61 Zn   0.455
    88   6 C    3.931 --    86 C    1.321    97 C    1.311    89 C    1.033
    89   6 C    3.985 --    90 C    1.382    96 C    1.380    88 C    1.033
    90   6 C    3.987 --    91 C    1.466    89 C    1.382   114 H    0.972
    91   6 C    3.993 --    90 C    1.466    92 C    1.377   115 H    0.971
    92   6 C    3.983 --    91 C    1.377    95 C    1.369    93 C    1.050
    93   6 C    3.864 --    94 O    1.807    92 C    1.050   116 H    0.942
    94   8 O    2.003 --    93 C    1.807
    95   6 C    3.988 --    96 C    1.472    92 C    1.369   117 H    0.968
    96   6 C    3.987 --    95 C    1.472    89 C    1.380   118 H    0.972
    97   6 C    3.918 --    88 C    1.311   101 N    1.246    98 C    1.171
    98   6 C    3.963 --    99 C    1.660    97 C    1.171   119 H    0.973
    99   6 C    3.960 --    98 C    1.660   100 C    1.170   120 H    0.975
   100   6 C    3.920 --    62 C    1.358   101 N    1.232    99 C    1.170
   101   7 N    3.293 --    97 C    1.246   100 C    1.232    61 Zn   0.459
   102   1 H    1.001 --    62 C    0.971
   103   1 H    0.998 --    64 C    0.975
   104   1 H    1.004 --    65 C    0.973
   105   1 H    1.004 --    70 C    0.972
   106   1 H    1.005 --    71 C    0.968
   107   1 H    1.010 --    73 C    0.942
   108   1 H    1.000 --    75 C    0.971
   109   1 H    1.004 --    76 C    0.972
   110   1 H    1.004 --    78 C    0.973
   111   1 H    1.002 --    79 C    0.974
   112   1 H    1.002 --    84 C    0.974
   113   1 H    1.004 --    85 C    0.973
   114   1 H    1.004 --    90 C    0.972
   115   1 H    1.000 --    91 C    0.971
   116   1 H    1.010 --    93 C    0.942
   117   1 H    1.005 --    95 C    0.968
   118   1 H    1.004 --    96 C    0.972
   119   1 H    1.004 --    98 C    0.973
   120   1 H    0.998 --    99 C    0.975
   121   6 C    3.934 --   122 C    2.474   123 C    1.310
   122   6 C    3.924 --   121 C    2.474    22 C    1.190   124 C    0.199
   123   6 C    3.932 --   124 C    2.473   121 C    1.310
   124   6 C    3.925 --   123 C    2.473   130 C    1.192   122 C    0.199
   125   6 C    3.931 --   126 C    2.473   127 C    1.309
   126   6 C    3.925 --   125 C    2.473   150 C    1.191   128 C    0.199
   127   6 C    3.934 --   128 C    2.475   125 C    1.309
   128   6 C    3.924 --   127 C    2.475    82 C    1.189   126 C    0.199
   129  30 Zn   1.991 --   148 N    0.456   169 N    0.456   155 N    0.455
                           135 N    0.455
   130   6 C    3.927 --   168 C    1.253   131 C    1.252   124 C    1.192
   131   6 C    3.902 --   135 N    1.262   130 C    1.252   132 C    1.188
   132   6 C    3.960 --   133 C    1.643   131 C    1.188   170 H    0.974
   133   6 C    3.960 --   132 C    1.643   134 C    1.181   171 H    0.973
   134   6 C    3.910 --   136 C    1.316   135 N    1.227   133 C    1.181
   135   7 N    3.291 --   131 C    1.262   134 C    1.227   129 Zn   0.455
   136   6 C    3.927 --   145 C    1.318   134 C    1.316   137 C    1.032
   137   6 C    3.985 --   144 C    1.382   138 C    1.381   136 C    1.032
   138   6 C    3.987 --   139 C    1.471   137 C    1.381   172 H    0.972
   139   6 C    3.988 --   138 C    1.471   140 C    1.370   173 H    0.968
                           144 C    0.100
   140   6 C    3.983 --   143 C    1.378   139 C    1.370   141 C    1.050
   141   6 C    3.864 --   142 O    1.807   140 C    1.050   174 H    0.942
   142   8 O    2.003 --   141 C    1.807
   143   6 C    3.993 --   144 C    1.466   140 C    1.378   175 H    0.971
   144   6 C    3.987 --   143 C    1.466   137 C    1.382   176 H    0.972
                           139 C    0.100
   145   6 C    3.910 --   136 C    1.318   148 N    1.226   146 C    1.180
   146   6 C    3.960 --   147 C    1.644   145 C    1.180   177 H    0.973
   147   6 C    3.960 --   146 C    1.644   149 C    1.187   178 H    0.974
   148   7 N    3.291 --   149 C    1.262   145 C    1.226   129 Zn   0.456
   149   6 C    3.902 --   148 N    1.262   150 C    1.253   147 C    1.187
   150   6 C    3.927 --   149 C    1.253   151 C    1.253   126 C    1.191
   151   6 C    3.902 --   155 N    1.262   150 C    1.253   152 C    1.188
   152   6 C    3.960 --   153 C    1.643   151 C    1.188   179 H    0.974
   153   6 C    3.960 --   152 C    1.643   154 C    1.181   180 H    0.973
   154   6 C    3.910 --   156 C    1.317   155 N    1.226   153 C    1.181
   155   7 N    3.291 --   151 C    1.262   154 C    1.226   129 Zn   0.455
   156   6 C    3.927 --   154 C    1.317   165 C    1.317   157 C    1.032
   157   6 C    3.985 --   158 C    1.383   164 C    1.380   156 C    1.032
   158   6 C    3.987 --   159 C    1.466   157 C    1.383   181 H    0.972
                           163 C    0.100
   159   6 C    3.993 --   158 C    1.466   160 C    1.378   182 H    0.971
   160   6 C    3.983 --   159 C    1.378   163 C    1.369   161 C    1.050
   161   6 C    3.864 --   162 O    1.807   160 C    1.050   183 H    0.942
   162   8 O    2.002 --   161 C    1.807
   163   6 C    3.988 --   164 C    1.472   160 C    1.369   184 H    0.968
                           158 C    0.100
   164   6 C    3.987 --   163 C    1.472   157 C    1.380   185 H    0.972
   165   6 C    3.910 --   156 C    1.317   169 N    1.226   166 C    1.181
   166   6 C    3.960 --   167 C    1.644   165 C    1.181   186 H    0.973
   167   6 C    3.960 --   166 C    1.644   168 C    1.187   187 H    0.974
   168   6 C    3.902 --   169 N    1.262   130 C    1.253   167 C    1.187
   169   7 N    3.291 --   168 C    1.262   165 C    1.226   129 Zn   0.456
   170   1 H    1.002 --   132 C    0.974
   171   1 H    1.004 --   133 C    0.973
   172   1 H    1.004 --   138 C    0.972
   173   1 H    1.005 --   139 C    0.968
   174   1 H    1.010 --   141 C    0.942
   175   1 H    1.000 --   143 C    0.971
   176   1 H    1.004 --   144 C    0.972
   177   1 H    1.004 --   146 C    0.973
   178   1 H    1.002 --   147 C    0.974
   179   1 H    1.002 --   152 C    0.974
   180   1 H    1.004 --   153 C    0.973
   181   1 H    1.004 --   158 C    0.972
   182   1 H    1.000 --   159 C    0.971
   183   1 H    1.010 --   161 C    0.942
   184   1 H    1.005 --   163 C    0.968
   185   1 H    1.004 --   164 C    0.972
   186   1 H    1.004 --   166 C    0.973
   187   1 H    1.002 --   167 C    0.974
 ---------------------------------------------------------------------------

           -------------------------------------------------
          | TOTAL ENERGY             -331.271052453469 Eh   |
          | GRADIENT NORM               0.000444128216 Eh/α |
          | HOMO-LUMO GAP               0.940477073384 eV   |
           -------------------------------------------------

 * finished run on 2022/07/30 at 09:06:41.473
