   * xtb version 6.5.1 (b24c23e) compiled by 'conda@728c89f4b128' on 2022-07-12
          program call               : xtb Zn_Ph3OH_C4_2.xyz --gfn 1 --opt -T 48

   ID    Z sym.   atoms
    1   30 Zn     1, 63
    2    6 C      2-6, 8-11, 13, 15, 17-20, 22-27, 29-32, 34, 36, 38-42,
                  64-68, 70-73, 75, 77, 79-82, 84-89, 91-94, 96, 98, 100-104,
                  125-128
    3    7 N      7, 21, 28, 43, 69, 83, 90, 105
    4    8 O      12, 14, 16, 33, 35, 37, 74, 76, 78, 95, 97, 99
    5    1 H      44-62, 106-124
########################################################################
[WARNING] Please study the warnings concerning your input carefully
-1- prog_main_parseArguments: Unknown option '-T' provided
########################################################################

          :  Hamiltonian                  GFN1-xTB          :
 * total energy  :  -247.0588284 Eh     change        0.3992113E-09 Eh
 * total energy  :  -247.5240928 Eh     change       -0.4652644E+00 Eh
 * total energy  :  -247.6270550 Eh     change       -0.1029623E+00 Eh
 * total energy  :  -247.6786248 Eh     change       -0.5156977E-01 Eh
 * total energy  :  -247.6969174 Eh     change       -0.1829263E-01 Eh
 * total energy  :  -247.7054762 Eh     change       -0.8558753E-02 Eh
 * total energy  :  -247.7090783 Eh     change       -0.3602136E-02 Eh
 * total energy  :  -247.7107200 Eh     change       -0.1641644E-02 Eh
 * total energy  :  -247.7121461 Eh     change       -0.1426187E-02 Eh
 * total energy  :  -247.7129932 Eh     change       -0.8470576E-03 Eh
 * total energy  :  -247.7184575 Eh     change       -0.2049985E-04 Eh
 * total energy  :  -247.7184652 Eh     change       -0.7701037E-05 Eh
 * total energy  :  -247.7184740 Eh     change       -0.8842091E-05 Eh
 * total energy  :  -247.7184834 Eh     change       -0.9328615E-05 Eh
 * total energy  :  -247.7184940 Eh     change       -0.1064459E-04 Eh
 * total energy  :  -247.7185090 Eh     change       -0.1502421E-04 Eh
 * total energy  :  -247.7185252 Eh     change       -0.1613773E-04 Eh
 * total energy  :  -247.7185344 Eh     change       -0.9241885E-05 Eh
 * total energy  :  -247.7185392 Eh     change       -0.4766338E-05 Eh
   *** GEOMETRY OPTIMIZATION CONVERGED AFTER 53 ITERATIONS ***

 final structure:
================
128
 xtb: 6.5.1 (b24c23e)
Zn          15.97905442846639        0.06276018765350       -0.00717196918817
C           12.57379157343003        0.10006408117657       -0.17773784366949
C           13.20453735166920        1.33699077827438       -0.11860184853260
C           12.53035976684874        2.60468762877040       -0.08779231875613
C           13.48812860101278        3.56208940162598       -0.01205356927824
C           14.76138377024426        2.89117808018787       -0.00552387635016
N           14.55318034129854        1.54376718205606       -0.06359812219639
C           16.01083006119828        3.51791832978722        0.07821063865230
C           16.02364669758938        5.00298532516347        0.11776032429230
C           15.51686040447851        5.73750249723691       -0.95458329116706
C           15.53039923573345        7.12688675603105       -0.91736325751719
O           15.04619638789749        7.85010590701193       -1.95723112003633
C           16.04650881811510        7.78763285335735        0.19837638942582
O           16.04388232794757        9.15848143981141        0.20891504317393
C           16.55026373718898        7.05467810927434        1.26971186947606
O           17.03689614567925        7.77267956649265        2.33114216780574
C           16.54375160080835        5.66585834633930        1.23276419212664
C           17.24822655545937        2.86587607831389        0.12694263841346
C           18.52931894307221        3.51587164148808        0.15704016391208
C           19.47346615578935        2.54042565517105        0.17949642396762
N           17.43974038165336        1.50975739076320        0.12053106964996
C           18.78070612449793        1.28608092309867        0.15527143090959
C           19.40957675796630        0.02461041011118        0.15025173074698
C           18.75513657904879       -1.22242354820797        0.09624651180628
C           19.42204393857177       -2.49104834365276        0.06888369277454
C           18.45843535026684       -3.44490463753532        0.00404970224984
C           17.19126352403306       -2.76753425860352       -0.00280713839332
N           17.40998936850411       -1.41639256663102        0.04827309788702
C           15.94214809465676       -3.39176076743228       -0.08437310857267
C           15.92807811074884       -4.87772726871787       -0.11442355664780
C           16.39897586979632       -5.60428779011629        0.97915455253928
C           16.38374201673107       -6.99387927400245        0.95195774866355
O           16.83030980213323       -7.71045674812912        2.01307169282986
C           15.90594983238261       -7.66191443894543       -0.17648831970558
O           15.90863793041872       -9.03294982720479       -0.17749382769401
C           15.44037180861290       -6.93635895250181       -1.26972660492457
O           14.99209993968622       -7.66138312654519       -2.34347269426333
C           15.44412744415558       -5.54718130505232       -1.24122722236125
C           14.70526540195540       -2.73846564907905       -0.14092623082368
C           13.41987740198080       -3.38398765760041       -0.18275988655854
C           12.48042462356269       -2.40560727805709       -0.21145835435626
C           13.17887005300584       -1.15118997867555       -0.17940693989335
N           14.52300519503815       -1.38627157050514       -0.13461213311218
H           11.48885202150318        0.11238822078748       -0.21640091768701
H           11.45957436706714        2.73346991162081       -0.11418372155709
H           13.34874588896109        4.62970533386579        0.04538117487066
H           15.12769129581558        5.23567656548678       -1.83110126191152
H           15.14435186775016        8.79265706730939       -1.74367536968625
H           16.43552136919416        9.45040802003254        1.04744613281602
H           17.37011194662787        7.18316493071868        3.02025595121430
H           16.92455486070028        5.10218765362994        2.07645866253650
H           18.68641710124932        4.58250842952048        0.14676904708910
H           20.54577217325492        2.65328860306396        0.20259652906305
H           20.49172160631679       -2.62663158306074        0.09078770210031
H           18.59191862490836       -4.51354704734800       -0.04624032113807
H           16.76246067272896       -5.09567094990273        1.86275873687146
H           16.73887466932333       -8.65431067343412        1.80228095511799
H           15.54877470901997       -9.33073062128417       -1.02807228315684
H           14.69760219205613       -7.07597643081094       -3.05335385439008
H           15.09046872672763       -4.98871871207559       -2.10008838691113
H           13.26107054048654       -4.45065350511188       -0.17816546879360
H           11.40733060656449       -2.51247144573742       -0.24374675871736
Zn          29.44293355945384       -0.06154746249300       -0.00576500365426
C           32.84557511775454       -0.07246921979511       -0.21839328780631
C           32.21699003174974       -1.30993886656067       -0.28769846320976
C           32.89305317814541       -2.57185689665040       -0.40134782518538
C           31.93726387118077       -3.53401434438996       -0.42132508706632
C           30.66319218594646       -2.87067077588942       -0.33108439274625
N           30.86920986197370       -1.52454972813854       -0.24273635069892
C           29.41487045061834       -3.50505765820187       -0.31042401174535
C           29.40250715282346       -4.98474893121255       -0.44014010213098
C           29.91273271919895       -5.59254952799406       -1.58763909403238
C           29.89735740262990       -6.97698286906445       -1.71004620620988
O           30.38495575715061       -7.57695964377414       -2.82408104144546
C           29.37511583602043       -7.76045143350059       -0.67988690196302
O           29.37473722751893       -9.12337667498644       -0.82721446916618
C           28.86802569010361       -7.15430266918868        0.46649798616788
O           28.37494164341985       -7.98838113865313        1.43607931185171
C           28.87726211452623       -5.77049145320370        0.58948698840066
C           28.17719206854578       -2.86401239068471       -0.18243785089534
C           26.89646969370493       -3.51415587307433       -0.22416549857860
C           25.95185087764037       -2.54859604964000       -0.08713442785066
N           27.98488976618714       -1.51637732972802       -0.03177286089480
C           26.64386213679992       -1.29930033410769        0.03168547768452
C           26.01401898081728       -0.04640108235880        0.17387261301099
C           26.66719199692049        1.19900623226580        0.26669234257599
C           25.99893988784531        2.46073551511508        0.39398258046936
C           26.96108271743207        3.41744923260484        0.43343754246053
C           28.22886529541093        2.74809215829550        0.33653849621935
N           28.01180290248598        1.39968141490650        0.23245235276473
C           29.47663497685539        3.38022048437752        0.31183311745513
C           29.49035204911502        4.85989631597550        0.44864536191562
C           29.02042862529943        5.46049685999192        1.61663923715640
C           29.03612463685470        6.84449591689205        1.74438441004853
O           28.58954823469897        7.43850090484829        2.87863701391687
C           29.51505486039073        7.63399949335199        0.69785179462272
O           29.51418458841144        8.99653525581879        0.85001553223413
C           29.98029121932028        7.03454138743422       -0.46949933303196
O           30.43022590175532        7.87440539905401       -1.45522514328552
C           29.97423665813544        5.65100678596696       -0.59663021945947
C           30.71306107947728        2.73970336849706        0.16499852951974
C           31.99768655905158        3.38804100885115        0.17974920672053
C           32.93696323455463        2.42108567187556        0.02690785628662
C           32.23946864136666        1.16986677742348       -0.07369849216114
N           30.89594429398400        1.39587271001106        0.01525664978295
H           33.92995664064208       -0.07780809066085       -0.27156633272076
H           33.96371662293367       -2.69452074066600       -0.45120402237984
H           32.07883051838081       -4.60123504486158       -0.48070108026314
H           30.30544232986416       -4.99431070990247       -2.39970049167719
H           30.28449180960709       -8.53760087336530       -2.72060955963237
H           28.97756919215470       -9.50879394351148       -0.03008004374329
H           28.03839725569172       -7.48114204671953        2.18633136316343
H           28.49413907694242       -5.30681842202021        1.49101424024880
H           26.73955395179556       -4.57246220681774       -0.35774903801120
H           24.87968218559177       -2.66433270627442       -0.07430960206875
H           24.92938353722259        2.59076654096413        0.44100405432884
H           26.82563027362049        4.48430957734534        0.50930065240834
H           28.65769393524737        4.85701648188847        2.43868578255435
H           28.68153211750617        8.39993054608241        2.77449463376803
H           29.87315666148108        9.38696312850153        0.03731768346673
H           30.72590071416264        7.37152996836698       -2.22537684242061
H           30.32612770948972        5.19190933151371       -1.51311152141774
H           32.15691946255982        4.44732777379822        0.30435848122876
H           34.00945119998465        2.53307146071832       -0.00790255469394
C           22.03687668419133       -0.00468589790640        0.20554748793288
C           20.81491341489316        0.00852546431662        0.18465756669818
C           23.38641984649703       -0.02120594533743        0.21277617432868
C           24.60845948267490       -0.03519053496514        0.20323323578881

          :  Hamiltonian                  GFN1-xTB          :
         :: total energy            -247.718539171917 Eh    ::
         :: gradient norm              0.000393753923 Eh/a0 ::
         :: HOMO-LUMO gap              1.082275824030 eV    ::
         :: SCC energy              -251.013553231888 Eh    ::
         :: repulsion energy           3.407290149683 Eh    ::

    * Orbital Energies and Occupations

         #    Occupation            Energy/Eh            Energy/eV
      -------------------------------------------------------------
         1        2.0000           -0.8103293             -22.0502
       ...           ...                  ...                  ...
       201        2.0000           -0.4194832             -11.4147
       202        2.0000           -0.4194026             -11.4125
       203        2.0000           -0.4192758             -11.4091
       204        2.0000           -0.4179804             -11.3738
       205        2.0000           -0.4172289             -11.3534
       206        2.0000           -0.4106695             -11.1749
       207        2.0000           -0.4089669             -11.1286
       208        2.0000           -0.4080953             -11.1048
       209        2.0000           -0.4080188             -11.1028
       210        2.0000           -0.3918654             -10.6632
       211        2.0000           -0.3918574             -10.6630
       212        2.0000           -0.3862590             -10.5106
       213        2.0000           -0.3743245             -10.1859 (HOMO)
       214                         -0.3345516              -9.1036 (LUMO)
       215                         -0.3243883              -8.8271
       216                         -0.3243450              -8.8259
       217                         -0.3206570              -8.7255
       218                         -0.2938993              -7.9974
       219                         -0.2862526              -7.7893
       220                         -0.2541726              -6.9164
       221                         -0.2517209              -6.8497
       222                         -0.2513166              -6.8387
       223                         -0.2512804              -6.8377
       224                         -0.2505972              -6.8191
       ...                                ...                  ...
       436                          1.5215528              41.4036
      -------------------------------------------------------------
                  HL-Gap            0.0397729 Eh            1.0823 eV

Wiberg/Mayer (AO) data.
largest (>0.10) Wiberg bond orders for each atom

     #   Z sym  total        # sym  WBO       # sym  WBO       # sym  WBO
 ---------------------------------------------------------------------------
     1  30 Zn   1.998 --     7 N    0.461    43 N    0.459    28 N    0.457
                            21 N    0.456
     2   6 C    3.927 --     3 C    1.358    42 C    1.356    44 H    0.971
     3   6 C    3.922 --     2 C    1.358     7 N    1.233     4 C    1.171
     4   6 C    3.960 --     5 C    1.659     3 C    1.171    45 H    0.976
     5   6 C    3.963 --     4 C    1.659     6 C    1.172    46 H    0.973
     6   6 C    3.918 --     8 C    1.315     7 N    1.243     5 C    1.172
     7   7 N    3.294 --     6 C    1.243     3 C    1.233     1 Zn   0.461
     8   6 C    3.933 --    18 C    1.323     6 C    1.315     9 C    1.027
     9   6 C    3.989 --    10 C    1.399    17 C    1.387     8 C    1.027
    10   6 C    3.977 --     9 C    1.399    11 C    1.380    47 H    0.970
    11   6 C    3.917 --    10 C    1.380    13 C    1.325    12 O    1.051
    12   8 O    2.047 --    11 C    1.051    48 H    0.848
    13   6 C    3.904 --    15 C    1.341    11 C    1.325    14 O    1.019
    14   8 O    2.019 --    13 C    1.019    49 H    0.847
    15   6 C    3.905 --    17 C    1.384    13 C    1.341    16 O    1.012
    16   8 O    2.024 --    15 C    1.012    50 H    0.861
    17   6 C    3.973 --     9 C    1.387    15 C    1.384    51 H    0.969
    18   6 C    3.913 --     8 C    1.323    21 N    1.226    19 C    1.180
    19   6 C    3.960 --    20 C    1.644    18 C    1.180    52 H    0.974
    20   6 C    3.962 --    19 C    1.644    22 C    1.187    53 H    0.974
    21   7 N    3.297 --    22 C    1.263    18 C    1.226     1 Zn   0.456
    22   6 C    3.903 --    21 N    1.263    23 C    1.254    20 C    1.187
    23   6 C    3.938 --    24 C    1.255    22 C    1.254   126 C    1.190
    24   6 C    3.903 --    28 N    1.263    23 C    1.255    25 C    1.186
    25   6 C    3.962 --    26 C    1.646    24 C    1.186    54 H    0.974
    26   6 C    3.960 --    25 C    1.646    27 C    1.179    55 H    0.974
    27   6 C    3.913 --    29 C    1.325    28 N    1.224    26 C    1.179
    28   7 N    3.297 --    24 C    1.263    27 C    1.224     1 Zn   0.457
    29   6 C    3.933 --    27 C    1.325    39 C    1.315    30 C    1.024
    30   6 C    3.989 --    31 C    1.400    38 C    1.388    29 C    1.024
    31   6 C    3.977 --    30 C    1.400    32 C    1.380    56 H    0.970
    32   6 C    3.917 --    31 C    1.380    34 C    1.325    33 O    1.051
    33   8 O    2.047 --    32 C    1.051    57 H    0.848
    34   6 C    3.904 --    36 C    1.342    32 C    1.325    35 O    1.019
    35   8 O    2.019 --    34 C    1.019    58 H    0.847
    36   6 C    3.905 --    38 C    1.384    34 C    1.342    37 O    1.012
    37   8 O    2.023 --    36 C    1.012    59 H    0.861
    38   6 C    3.973 --    30 C    1.388    36 C    1.384    60 H    0.970
    39   6 C    3.918 --    29 C    1.315    43 N    1.244    40 C    1.173
    40   6 C    3.963 --    41 C    1.657    39 C    1.173    61 H    0.974
    41   6 C    3.960 --    40 C    1.657    42 C    1.172    62 H    0.976
    42   6 C    3.922 --     2 C    1.356    43 N    1.234    41 C    1.172
    43   7 N    3.293 --    39 C    1.244    42 C    1.234     1 Zn   0.459
    44   1 H    1.002 --     2 C    0.971
    45   1 H    0.998 --     4 C    0.976
    46   1 H    1.006 --     5 C    0.973
    47   1 H    1.000 --    10 C    0.970
    48   1 H    0.878 --    12 O    0.848
    49   1 H    0.876 --    14 O    0.847
    50   1 H    0.881 --    16 O    0.861
    51   1 H    1.001 --    17 C    0.969
    52   1 H    1.006 --    19 C    0.974
    53   1 H    1.003 --    20 C    0.974
    54   1 H    1.003 --    25 C    0.974
    55   1 H    1.005 --    26 C    0.974
    56   1 H    1.000 --    31 C    0.970
    57   1 H    0.878 --    33 O    0.848
    58   1 H    0.876 --    35 O    0.847
    59   1 H    0.882 --    37 O    0.861
    60   1 H    1.001 --    38 C    0.970
    61   1 H    1.006 --    40 C    0.974
    62   1 H    0.998 --    41 C    0.976
    63  30 Zn   1.998 --    69 N    0.460   105 N    0.459    90 N    0.457
                            83 N    0.456
    64   6 C    3.927 --    65 C    1.358   104 C    1.356   106 H    0.971
    65   6 C    3.922 --    64 C    1.358    69 N    1.233    66 C    1.171
    66   6 C    3.960 --    67 C    1.659    65 C    1.171   107 H    0.976
    67   6 C    3.963 --    66 C    1.659    68 C    1.172   108 H    0.973
    68   6 C    3.918 --    70 C    1.315    69 N    1.243    67 C    1.172
    69   7 N    3.294 --    68 C    1.243    65 C    1.233    63 Zn   0.460
    70   6 C    3.933 --    80 C    1.322    68 C    1.315    71 C    1.028
    71   6 C    3.989 --    72 C    1.398    79 C    1.386    70 C    1.028
    72   6 C    3.977 --    71 C    1.398    73 C    1.380   109 H    0.970
    73   6 C    3.917 --    72 C    1.380    75 C    1.325    74 O    1.051
    74   8 O    2.047 --    73 C    1.051   110 H    0.848
    75   6 C    3.903 --    77 C    1.341    73 C    1.325    76 O    1.019
    76   8 O    2.019 --    75 C    1.019   111 H    0.846
    77   6 C    3.905 --    79 C    1.384    75 C    1.341    78 O    1.012
    78   8 O    2.024 --    77 C    1.012   112 H    0.861
    79   6 C    3.973 --    71 C    1.386    77 C    1.384   113 H    0.969
    80   6 C    3.913 --    70 C    1.322    83 N    1.226    81 C    1.180
    81   6 C    3.960 --    82 C    1.644    80 C    1.180   114 H    0.973
    82   6 C    3.962 --    81 C    1.644    84 C    1.187   115 H    0.974
    83   7 N    3.297 --    84 C    1.263    80 C    1.226    63 Zn   0.456
    84   6 C    3.903 --    83 N    1.263    85 C    1.254    82 C    1.187
    85   6 C    3.938 --    86 C    1.254    84 C    1.254   128 C    1.190
    86   6 C    3.903 --    90 N    1.263    85 C    1.254    87 C    1.186
    87   6 C    3.962 --    88 C    1.646    86 C    1.186   116 H    0.974
    88   6 C    3.960 --    87 C    1.646    89 C    1.179   117 H    0.973
    89   6 C    3.913 --    91 C    1.325    90 N    1.225    88 C    1.179
    90   7 N    3.297 --    86 C    1.263    89 C    1.225    63 Zn   0.457
    91   6 C    3.933 --    89 C    1.325   101 C    1.315    92 C    1.025
    92   6 C    3.989 --    93 C    1.400   100 C    1.388    91 C    1.025
    93   6 C    3.977 --    92 C    1.400    94 C    1.380   118 H    0.970
    94   6 C    3.917 --    93 C    1.380    96 C    1.325    95 O    1.051
    95   8 O    2.047 --    94 C    1.051   119 H    0.848
    96   6 C    3.904 --    98 C    1.342    94 C    1.325    97 O    1.019
    97   8 O    2.019 --    96 C    1.019   120 H    0.847
    98   6 C    3.905 --   100 C    1.384    96 C    1.342    99 O    1.012
    99   8 O    2.023 --    98 C    1.012   121 H    0.861
   100   6 C    3.973 --    92 C    1.388    98 C    1.384   122 H    0.969
   101   6 C    3.918 --    91 C    1.315   105 N    1.244   102 C    1.173
   102   6 C    3.963 --   103 C    1.657   101 C    1.173   123 H    0.974
   103   6 C    3.960 --   102 C    1.657   104 C    1.172   124 H    0.976
   104   6 C    3.922 --    64 C    1.356   105 N    1.233   103 C    1.172
   105   7 N    3.293 --   101 C    1.244   104 C    1.233    63 Zn   0.459
   106   1 H    1.002 --    64 C    0.971
   107   1 H    0.998 --    66 C    0.976
   108   1 H    1.006 --    67 C    0.973
   109   1 H    1.000 --    72 C    0.970
   110   1 H    0.878 --    74 O    0.848
   111   1 H    0.876 --    76 O    0.846
   112   1 H    0.881 --    78 O    0.861
   113   1 H    1.001 --    79 C    0.969
   114   1 H    1.006 --    81 C    0.973
   115   1 H    1.003 --    82 C    0.974
   116   1 H    1.003 --    87 C    0.974
   117   1 H    1.006 --    88 C    0.973
   118   1 H    1.000 --    93 C    0.970
   119   1 H    0.878 --    95 O    0.848
   120   1 H    0.876 --    97 O    0.847
   121   1 H    0.882 --    99 O    0.861
   122   1 H    1.001 --   100 C    0.969
   123   1 H    1.006 --   102 C    0.974
   124   1 H    0.998 --   103 C    0.976
   125   6 C    3.934 --   126 C    2.475   127 C    1.309
   126   6 C    3.925 --   125 C    2.475    23 C    1.190   128 C    0.199
   127   6 C    3.934 --   128 C    2.475   125 C    1.309
   128   6 C    3.925 --   127 C    2.475    85 C    1.190   126 C    0.199
 ---------------------------------------------------------------------------

           -------------------------------------------------
          | TOTAL ENERGY             -247.718539171917 Eh   |
          | GRADIENT NORM               0.000393753923 Eh/α |
          | HOMO-LUMO GAP               1.082275824030 eV   |
           -------------------------------------------------

 * finished run on 2022/07/30 at 12:11:11.006
