   * xtb version 6.5.1 (b24c23e) compiled by 'conda@728c89f4b128' on 2022-07-12
          program call               : xtb DMA_C4_2.xyz --gfn 1 --opt -T 48

   ID    Z sym.   atoms
    1    6 C      1-5, 7-11, 13-19, 21-26, 28-32, 34-41, 74-78, 80-84, 86-92,
                  94-99, 101-105, 107-114, 147-150
    2    7 N      6, 12, 20, 27, 33, 42, 79, 85, 93, 100, 106, 115
    3    1 H      43-73, 116-146
########################################################################
[WARNING] Please study the warnings concerning your input carefully
-1- prog_main_parseArguments: Unknown option '-T' provided
########################################################################

          :  Hamiltonian                  GFN1-xTB          :
 * total energy  :  -230.4476153 Eh     change       -0.2001173E-09 Eh
 * total energy  :  -231.9227346 Eh     change       -0.1475119E+01 Eh
 * total energy  :  -232.0619789 Eh     change       -0.1392443E+00 Eh
 * total energy  :  -232.1379440 Eh     change       -0.7596516E-01 Eh
 * total energy  :  -232.1629132 Eh     change       -0.2496913E-01 Eh
 * total energy  :  -232.1790898 Eh     change       -0.1617664E-01 Eh
 * total energy  :  -232.1874906 Eh     change       -0.8400785E-02 Eh
 * total energy  :  -232.1917016 Eh     change       -0.4210964E-02 Eh
 * total energy  :  -232.1940611 Eh     change       -0.2359533E-02 Eh
 * total energy  :  -232.1958405 Eh     change       -0.1779378E-02 Eh
 * total energy  :  -232.2092573 Eh     change       -0.1382848E-04 Eh
 * total energy  :  -232.2092709 Eh     change       -0.1361704E-04 Eh
 * total energy  :  -232.2092955 Eh     change       -0.2462758E-04 Eh
 * total energy  :  -232.2093110 Eh     change       -0.1548427E-04 Eh
 * total energy  :  -232.2093174 Eh     change       -0.6375797E-05 Eh
 * total energy  :  -232.2093250 Eh     change       -0.7583473E-05 Eh
 * total energy  :  -232.2093316 Eh     change       -0.6637936E-05 Eh
 * total energy  :  -232.2093397 Eh     change       -0.8064339E-05 Eh
 * total energy  :  -232.2093447 Eh     change       -0.4991374E-05 Eh
   *** GEOMETRY OPTIMIZATION CONVERGED AFTER 90 ITERATIONS ***

 final structure:
================
150
 xtb: 6.5.1 (b24c23e)
C           14.79554774375053       -0.38029853723368        0.08319276955768
C           15.40361443280571       -0.52565093733888        1.32382244971969
C           14.74907724685579       -0.73373250665480        2.56971611379273
C           15.70528445240496       -0.77960807933486        3.54567864139245
C           16.97593430802281       -0.61316786142060        2.92589806292588
N           16.74284061472721       -0.46210017742906        1.58786144494258
C           18.23213266608803       -0.57103939245525        3.54380721870820
C           18.26373451105930       -0.77360287649636        5.00987866919910
C           18.79822042670209        0.19870043167495        5.85718418823357
C           18.82127715291172        0.02115749990623        7.22843937013735
C           18.31296117462059       -1.14871215940652        7.81282934230343
N           18.38581512712856       -1.35968841193385        9.18685224367086
C           18.58671775257832       -0.18730034406401       10.03876916111949
C           17.48711577367192       -2.36345660665363        9.75873027871910
C           17.79241812545407       -2.13206517917991        6.95805270025232
C           17.76317839416216       -1.94117102904432        5.58853154071258
C           19.44074511016156       -0.35680710510664        2.87495109316979
C           20.74139238940058       -0.40901780719279        3.51676773266787
C           21.65559846192810       -0.19235949015484        2.54793515493461
N           19.58768715431765       -0.12002245049260        1.54193689149798
C           20.91267701159691       -0.01287466133987        1.31631626285841
C           21.54429099133048        0.21608443385172        0.07689313427107
C           20.90896093791475        0.37727732330213       -1.16949565959996
C           21.55596400710176        0.58068054476510       -2.41644384821484
C           20.59180338064784        0.66602166490739       -3.38307625556370
C           19.32492941044446        0.52343232130505       -2.75352741075657
N           19.56901010882263        0.34976159397548       -1.41636736345724
C           18.06695162555069        0.51059330836968       -3.36832898762283
C           18.03500258798024        0.75157407967420       -4.82753629487088
C           18.55888917085930        1.92467974714807       -5.37460096993667
C           18.53535538392451        2.15282195921969       -6.73816720019243
C           17.99781205332921        1.20267307820971       -7.61971652928821
N           17.93476404540630        1.45238461999502       -8.98783122752315
C           17.69628421955705        0.31044062269576       -9.87083940691307
C           18.87309360038865        2.43594926083221       -9.53071818081165
C           17.46476095587370        0.02827893210437       -7.06737546180801
C           17.48242796076126       -0.18669468981718       -5.70133523627273
C           16.85867723531834        0.28165889465969       -2.69925823966956
C           15.55051558057861        0.33138607390107       -3.33246426189928
C           14.64684499069139        0.07249819345515       -2.36529741483887
C           15.40051336289564       -0.12137308380786       -1.13978849714170
N           16.72830511766289        0.01544499116158       -1.37786663076833
H           13.71290251519049       -0.45986754399284        0.08254815555960
H           13.68136870835881       -0.82399728708431        2.69207263291183
H           15.54736978397442       -0.90366623508751        4.60479830055469
H           17.46827844792945       -0.30574689017375        0.89598153886635
H           19.18180292160709        1.12146930010663        5.43547536692544
H           19.24329998177921        0.80930779891185        7.83852344281081
H           17.81020812596450        0.56820836641859        9.87446170668019
H           18.56478246590749       -0.50134050647664       11.08180383750265
H           19.56595514224610        0.24778282103135        9.83696083913162
H           16.44339289350933       -2.16864793137776        9.48839692143552
H           17.77412864404789       -3.35510522587145        9.40718863726536
H           17.58401453478455       -2.34790085841642       10.84370261111264
H           17.41042283508910       -3.06479967679731        7.35274360011417
H           17.36668888446210       -2.72570460219193        4.95285239980709
H           20.91366592648768       -0.60876908834932        4.56197082386096
H           22.73019415577049       -0.16065017993452        2.63245583098300
H           22.62399088659559        0.64413079519162       -2.54938420528742
H           20.74461784675024        0.79847346657055       -4.44174229766960
H           18.84655930831554        0.20094700069818       -0.71947524166746
H           18.97025308034449        2.68344829328695       -4.71745957615056
H           18.93554829409004        3.08828032679864       -7.10754692549667
H           17.72078557592683        0.65345023296635      -10.90462935683500
H           18.45248911093390       -0.47066126214354       -9.73320090577239
H           16.70635166458245       -0.10257447077942       -9.67470782357714
H           18.62000950946951        3.42906526463284       -9.15825927382386
H           18.78345969229576        2.44851382186531      -10.61631735472508
H           19.90669828827571        2.19693984033612       -9.25812061894697
H           17.02954318357680       -0.73562079115193       -7.69868687716736
H           17.08327756883628       -1.11443123621194       -5.30577703917599
H           15.36955101145752        0.55487206779038       -4.37158921252238
H           13.57168570507500        0.02379392813473       -2.44147892881149
C           34.89603137288533       -0.33806274292650       -0.16900066469513
C           34.28813736208488       -0.18438228074198       -1.40875736876069
C           34.94276595318799       -0.08868447153216       -2.66817448078352
C           33.98618419864326        0.09460218178777       -3.62752967810306
C           32.71528763296225        0.10435606733200       -2.98643691771674
N           32.94860638505201       -0.06406555133261       -1.65051923041684
C           31.45830714943706        0.28290430149903       -3.57788519634704
C           31.42719711477952        0.42475919008201       -5.05111993046105
C           30.88808908507049        1.56354189856767       -5.65227527978408
C           30.86733000574122        1.70691898094058       -7.02760131045650
C           31.38272313008249        0.70614020066725       -7.86509133431455
N           31.31238284111896        0.81905590041374       -9.25075675223259
C           31.11593967589550        2.15795678603913       -9.80737318949092
C           32.20972551785388       -0.02675475749924      -10.03894336810396
C           31.90739006286852       -0.44543443697840       -7.25919172784648
C           31.93424241132345       -0.57540045251162       -5.88254028458873
C           30.24933916870347        0.33035243173480       -2.87794653576289
C           28.94841898861206        0.42273349708423       -3.51466139079122
C           28.03424409262748        0.40860876923108       -2.52191721706060
N           30.10261309607085        0.25391553922237       -1.52618693064051
C           28.77746172844396        0.30250346572881       -1.28198998681413
C           28.14629634621629        0.23865830445810       -0.02293672193501
C           28.78195329477466        0.10602913765415        1.22662577738150
C           28.13530702999925        0.01369871321196        2.48691735195299
C           29.09947242588821       -0.13286719568438        3.44613053079443
C           30.36610686363966       -0.12761429795191        2.80008383542261
N           30.12184232084386        0.01837216526190        1.45962981754154
C           31.62361693417998       -0.28895026984639        3.39417899848815
C           31.65576268248673       -0.40081299203630        4.86910288568505
C           31.14036221054264        0.61311406668337        5.67913275394201
C           31.16564029224149        0.51161334384980        7.05791454136010
C           31.69583200998911       -0.62433187517074        7.68850194177949
N           31.76009728128568       -0.70514132987030        9.07680492825182
C           31.99749211670724       -2.02303130120261        9.66555002238975
C           30.82322989273197        0.12409674293241        9.83701037233556
C           32.21959746171635       -1.63863673153644        6.87293310263898
C           32.20084421921391       -1.52353503090519        5.49485769999449
C           32.83175988440556       -0.35615134343295        2.69005885403253
C           34.13942960114390       -0.46170721558953        3.31742488047436
C           35.04349187770145       -0.48407124577447        2.31684273723367
C           34.29054607705098       -0.37857981916540        1.08012375037362
N           32.96267031620466       -0.30084498285576        1.34335101326340
H           35.97870144560572       -0.41507025070085       -0.18700845773025
H           36.01070842127082       -0.14343524650226       -2.80822052097228
H           34.14391404724954        0.22612666934238       -4.68577638326709
H           32.22308963574649       -0.07878058485057       -0.94144593287376
H           30.49900185268159        2.36214640336516       -5.02993282759450
H           30.44120837028618        2.61209988994647       -7.44061558430958
H           31.88678585599912        2.85534934417447       -9.46072807914460
H           31.15217284355679        2.09702279778729      -10.89456513733168
H           30.13224205925692        2.53205117176343       -9.52182849856659
H           33.25497441189071        0.10681478271124       -9.73871196896706
H           31.92784680243436       -1.07313621430459       -9.91723107757039
H           32.10454680819517        0.23148609911089      -11.09208055891497
H           32.29525212764419       -1.25996778498122       -7.85730983446929
H           32.33445868371255       -1.48331832238648       -5.44402577799400
H           28.77621886420086        0.46698746391054       -4.57790211990036
H           26.95949742370419        0.45545483577850       -2.59713221055155
H           27.06742557926746        0.04737831906399        2.63148954956546
H           28.94711762699141       -0.25202000203404        4.50644665721425
H           30.84393872395250        0.03500775208643        0.74686867994705
H           30.73487264120936        1.50896792633528        5.22104669191770
H           30.77302251570368        1.33598826322176        7.63932075598558
H           31.98261806957528       -1.93144846598477       10.75108551300379
H           31.23550899898090       -2.74671597574647        9.35513153455154
H           32.98321736053840       -2.38301904838892        9.36982624434341
H           31.08410525287738        1.17630401686073        9.71807477202095
H           30.90481044333471       -0.12768461576863       10.89368173809332
H           29.79030577265728       -0.03455782383378        9.50856118938873
H           32.64808344944714       -2.53402027130073        7.30446062083907
H           32.59334637189258       -2.33396124185481        4.89012499594441
H           34.31967196340725       -0.49296845362427        4.37997316100247
H           36.11851930739308       -0.55154615894525        2.37953884930739
C           24.17084030343302        0.29354943288475        0.04589122211167
C           22.94892760954552        0.26640655048829        0.06440630701560
C           25.51960996459429        0.29997504987850        0.02623762121411
C           26.74159183014424        0.28329960511046        0.00106417303863

          :  Hamiltonian                  GFN1-xTB          :
         :: total energy            -232.209344677681 Eh    ::
         :: gradient norm              0.000542371586 Eh/a0 ::
         :: HOMO-LUMO gap              0.940216259074 eV    ::
         :: SCC energy              -235.899513040048 Eh    ::
         :: repulsion energy           3.809333588918 Eh    ::

    * Orbital Energies and Occupations

         #    Occupation            Energy/Eh            Energy/eV
      -------------------------------------------------------------
         1        2.0000           -0.7922528             -21.5583
       ...           ...                  ...                  ...
       201        2.0000           -0.4065462             -11.0627
       202        2.0000           -0.4045672             -11.0088
       203        2.0000           -0.4044191             -11.0048
       204        2.0000           -0.4038837             -10.9902
       205        2.0000           -0.4038383             -10.9890
       206        2.0000           -0.3881021             -10.5608
       207        2.0000           -0.3880172             -10.5585
       208        2.0000           -0.3868540             -10.5268
       209        2.0000           -0.3842829             -10.4569
       210        2.0000           -0.3832256             -10.4281
       211        2.0000           -0.3831724             -10.4267
       212        2.0000           -0.3730435             -10.1510
       213        2.0000           -0.3640862              -9.9073 (HOMO)
       214                         -0.3295339              -8.9671 (LUMO)
       215                         -0.3186797              -8.6717
       216                         -0.3185063              -8.6670
       217                         -0.3160558              -8.6003
       218                         -0.2878286              -7.8322
       219                         -0.2801817              -7.6241
       220                         -0.2528472              -6.8803
       221                         -0.2528375              -6.8801
       222                         -0.2526775              -6.8757
       223                         -0.2526675              -6.8754
       224                         -0.2479404              -6.7468
       ...                                ...                  ...
       476                          1.5280157              41.5794
      -------------------------------------------------------------
                  HL-Gap            0.0345523 Eh            0.9402 eV

Wiberg/Mayer (AO) data.
largest (>0.10) Wiberg bond orders for each atom

     #   Z sym  total        # sym  WBO       # sym  WBO       # sym  WBO
 ---------------------------------------------------------------------------
     1   6 C    3.922 --    41 C    1.366     2 C    1.344    43 H    0.971
     2   6 C    3.904 --     1 C    1.344     3 C    1.232     6 N    1.169
     3   6 C    3.951 --     4 C    1.590     2 C    1.232    44 H    0.977
     4   6 C    3.959 --     3 C    1.590     5 C    1.239    45 H    0.974
     5   6 C    3.894 --     7 C    1.298     4 C    1.239     6 N    1.176
     6   7 N    3.468 --     5 C    1.176     2 C    1.169    46 H    0.873
     7   6 C    3.938 --    17 C    1.332     5 C    1.298     8 C    1.037
     8   6 C    3.988 --    16 C    1.377     9 C    1.376     7 C    1.037
     9   6 C    3.986 --    10 C    1.472     8 C    1.376    47 H    0.972
    10   6 C    3.989 --     9 C    1.472    11 C    1.342    48 H    0.968
    11   6 C    3.951 --    15 C    1.342    10 C    1.342    12 N    1.109
    12   7 N    3.219 --    11 C    1.109    13 C    0.964    14 C    0.963
    13   6 C    3.969 --    50 H    0.985    51 H    0.983    49 H    0.983
                            12 N    0.964
    14   6 C    3.969 --    54 H    0.985    52 H    0.983    53 H    0.983
                            12 N    0.963
    15   6 C    3.989 --    16 C    1.472    11 C    1.342    55 H    0.968
    16   6 C    3.987 --    15 C    1.472     8 C    1.377    56 H    0.972
    17   6 C    3.913 --     7 C    1.332    20 N    1.287    18 C    1.128
    18   6 C    3.965 --    19 C    1.706    17 C    1.128    57 H    0.973
    19   6 C    3.963 --    18 C    1.706    21 C    1.131    58 H    0.974
    20   7 N    3.020 --    21 C    1.344    17 C    1.287
    21   6 C    3.910 --    20 N    1.344    22 C    1.254    19 C    1.131
    22   6 C    3.933 --    21 C    1.254    23 C    1.249   148 C    1.191
    23   6 C    3.886 --    24 C    1.252    22 C    1.249    27 N    1.189
    24   6 C    3.958 --    25 C    1.579    23 C    1.252    59 H    0.975
    25   6 C    3.955 --    24 C    1.579    26 C    1.245    60 H    0.974
    26   6 C    3.897 --    28 C    1.304    25 C    1.245    27 N    1.165
    27   7 N    3.473 --    23 C    1.189    26 C    1.165    61 H    0.873
    28   6 C    3.924 --    38 C    1.317    26 C    1.304    29 C    1.040
    29   6 C    3.987 --    37 C    1.376    30 C    1.375    28 C    1.040
    30   6 C    3.986 --    31 C    1.473    29 C    1.375    62 H    0.972
    31   6 C    3.989 --    30 C    1.473    32 C    1.341    63 H    0.968
    32   6 C    3.950 --    36 C    1.342    31 C    1.341    33 N    1.109
    33   7 N    3.218 --    32 C    1.109    34 C    0.964    35 C    0.963
    34   6 C    3.969 --    64 H    0.985    66 H    0.983    65 H    0.983
                            33 N    0.964
    35   6 C    3.969 --    68 H    0.985    69 H    0.983    67 H    0.983
                            33 N    0.963
    36   6 C    3.989 --    37 C    1.472    32 C    1.342    70 H    0.968
    37   6 C    3.987 --    36 C    1.472    29 C    1.376    71 H    0.972
    38   6 C    3.927 --    42 N    1.319    28 C    1.317    39 C    1.120
    39   6 C    3.967 --    40 C    1.718    38 C    1.120    72 H    0.973
    40   6 C    3.965 --    39 C    1.718    41 C    1.119    73 H    0.976
    41   6 C    3.930 --     1 C    1.366    42 N    1.299    40 C    1.119
    42   7 N    3.009 --    38 C    1.319    41 C    1.299
    43   1 H    1.003 --     1 C    0.971
    44   1 H    0.998 --     3 C    0.977
    45   1 H    1.006 --     4 C    0.974
    46   1 H    0.986 --     6 N    0.873
    47   1 H    1.006 --     9 C    0.972
    48   1 H    1.002 --    10 C    0.968
    49   1 H    1.003 --    13 C    0.983
    50   1 H    1.009 --    13 C    0.985
    51   1 H    1.013 --    13 C    0.983
    52   1 H    1.003 --    14 C    0.983
    53   1 H    1.013 --    14 C    0.983
    54   1 H    1.009 --    14 C    0.985
    55   1 H    1.002 --    15 C    0.968
    56   1 H    1.005 --    16 C    0.972
    57   1 H    1.006 --    18 C    0.973
    58   1 H    1.004 --    19 C    0.974
    59   1 H    1.003 --    24 C    0.975
    60   1 H    1.006 --    25 C    0.974
    61   1 H    0.988 --    27 N    0.873
    62   1 H    1.005 --    30 C    0.972
    63   1 H    1.002 --    31 C    0.968
    64   1 H    1.009 --    34 C    0.985
    65   1 H    1.003 --    34 C    0.983
    66   1 H    1.013 --    34 C    0.983
    67   1 H    1.013 --    35 C    0.983
    68   1 H    1.009 --    35 C    0.985
    69   1 H    1.003 --    35 C    0.983
    70   1 H    1.002 --    36 C    0.968
    71   1 H    1.006 --    37 C    0.972
    72   1 H    1.006 --    39 C    0.973
    73   1 H    0.999 --    40 C    0.976
    74   6 C    3.922 --   114 C    1.366    75 C    1.344   116 H    0.971
    75   6 C    3.904 --    74 C    1.344    76 C    1.233    79 N    1.169
    76   6 C    3.951 --    77 C    1.590    75 C    1.233   117 H    0.977
    77   6 C    3.959 --    76 C    1.590    78 C    1.239   118 H    0.974
    78   6 C    3.894 --    80 C    1.298    77 C    1.239    79 N    1.176
    79   7 N    3.468 --    78 C    1.176    75 C    1.169   119 H    0.873
    80   6 C    3.938 --    90 C    1.332    78 C    1.298    81 C    1.037
    81   6 C    3.988 --    89 C    1.377    82 C    1.376    80 C    1.037
    82   6 C    3.986 --    83 C    1.472    81 C    1.376   120 H    0.972
    83   6 C    3.989 --    82 C    1.472    84 C    1.342   121 H    0.968
    84   6 C    3.951 --    88 C    1.342    83 C    1.342    85 N    1.109
    85   7 N    3.219 --    84 C    1.109    86 C    0.964    87 C    0.963
    86   6 C    3.969 --   123 H    0.985   124 H    0.983   122 H    0.983
                            85 N    0.964
    87   6 C    3.969 --   127 H    0.985   125 H    0.983   126 H    0.983
                            85 N    0.963
    88   6 C    3.989 --    89 C    1.472    84 C    1.342   128 H    0.968
    89   6 C    3.987 --    88 C    1.472    81 C    1.377   129 H    0.972
    90   6 C    3.913 --    80 C    1.332    93 N    1.286    91 C    1.128
    91   6 C    3.965 --    92 C    1.706    90 C    1.128   130 H    0.973
    92   6 C    3.963 --    91 C    1.706    94 C    1.131   131 H    0.974
    93   7 N    3.020 --    94 C    1.344    90 C    1.286
    94   6 C    3.910 --    93 N    1.344    95 C    1.254    92 C    1.131
    95   6 C    3.933 --    94 C    1.254    96 C    1.249   150 C    1.191
    96   6 C    3.886 --    97 C    1.252    95 C    1.249   100 N    1.189
    97   6 C    3.958 --    98 C    1.579    96 C    1.252   132 H    0.975
    98   6 C    3.955 --    97 C    1.579    99 C    1.245   133 H    0.974
    99   6 C    3.897 --   101 C    1.305    98 C    1.245   100 N    1.165
   100   7 N    3.473 --    96 C    1.189    99 C    1.165   134 H    0.873
   101   6 C    3.924 --   111 C    1.317    99 C    1.305   102 C    1.040
   102   6 C    3.987 --   110 C    1.376   103 C    1.375   101 C    1.040
   103   6 C    3.986 --   104 C    1.473   102 C    1.375   135 H    0.972
   104   6 C    3.989 --   103 C    1.473   105 C    1.341   136 H    0.968
   105   6 C    3.950 --   109 C    1.342   104 C    1.341   106 N    1.109
   106   7 N    3.218 --   105 C    1.109   107 C    0.964   108 C    0.963
   107   6 C    3.969 --   137 H    0.985   139 H    0.983   138 H    0.983
                           106 N    0.964
   108   6 C    3.969 --   141 H    0.985   142 H    0.983   140 H    0.983
                           106 N    0.963
   109   6 C    3.989 --   110 C    1.472   105 C    1.342   143 H    0.968
   110   6 C    3.987 --   109 C    1.472   102 C    1.376   144 H    0.972
   111   6 C    3.927 --   115 N    1.319   101 C    1.317   112 C    1.120
   112   6 C    3.967 --   113 C    1.718   111 C    1.120   145 H    0.973
   113   6 C    3.965 --   112 C    1.718   114 C    1.119   146 H    0.976
   114   6 C    3.930 --    74 C    1.366   115 N    1.299   113 C    1.119
   115   7 N    3.009 --   111 C    1.319   114 C    1.299
   116   1 H    1.002 --    74 C    0.971
   117   1 H    0.998 --    76 C    0.977
   118   1 H    1.006 --    77 C    0.974
   119   1 H    0.986 --    79 N    0.873
   120   1 H    1.006 --    82 C    0.972
   121   1 H    1.002 --    83 C    0.968
   122   1 H    1.003 --    86 C    0.983
   123   1 H    1.009 --    86 C    0.985
   124   1 H    1.013 --    86 C    0.983
   125   1 H    1.003 --    87 C    0.983
   126   1 H    1.013 --    87 C    0.983
   127   1 H    1.009 --    87 C    0.985
   128   1 H    1.002 --    88 C    0.968
   129   1 H    1.005 --    89 C    0.972
   130   1 H    1.006 --    91 C    0.973
   131   1 H    1.004 --    92 C    0.974
   132   1 H    1.003 --    97 C    0.975
   133   1 H    1.006 --    98 C    0.974
   134   1 H    0.988 --   100 N    0.873
   135   1 H    1.005 --   103 C    0.972
   136   1 H    1.002 --   104 C    0.968
   137   1 H    1.009 --   107 C    0.985
   138   1 H    1.003 --   107 C    0.983
   139   1 H    1.013 --   107 C    0.983
   140   1 H    1.013 --   108 C    0.983
   141   1 H    1.009 --   108 C    0.985
   142   1 H    1.003 --   108 C    0.983
   143   1 H    1.002 --   109 C    0.968
   144   1 H    1.006 --   110 C    0.972
   145   1 H    1.006 --   112 C    0.973
   146   1 H    0.999 --   113 C    0.976
   147   6 C    3.932 --   148 C    2.471   149 C    1.311
   148   6 C    3.925 --   147 C    2.471    22 C    1.191   150 C    0.199
   149   6 C    3.932 --   150 C    2.471   147 C    1.311
   150   6 C    3.925 --   149 C    2.471    95 C    1.191   148 C    0.199
 ---------------------------------------------------------------------------

           -------------------------------------------------
          | TOTAL ENERGY             -232.209344677681 Eh   |
          | GRADIENT NORM               0.000542371586 Eh/α |
          | HOMO-LUMO GAP               0.940216259074 eV   |
           -------------------------------------------------

 * finished run on 2022/07/28 at 11:13:27.848
