   * xtb version 6.5.1 (b24c23e) compiled by 'conda@728c89f4b128' on 2022-07-12
          program call               : xtb Ni_PhCHO_C4_2.xyz --gfn 1 --opt -T 48

   ID    Z sym.   atoms
    1   28 Ni     1, 61
    2    6 C      2-6, 8-13, 15-19, 21-26, 28-33, 35-40, 62-66, 68-73, 75-79,
                  81-86, 88-93, 95-100, 121-124
    3    7 N      7, 20, 27, 41, 67, 80, 87, 101
    4    8 O      14, 34, 74, 94
    5    1 H      42-60, 102-120
########################################################################
[WARNING] Please study the warnings concerning your input carefully
-1- prog_main_parseArguments: Unknown option '-T' provided
########################################################################

          :  Hamiltonian                  GFN1-xTB          :
 * total energy  :  -224.4915205 Eh     change       -0.1333177E-08 Eh
 * total energy  :  -224.9799143 Eh     change       -0.4883938E+00 Eh
 * total energy  :  -225.0622226 Eh     change       -0.8230825E-01 Eh
 * total energy  :  -225.1004422 Eh     change       -0.3821965E-01 Eh
 * total energy  :  -225.1122738 Eh     change       -0.1183159E-01 Eh
 * total energy  :  -225.1186100 Eh     change       -0.6336158E-02 Eh
 * total energy  :  -225.1215783 Eh     change       -0.2968399E-02 Eh
 * total energy  :  -225.1236156 Eh     change       -0.2037281E-02 Eh
 * total energy  :  -225.1246989 Eh     change       -0.1083258E-02 Eh
 * total energy  :  -225.1256857 Eh     change       -0.9867974E-03 Eh
 * total energy  :  -225.1278087 Eh     change       -0.1138831E-04 Eh
 * total energy  :  -225.1278172 Eh     change       -0.8510179E-05 Eh
 * total energy  :  -225.1278312 Eh     change       -0.1402298E-04 Eh
 * total energy  :  -225.1278423 Eh     change       -0.1111473E-04 Eh
 * total energy  :  -225.1278606 Eh     change       -0.1826307E-04 Eh
 * total energy  :  -225.1278719 Eh     change       -0.1131875E-04 Eh
 * total energy  :  -225.1278754 Eh     change       -0.3508026E-05 Eh
 * total energy  :  -225.1278841 Eh     change       -0.8652934E-05 Eh
 * total energy  :  -225.1278874 Eh     change       -0.3295324E-05 Eh
   *** GEOMETRY OPTIMIZATION CONVERGED AFTER 38 ITERATIONS ***

 final structure:
================
124
 xtb: 6.5.1 (b24c23e)
Ni          15.84931416700662        0.05580629599881       -0.07041341156620
C           12.45679386342598        0.10070225229299       -0.19573790088029
C           13.11733992193183        1.30938103001751       -0.13061730707371
C           12.44460943128588        2.57183694901379       -0.08874794248618
C           13.39959311521162        3.51425486602492        0.08631887242661
C           14.65743569919849        2.82729621694092        0.13365882484990
N           14.47458583325302        1.47498777146192       -0.01080266113989
C           15.87329813145541        3.45521927630333        0.37023300508445
C           15.88428904506474        4.92181259372312        0.58709548197316
C           16.25931762241135        5.44714193342009        1.82675771557506
C           16.26365309240484        6.81353131780390        2.03172633498066
C           15.89902276554887        7.68480045650814        1.00000109107754
C           15.91233634943360        9.13913708062025        1.24360346297069
O           16.22207143946442        9.63851308514726        2.29465216355249
C           15.52885230549456        7.16022060683453       -0.24050066135851
C           15.51936142241637        5.79146166432939       -0.44357053221283
C           17.08134744637337        2.77200048330890        0.40256745534711
C           18.34872882029998        3.41446759964693        0.57862076020657
C           19.29568458994450        2.45717503355317        0.43475456495234
N           17.25157611746828        1.42649334585390        0.16661140703933
C           18.60581471454335        1.23404869091645        0.17340284105739
C           19.26365447100169        0.02725457741062       -0.07757257102641
C           18.58300193586944       -1.17382126495390       -0.29136893171053
C           19.24953553807290       -2.41245198641626       -0.53945106303027
C           18.28799235202932       -3.36352014071056       -0.61155408551656
C           17.03564819775206       -2.70155907845545       -0.40413053727235
N           17.22712564715200       -1.34897442991611       -0.23698787323411
C           15.81274771322970       -3.35926319585275       -0.37710513997832
C           15.79875893833649       -4.83506257685575       -0.50324270540137
C           15.15976956854484       -5.44302027949265       -1.58744351952531
C           15.14483995758631       -6.82100721181851       -1.70939022345552
C           15.76568091223184       -7.61918739876567       -0.74567381883122
C           15.75976598426291       -9.08991605398311       -0.85059875797053
O           16.28199720231471       -9.82019065961162       -0.04808406735484
C           16.40488041183549       -7.01096100274921        0.33973822743938
C           16.42370488157602       -5.63453992069782        0.45834709309633
C           14.60148338001635       -2.69013825632192       -0.25641122670550
C           13.32694982790627       -3.34589500931374       -0.21213207364371
C           12.38693304109285       -2.37295142455498       -0.18118684935015
C           13.08783198676942       -1.12539707360464       -0.18551382395096
N           14.44516609079889       -1.32787372285755       -0.20376015527309
H           11.37390272677514        0.11476374866630       -0.23569529844127
H           11.37659463244267        2.69783660758215       -0.16754556594423
H           13.27525364883461        4.58008196217005        0.18723050456583
H           16.53282740116909        4.77294383777365        2.63046489408987
H           16.54734130427309        7.23012319032234        2.99222928872416
H           15.60886426461142        9.75080567663772        0.36734667179607
H           15.24889893726005        7.82957127394649       -1.04747702296206
H           15.24217848300061        5.38689344769883       -1.41048698076154
H           18.48620971891533        4.46617712584307        0.76921344729741
H           20.36761846670303        2.55551486422515        0.49196821007591
H           20.31696493030439       -2.52378693440178       -0.64067754803490
H           18.40527464046252       -4.41850433166169       -0.79743341865334
H           14.68788471763606       -4.82531365473192       -2.34325550223741
H           14.65060582133760       -7.28457692427216       -2.55700266673759
H           15.22844461038345       -9.48063895866757       -1.74474226058005
H           16.88201027483756       -7.63903514423306        1.08437483484725
H           16.90986057933148       -5.16614287879016        1.30662825873359
H           13.18321775986957       -4.41402756824346       -0.20196306213321
H           11.31351184099880       -2.47057756670369       -0.15027688279665
Ni          29.28428782288213       -0.04447131364308       -0.08205303672174
C           32.67724061887738       -0.07055531645733       -0.20494283441870
C           32.01726549862796       -1.27644698841328       -0.31306933611214
C           32.69072173870266       -2.53196071012093       -0.44819169943043
C           31.73581448873640       -3.48987015339949       -0.41158713041273
C           30.47735944658591       -2.81678708180024       -0.27170845986898
N           30.65976988645931       -1.45762426385549       -0.22219987452745
C           29.26106345458769       -3.47213105223474       -0.13150280597669
C           29.25030306907131       -4.95465456655138       -0.12350570183521
C           28.87116497046311       -5.64858714937333        1.02895748587657
C           28.86733865656128       -7.03018191107146        1.04063189232181
C           29.23660712676299       -7.74824526628050       -0.10153693806142
C           29.22396096119117       -9.22236415537193       -0.06377783707736
O           28.91118355447399       -9.86394971570053        0.90604508099783
C           29.61073346165174       -7.05497167749196       -1.25498789052546
C           29.61972987361589       -5.67122908760253       -1.26442129239006
C           28.05253861260717       -2.80064493116399       -0.00595449572818
C           26.78510412126715       -3.46199180391363        0.07307627644044
C           25.83809502757035       -2.49403512623289        0.06869220156765
N           27.88225955209562       -1.43520951309657       -0.04542328247653
C           26.52796887051262       -1.24589575363035       -0.01189036342322
C           25.86976438981624       -0.01572114002538       -0.08547332162099
C           26.55002693861735        1.20378520108728       -0.12589925831565
C           25.88331308523644        2.46500037378701       -0.19541825316844
C           26.84484216807286        3.41677733777700       -0.13308865365869
C           28.09726247397306        2.73220777729145       -0.02186240042885
N           27.90593905508660        1.36956912576086       -0.04807568028375
C           29.31993708312476        3.37962446524713        0.09932774456374
C           29.33339203269900        4.85823125468302        0.18666175227531
C           29.97331170324544        5.61664265002131       -0.79755782147276
C           29.98817148696920        6.99779222058393       -0.71874179427387
C           29.36637138252279        7.64810779992884        0.34978000577481
C           29.37204009776286        9.11852270612827        0.45883673283535
O           28.85080532496661        9.72474221879935        1.35940900195589
C           28.72616656529948        6.88923104412747        1.33513296443030
C           28.70728277486636        5.51017177751690        1.25315452392995
C           30.53130631563139        2.70041083606651        0.12525770006608
C           31.80546328999195        3.34351910326353        0.26433968213753
C           32.74584219651230        2.37616607329204        0.15901033935193
C           32.04549693685368        1.14166685861655       -0.02320995753832
N           30.68809971960411        1.34444688411980       -0.01541245107440
H           33.76024248608781       -0.07858812306182       -0.24362766144048
H           33.75907604598762       -2.64528058965551       -0.54047977161545
H           31.86052505196707       -4.55921992818519       -0.46227824850652
H           28.59412335696245       -5.09361680061036        1.91808364804509
H           28.58055314864643       -7.57724289540315        1.93229655781254
H           29.53122743532451       -9.70536489254279       -1.01579657411497
H           29.89420162511878       -7.60465302540453       -2.14667624460951
H           29.90013150768486       -5.13521166399898       -2.16413743244470
H           26.64769511031188       -4.53024656790273        0.10854805155438
H           24.76610829006364       -2.59964435020019        0.10972061300083
H           24.81583923800398        2.58950572364750       -0.27924629637907
H           26.72751703155503        4.48744197511321       -0.16814449659688
H           30.44605221086772        5.11484900837938       -1.63434805611975
H           30.48326783905040        7.57916417582408       -1.48979027126278
H           29.90549946466752        9.63462525410009       -0.36778787563637
H           28.24817393630174        7.40290622695904        2.16233431492843
H           28.22021317210903        4.92389280521351        2.02410904385026
H           31.94870964458891        4.39946371578671        0.42597716473783
H           33.81915929781198        2.46860951469164        0.20556562598212
C           21.89115786761064        0.01452988806659       -0.10555778259612
C           20.66996777849266        0.01760497045665       -0.09721676710689
C           23.24210740446645        0.00495853760163       -0.10559827027363
C           24.46338853096459       -0.00390120275877       -0.10113244750142

          :  Hamiltonian                  GFN1-xTB          :
         :: total energy            -225.127887356411 Eh    ::
         :: gradient norm              0.000642182762 Eh/a0 ::
         :: HOMO-LUMO gap              1.234541667531 eV    ::
         :: SCC energy              -228.554201033582 Eh    ::
         :: repulsion energy           3.537541306602 Eh    ::

    * Orbital Energies and Occupations

         #    Occupation            Energy/Eh            Energy/eV
      -------------------------------------------------------------
         1        2.0000           -0.7934682             -21.5914
       ...           ...                  ...                  ...
       193        2.0000           -0.4366137             -11.8809
       194        2.0000           -0.4112304             -11.1901
       195        2.0000           -0.4111466             -11.1879
       196        2.0000           -0.4107190             -11.1762
       197        2.0000           -0.4107083             -11.1759
       198        2.0000           -0.4099164             -11.1544
       199        2.0000           -0.4099112             -11.1543
       200        2.0000           -0.4092601             -11.1365
       201        2.0000           -0.4088704             -11.1259
       202        2.0000           -0.4088634             -11.1257
       203        2.0000           -0.4087941             -11.1239
       204        2.0000           -0.4087887             -11.1237
       205        2.0000           -0.3974305             -10.8146 (HOMO)
       206                         -0.3520620              -9.5801 (LUMO)
       207                         -0.3449036              -9.3853
       208                         -0.3448983              -9.3852
       209                         -0.3414744              -9.2920
       210                         -0.3414423              -9.2911
       211                         -0.3386624              -9.2155
       212                         -0.3285230              -8.9396
       213                         -0.3279830              -8.9249
       214                         -0.3238930              -8.8136
       215                         -0.3238833              -8.8133
       216                         -0.3081493              -8.3852
       ...                                ...                  ...
       430                          1.5064179              40.9917
      -------------------------------------------------------------
                  HL-Gap            0.0453686 Eh            1.2345 eV

Wiberg/Mayer (AO) data.
largest (>0.10) Wiberg bond orders for each atom

     #   Z sym  total        # sym  WBO       # sym  WBO       # sym  WBO
 ---------------------------------------------------------------------------
     1  28 Ni   3.008 --    41 N    0.663     7 N    0.663    27 N    0.661
                            20 N    0.661
     2   6 C    3.935 --     3 C    1.365    40 C    1.364    42 H    0.970
     3   6 C    3.922 --     2 C    1.365     7 N    1.213     4 C    1.174
     4   6 C    3.960 --     5 C    1.651     3 C    1.174    43 H    0.975
     5   6 C    3.963 --     4 C    1.651     6 C    1.176    44 H    0.972
     6   6 C    3.919 --     8 C    1.322     7 N    1.222     5 C    1.176
     7   7 N    3.402 --     6 C    1.222     3 C    1.213     1 Ni   0.663
     8   6 C    3.938 --    17 C    1.328     6 C    1.322     9 C    1.025
     9   6 C    3.986 --    16 C    1.386    10 C    1.383     8 C    1.025
    10   6 C    3.988 --    11 C    1.470     9 C    1.383    45 H    0.972
                            15 C    0.101
    11   6 C    3.988 --    10 C    1.470    12 C    1.371    46 H    0.968
                            16 C    0.101
    12   6 C    3.985 --    15 C    1.379    11 C    1.371    13 C    1.048
    13   6 C    3.864 --    14 O    1.809    12 C    1.048    47 H    0.942
    14   8 O    2.005 --    13 C    1.809
    15   6 C    3.993 --    16 C    1.464    12 C    1.379    48 H    0.971
                            10 C    0.101
    16   6 C    3.988 --    15 C    1.464     9 C    1.386    49 H    0.972
                            11 C    0.101
    17   6 C    3.914 --     8 C    1.328    20 N    1.207    18 C    1.182
    18   6 C    3.959 --    19 C    1.638    17 C    1.182    50 H    0.972
    19   6 C    3.961 --    18 C    1.638    21 C    1.190    51 H    0.973
    20   7 N    3.407 --    21 C    1.239    17 C    1.207     1 Ni   0.661
    21   6 C    3.904 --    22 C    1.265    20 N    1.239    19 C    1.190
    22   6 C    3.944 --    23 C    1.266    21 C    1.265   122 C    1.179
    23   6 C    3.904 --    22 C    1.266    27 N    1.237    24 C    1.190
    24   6 C    3.961 --    25 C    1.637    23 C    1.190    52 H    0.973
    25   6 C    3.959 --    24 C    1.637    26 C    1.183    53 H    0.972
    26   6 C    3.914 --    28 C    1.326    27 N    1.208    25 C    1.183
    27   7 N    3.407 --    23 C    1.237    26 C    1.208     1 Ni   0.661
    28   6 C    3.938 --    26 C    1.326    37 C    1.321    29 C    1.030
    29   6 C    3.986 --    30 C    1.383    36 C    1.382    28 C    1.030
    30   6 C    3.988 --    31 C    1.465    29 C    1.383    54 H    0.972
                            35 C    0.101
    31   6 C    3.993 --    30 C    1.465    32 C    1.379    55 H    0.971
                            36 C    0.100
    32   6 C    3.984 --    31 C    1.379    35 C    1.370    33 C    1.048
    33   6 C    3.864 --    34 O    1.809    32 C    1.048    56 H    0.942
    34   8 O    2.005 --    33 C    1.809
    35   6 C    3.988 --    36 C    1.470    32 C    1.370    57 H    0.968
                            30 C    0.101
    36   6 C    3.988 --    35 C    1.470    29 C    1.382    58 H    0.972
                            31 C    0.100
    37   6 C    3.919 --    28 C    1.321    41 N    1.222    38 C    1.176
    38   6 C    3.963 --    39 C    1.650    37 C    1.176    59 H    0.972
    39   6 C    3.959 --    38 C    1.650    40 C    1.174    60 H    0.975
    40   6 C    3.922 --     2 C    1.364    41 N    1.213    39 C    1.174
    41   7 N    3.402 --    37 C    1.222    40 C    1.213     1 Ni   0.663
    42   1 H    1.000 --     2 C    0.970
    43   1 H    0.997 --     4 C    0.975
    44   1 H    1.004 --     5 C    0.972
    45   1 H    1.003 --    10 C    0.972
    46   1 H    1.005 --    11 C    0.968
    47   1 H    1.010 --    13 C    0.942
    48   1 H    1.000 --    15 C    0.971
    49   1 H    1.003 --    16 C    0.972
    50   1 H    1.003 --    18 C    0.972
    51   1 H    1.002 --    19 C    0.973
    52   1 H    1.002 --    24 C    0.973
    53   1 H    1.004 --    25 C    0.972
    54   1 H    1.004 --    30 C    0.972
    55   1 H    1.000 --    31 C    0.971
    56   1 H    1.010 --    33 C    0.942
    57   1 H    1.005 --    35 C    0.968
    58   1 H    1.004 --    36 C    0.972
    59   1 H    1.004 --    38 C    0.972
    60   1 H    0.997 --    39 C    0.975
    61  28 Ni   3.008 --   101 N    0.663    67 N    0.663    80 N    0.661
                            87 N    0.661
    62   6 C    3.935 --    63 C    1.365   100 C    1.364   102 H    0.970
    63   6 C    3.922 --    62 C    1.365    67 N    1.213    64 C    1.174
    64   6 C    3.960 --    65 C    1.651    63 C    1.174   103 H    0.975
    65   6 C    3.963 --    64 C    1.651    66 C    1.176   104 H    0.972
    66   6 C    3.919 --    68 C    1.322    67 N    1.223    65 C    1.176
    67   7 N    3.402 --    66 C    1.223    63 C    1.213    61 Ni   0.663
    68   6 C    3.938 --    77 C    1.328    66 C    1.322    69 C    1.025
    69   6 C    3.986 --    76 C    1.386    70 C    1.383    68 C    1.025
    70   6 C    3.988 --    71 C    1.470    69 C    1.383   105 H    0.972
                            75 C    0.101
    71   6 C    3.988 --    70 C    1.470    72 C    1.371   106 H    0.968
                            76 C    0.101
    72   6 C    3.985 --    75 C    1.380    71 C    1.371    73 C    1.048
    73   6 C    3.864 --    74 O    1.809    72 C    1.048   107 H    0.942
    74   8 O    2.005 --    73 C    1.809
    75   6 C    3.993 --    76 C    1.464    72 C    1.380   108 H    0.971
                            70 C    0.101
    76   6 C    3.988 --    75 C    1.464    69 C    1.386   109 H    0.972
                            71 C    0.101
    77   6 C    3.914 --    68 C    1.328    80 N    1.207    78 C    1.182
    78   6 C    3.959 --    79 C    1.638    77 C    1.182   110 H    0.972
    79   6 C    3.961 --    78 C    1.638    81 C    1.190   111 H    0.973
    80   7 N    3.407 --    81 C    1.239    77 C    1.207    61 Ni   0.661
    81   6 C    3.904 --    82 C    1.265    80 N    1.239    79 C    1.190
    82   6 C    3.944 --    83 C    1.266    81 C    1.265   124 C    1.179
    83   6 C    3.904 --    82 C    1.266    87 N    1.237    84 C    1.190
    84   6 C    3.961 --    85 C    1.637    83 C    1.190   112 H    0.973
    85   6 C    3.959 --    84 C    1.637    86 C    1.183   113 H    0.973
    86   6 C    3.914 --    88 C    1.325    87 N    1.208    85 C    1.183
    87   7 N    3.407 --    83 C    1.237    86 C    1.208    61 Ni   0.661
    88   6 C    3.938 --    86 C    1.325    97 C    1.321    89 C    1.030
    89   6 C    3.986 --    90 C    1.383    96 C    1.381    88 C    1.030
    90   6 C    3.988 --    91 C    1.465    89 C    1.383   114 H    0.972
                            95 C    0.101
    91   6 C    3.993 --    90 C    1.465    92 C    1.379   115 H    0.971
                            96 C    0.100
    92   6 C    3.984 --    91 C    1.379    95 C    1.370    93 C    1.049
    93   6 C    3.864 --    94 O    1.809    92 C    1.049   116 H    0.942
    94   8 O    2.005 --    93 C    1.809
    95   6 C    3.988 --    96 C    1.470    92 C    1.370   117 H    0.968
                            90 C    0.101
    96   6 C    3.988 --    95 C    1.470    89 C    1.381   118 H    0.972
                            91 C    0.100
    97   6 C    3.919 --    88 C    1.321   101 N    1.222    98 C    1.176
    98   6 C    3.962 --    99 C    1.650    97 C    1.176   119 H    0.972
    99   6 C    3.959 --    98 C    1.650   100 C    1.174   120 H    0.975
   100   6 C    3.922 --    62 C    1.364   101 N    1.213    99 C    1.174
   101   7 N    3.402 --    97 C    1.222   100 C    1.213    61 Ni   0.663
   102   1 H    1.000 --    62 C    0.970
   103   1 H    0.997 --    64 C    0.975
   104   1 H    1.004 --    65 C    0.972
   105   1 H    1.003 --    70 C    0.972
   106   1 H    1.005 --    71 C    0.968
   107   1 H    1.010 --    73 C    0.942
   108   1 H    1.000 --    75 C    0.971
   109   1 H    1.003 --    76 C    0.972
   110   1 H    1.003 --    78 C    0.972
   111   1 H    1.002 --    79 C    0.973
   112   1 H    1.002 --    84 C    0.973
   113   1 H    1.003 --    85 C    0.973
   114   1 H    1.004 --    90 C    0.972
   115   1 H    1.000 --    91 C    0.971
   116   1 H    1.010 --    93 C    0.942
   117   1 H    1.005 --    95 C    0.968
   118   1 H    1.004 --    96 C    0.972
   119   1 H    1.004 --    98 C    0.972
   120   1 H    0.997 --    99 C    0.975
   121   6 C    3.938 --   122 C    2.487   123 C    1.301
   122   6 C    3.928 --   121 C    2.487    22 C    1.179   124 C    0.200
   123   6 C    3.938 --   124 C    2.487   121 C    1.301
   124   6 C    3.927 --   123 C    2.487    82 C    1.179   122 C    0.200
 ---------------------------------------------------------------------------

           -------------------------------------------------
          | TOTAL ENERGY             -225.127887356411 Eh   |
          | GRADIENT NORM               0.000642182762 Eh/α |
          | HOMO-LUMO GAP               1.234541667531 eV   |
           -------------------------------------------------

 * finished run on 2022/07/30 at 04:20:24.761
