   * xtb version 6.5.1 (b24c23e) compiled by 'conda@728c89f4b128' on 2022-07-12
          program call               : xtb Zn_PhCN_C6_3.xyz --gfn 1 --opt -T 48

   ID    Z sym.   atoms
    1   30 Zn     1, 59, 129
    2    6 C      2-6, 8-13, 15-19, 21-26, 28-33, 35-40, 60-64, 66-71, 73-77,
                  79-84, 86-91, 93-98, 117-128, 130-134, 136-141, 143-147,
                  149-154, 156-161, 163-168
    3    7 N      7, 14, 20, 27, 34, 41, 65, 72, 78, 85, 92, 99, 135, 142,
                  148, 155, 162, 169
    4    1 H      42-58, 100-116, 170-185

          :  Hamiltonian                  GFN1-xTB          :
 * total energy  :  -326.4567660 Eh     change       -0.7009362E-09 Eh
 * total energy  :  -326.8121468 Eh     change       -0.3553808E+00 Eh
 * total energy  :  -326.9394159 Eh     change       -0.1272691E+00 Eh
 * total energy  :  -327.0364416 Eh     change       -0.9702569E-01 Eh
 * total energy  :  -327.1040369 Eh     change       -0.6759529E-01 Eh
 * total energy  :  -327.1395567 Eh     change       -0.3551984E-01 Eh
 * total energy  :  -327.1623922 Eh     change       -0.2283549E-01 Eh
 * total energy  :  -327.1770297 Eh     change       -0.1463747E-01 Eh
 * total energy  :  -327.1847228 Eh     change       -0.7693054E-02 Eh
 * total energy  :  -327.1927540 Eh     change       -0.8031272E-02 Eh
 * total energy  :  -327.2357142 Eh     change        0.3670695E-06 Eh
 * total energy  :  -327.2357247 Eh     change       -0.1046398E-04 Eh
 * total energy  :  -327.2357262 Eh     change       -0.1521451E-05 Eh
 * total energy  :  -327.2357328 Eh     change       -0.6618365E-05 Eh
 * total energy  :  -327.2357300 Eh     change        0.2819717E-05 Eh
 * total energy  :  -327.2357357 Eh     change       -0.5663424E-05 Eh
 * total energy  :  -327.2357327 Eh     change        0.2935654E-05 Eh
 * total energy  :  -327.2357380 Eh     change       -0.5281207E-05 Eh
 * total energy  :  -327.2357386 Eh     change       -0.5690895E-06 Eh
   *** GEOMETRY OPTIMIZATION CONVERGED AFTER 59 ITERATIONS ***

 final structure:
================
185
 xtb: 6.5.1 (b24c23e)
Zn          31.17635855430875        0.03072378095632        0.01653025363615
C           27.76807782666415        0.05419599223090        0.11041744027115
C           28.40106070343178        1.27299319501596        0.32224563837882
C           27.73016924631730        2.52348327211811        0.54339487729929
C           28.69144973344190        3.46684539671456        0.70334496430222
C           29.96277232872128        2.80105442387885        0.59345237800250
N           29.75115964973747        1.47528925426975        0.35325586524635
C           31.21618906569875        3.41829632992270        0.69088338383331
C           31.23297815000593        4.87387011952953        0.97624127414681
C           30.69123268505132        5.37000051913343        2.16440325590796
C           30.70529586235265        6.72677051411202        2.43366292465564
C           31.25983091185161        7.61873693168130        1.51084062146676
C           31.27188549355929        9.01601934983618        1.78196616481659
N           31.28073861790814       10.14612097539253        1.99983980913440
C           31.80196504551331        7.12789342253539        0.31926226695683
C           31.78947672324500        5.76924716031507        0.05970424154238
C           32.45374089075004        2.78194557946256        0.54379049799390
C           33.73546094866000        3.41186146053650        0.70318879661061
C           34.67849521299298        2.45759638164893        0.49698206916221
N           32.64274771070204        1.45638689367326        0.25747801476756
C           33.98388013742981        1.23514560982112        0.21779766664298
C           34.61101177044094        0.00325236808371       -0.05869829244490
C           33.95296752536592       -1.21664061494287       -0.31496315949184
C           34.61500908321356       -2.44751598128873       -0.63323964332974
C           33.64858620133049       -3.38504860252667       -0.80537101865624
C           32.38535903098720       -2.73700659858641       -0.58271087934971
N           32.60796526840695       -1.41646869695206       -0.29726860661199
C           31.13250004853204       -3.35437290002718       -0.67022875256707
C           31.11215646905509       -4.80805876400784       -0.96429928302979
C           30.49549948214193       -5.28876535875863       -2.12198090757105
C           30.47493784482382       -6.64373206063853       -2.39992336133234
C           31.06988156751317       -7.54947696042909       -1.51657514455792
C           31.04832433761417       -8.94473931220476       -1.79718836640771
N           31.03089680366476      -10.07289280736655       -2.02342911067972
C           31.68604888320097       -7.07430122792105       -0.35497583002540
C           31.70729037680379       -5.71747158708524       -0.08661567362923
C           29.89502222150072       -2.72010747508339       -0.50205500718025
C           28.61058357953716       -3.36850874668577       -0.54159836446393
C           27.67274692992875       -2.41323489844839       -0.32373242549890
C           28.37180177736231       -1.17247526295603       -0.13801508761617
N           29.71519075393248       -1.39264300736724       -0.24614070083559
H           26.68294189522715        0.06131498885314        0.14155550824255
H           26.65940739909317        2.65274735965242        0.56311421582706
H           28.55607860454112        4.52354123340270        0.86976244392032
H           30.27118518932206        4.68048992915586        2.88804929549030
H           30.28831460157130        7.10316268831808        3.36046585213751
H           32.22978541472545        7.81661694365107       -0.39987313574163
H           32.19991878913626        5.39374476059576       -0.87091519777480
H           33.89244395237044        4.44843664772849        0.95447357023349
H           35.75094188106625        2.56344972293390        0.53530186526498
H           35.68294128354831       -2.56919131014090       -0.72044183429039
H           33.77778934490459       -4.42153212241092       -1.07240391030216
H           30.04381921518754       -4.58875391938907       -2.81587745335527
H           29.99933055864386       -7.00797853748908       -3.30303874879872
H           32.14474001415648       -7.77378230136339        0.33408593389998
H           32.17515483442962       -5.35420425142254        0.82148028949647
H           28.45161569806847       -4.42269578778297       -0.70294105903242
H           26.60099221711179       -2.52836924582202       -0.28233172790956
Zn          63.27784832365974        0.00214347647875        0.03695280771320
C           66.68689626436948       -0.02600497486775        0.09926859783279
C           66.05327397335782       -1.23042552957085        0.37999826231604
C           66.72340052533065       -2.46948675398193        0.66009801887714
C           65.76155120211553       -3.40111055038857        0.87559218479440
C           64.49069270675396       -2.73896917047140        0.74066091455993
N           64.70305385926508       -1.42764859961728        0.43182444339886
C           63.23698287969589       -3.34837745674677        0.87559232373790
C           63.21991224391716       -4.78761443889706        1.23456523887747
C           63.76539438471713       -5.22264911253172        2.44476849556459
C           63.75008665989350       -6.56364428916961        2.78397828370546
C           63.19050626114854       -7.50107016261702        1.91059156731093
C           63.17512304943570       -8.88217909180553        2.25449100560185
N           63.16525616957911       -9.99869008723859        2.53291800348104
C           62.64544743094636       -7.07159180122106        0.69684295997683
C           62.65924605997187       -5.72821999033013        0.36723376809358
C           61.99951256591085       -2.71823490515635        0.70302651388805
C           60.71769289976652       -3.33834208125675        0.89716066584364
C           59.77487475689892       -2.39352562357692        0.65084959569760
N           61.81083556800263       -1.40736423516767        0.35586344844820
C           60.46962996441617       -1.18604567423584        0.31262458543062
C           59.84295490587957        0.03450866704683       -0.00950206356672
C           60.50066178360443        1.24128983872684       -0.32081553093025
C           59.83797429519125        2.45833719748252       -0.68765730657673
C           60.80470147900754        3.38293022133754       -0.91767064670960
C           62.06901034589774        2.74159270589512       -0.68166038759741
N           61.84645227277304        1.43739517444013       -0.32939171622336
C           63.32259566342692        3.34827999831446       -0.81924307276119
C           63.34438381081954        4.78285931264086       -1.19554808427212
C           63.94631591803727        5.19188590250066       -2.38807706085538
C           63.96841943895298        6.52799811499956       -2.74537343254274
C           63.38987604776391        7.48689066723653       -1.90830949650292
C           63.41482102664935        8.86335725959681       -2.26988092747292
N           63.43385695261799        9.97489419234264       -2.56721184467963
C           62.78837636129409        7.08359967079078       -0.71242823708261
C           62.76552901789180        5.74494681637317       -0.36449568791837
C           64.56015188536162        2.71896450443070       -0.63411118494625
C           65.84578313607703        3.36017907656177       -0.72287313573809
C           66.78356235741059        2.41477904684744       -0.46542202362749
C           66.08346553132327        1.18771891222655       -0.20674547127338
N           64.73948352581623        1.40619611507067       -0.31096139880825
H           67.77227072195426       -0.03449656991409        0.12000841669535
H           67.79401738148032       -2.60011941801155        0.67837474933041
H           65.89610173016409       -4.44814823385470        1.09521543320964
H           64.18925516662239       -4.49736573526780        3.13021999595417
H           64.16972117780846       -6.89228400487009        3.72760851287309
H           62.21409580005781       -7.79587918083705        0.01577242499863
H           62.24630682834711       -5.40065759451922       -0.58022996657987
H           60.56065246304866       -4.36189495733307        1.19709285451136
H           58.70247265311509       -2.49583175219568        0.69906619547310
H           58.76933150145166        2.57962529196279       -0.76625727978765
H           60.67477113848118        4.40593062935526       -1.23210797848059
H           64.38510044935896        4.45001160062337       -3.04583736556553
H           64.43233037149646        6.83635051037929       -3.67501877215277
H           62.34235149970338        7.82448638074322       -0.05924107579918
H           62.30937722933628        5.43805674166725        0.56996737571424
H           66.00546127923448        4.40393633968401       -0.94129965983336
H           67.85603036026875        2.52844050816271       -0.44230016328472
C           39.81277149954842       -0.00886621420697       -0.09079984979713
C           38.58425631089288       -0.01080220622489       -0.08867139034175
C           37.24011752139415       -0.01111216569446       -0.08587133696384
C           36.01604023011839       -0.00807185859341       -0.07780403119332
C           41.15677069804637       -0.00372589686668       -0.08453242608390
C           42.38098506660296        0.00297755940477       -0.07817230203540
C           55.86852945470413        0.05585746362791       -0.02628702308463
C           54.64027716655164        0.05473566915730       -0.02644322197786
C           53.29566887215950        0.05062141658705       -0.02430692145145
C           52.07169397052887        0.04429151824359       -0.02290402404550
C           57.21326754545854        0.05296460479902       -0.02523308656907
C           58.43708856711415        0.04780958799298       -0.02061929747698
Zn          47.22612279799790        0.02155674968950       -0.04355050805967
C           43.78558184159264        0.00909472407181       -0.06861914668081
C           44.43728931904294       -1.16114375469423       -0.50818557231473
C           43.76731788160757       -2.35490810907673       -0.93156980304387
C           44.72920577940202       -3.24616869782738       -1.28333982610011
C           45.99662742485170       -2.60003535240273       -1.08576149929036
N           45.78234844940555       -1.33651763503134       -0.60427957210951
C           47.24696836072830       -3.18158601354340       -1.32366815104343
C           47.25491749848254       -4.55636762237030       -1.88179705542997
C           46.69420660163684       -4.81347228383188       -3.13507688710212
C           46.70271704139923       -6.09215278669814       -3.66261027061975
C           47.27033038280327       -7.14496324991400       -2.93871583520388
C           47.27782855328658       -8.46258197068660       -3.47727634763804
N           47.28775163525924       -9.52788669012249       -3.91241950891079
C           47.82962109730710       -6.89388420139659       -1.68221338361276
C           47.82288410623040       -5.61129641911539       -1.16385382989332
C           48.48982837592280       -2.58377402085152       -1.08692759328867
C           49.76545231312113       -3.17414839196346       -1.38236308626280
C           50.71558387026668       -2.27528738102434       -1.01844156287927
N           48.68761653468460       -1.33425907704011       -0.56371263911797
C           50.03025752900471       -1.12533661995605       -0.50711255033534
C           50.66635826116904        0.03647565694546       -0.02526074614547
C           50.01494275479256        1.19102947353078        0.45343909974863
C           50.68471415091201        2.34469853561287        0.97672603944663
C           49.72296574250295        3.23419220318032        1.33309390000007
C           48.45577827258114        2.63484732436669        1.01973831249776
N           48.67001336011413        1.38844322503092        0.49563022075526
C           47.20533655913080        3.22360530591958        1.23928796423764
C           47.19592755493942        4.59858038491033        1.79665224484797
C           46.61061439618195        4.85452652953703        3.03890070314782
C           46.60332267301144        6.13385675338894        3.56495722996441
C           47.17981834196107        7.18848809103422        2.85076395351246
C           47.17241417478809        8.50667796993911        3.38791083413854
N           47.16664282522858        9.57221109093341        3.82255518457449
C           47.76379525322163        6.93859379843102        1.60532585542386
C           47.77240612905234        5.65551000663933        1.08836762873432
C           45.96269630747603        2.63359364309956        0.98204199071523
C           44.68793943356717        3.27116458879894        1.15942967465997
C           43.73770849295087        2.37328418572756        0.79303151876845
C           44.42224946682959        1.18401597607840        0.38047212482599
N           45.76447742379318        1.36863211808291        0.49746003745654
H           42.69756909892400       -2.48957233094787       -0.94828705778865
H           44.59355689370251       -4.25672353184666       -1.63347557852233
H           46.26337405462391       -3.99739345161088       -3.70419374056717
H           46.27124410173535       -6.28241705291193       -4.63837243762365
H           48.26667455113511       -7.70837604550726       -1.11646617948950
H           48.24725781013127       -5.42261068523229       -0.18416779052544
H           49.91419461148526       -4.14642742554719       -1.82367958564533
H           51.78686988549097       -2.37256406457990       -1.09368876720578
H           51.75420549883687        2.45014988387525        1.06532170534131
H           49.85861414619936        4.20556412869383        1.78055681584350
H           46.17316298185216        4.03711203626155        3.60102307378999
H           46.15275650283335        6.32318086171121        4.53225007524182
H           48.20805546903154        7.75436647276392        1.04710365051792
H           48.21584160695276        5.46783870168919        0.11697584420548
H           44.53994069356296        4.28100119026255        1.50664985529581
H           42.66694161854944        2.50072801295551        0.79277851665717

          :  Hamiltonian                  GFN1-xTB          :
         :: total energy            -327.235738603695 Eh    ::
         :: gradient norm              0.000945319116 Eh/a0 ::
         :: HOMO-LUMO gap              0.969260378459 eV    ::
         :: SCC energy              -332.985658479252 Eh    ::
         :: repulsion energy           5.918529820194 Eh    ::

    * Orbital Energies and Occupations

         #    Occupation            Energy/Eh            Energy/eV
      -------------------------------------------------------------
         1        2.0000           -0.7725338             -21.0217
       ...           ...                  ...                  ...
       289        2.0000           -0.4321408             -11.7591
       290        2.0000           -0.4319893             -11.7550
       291        2.0000           -0.4319604             -11.7542
       292        2.0000           -0.4296870             -11.6924
       293        2.0000           -0.4233283             -11.5194
       294        2.0000           -0.4209052             -11.4534
       295        2.0000           -0.4203508             -11.4383
       296        2.0000           -0.4059191             -11.0456
       297        2.0000           -0.4046444             -11.0109
       298        2.0000           -0.4046082             -11.0099
       299        2.0000           -0.3986482             -10.8478
       300        2.0000           -0.3929266             -10.6921
       301        2.0000           -0.3862845             -10.5113 (HOMO)
       302                         -0.3506648              -9.5421 (LUMO)
       303                         -0.3420319              -9.3072
       304                         -0.3398573              -9.2480
       305                         -0.3389690              -9.2238
       306                         -0.3389297              -9.2227
       307                         -0.3363396              -9.1523
       308                         -0.3164710              -8.6116
       309                         -0.3109235              -8.4607
       310                         -0.3098411              -8.4312
       311                         -0.3024247              -8.2294
       312                         -0.3017802              -8.2119
       ...                                ...                  ...
       640                          1.5719373              42.7746
      -------------------------------------------------------------
                  HL-Gap            0.0356197 Eh            0.9693 eV

Wiberg/Mayer (AO) data.
largest (>0.10) Wiberg bond orders for each atom

     #   Z sym  total        # sym  WBO       # sym  WBO       # sym  WBO
 ---------------------------------------------------------------------------
     1  30 Zn   1.994 --    41 N    0.459     7 N    0.459    20 N    0.455
                            27 N    0.455
     2   6 C    3.928 --    40 C    1.358     3 C    1.358    42 H    0.971
     3   6 C    3.921 --     2 C    1.358     7 N    1.232     4 C    1.170
     4   6 C    3.960 --     5 C    1.660     3 C    1.170    43 H    0.975
     5   6 C    3.963 --     4 C    1.660     6 C    1.171    44 H    0.973
     6   6 C    3.918 --     8 C    1.312     7 N    1.246     5 C    1.171
     7   7 N    3.293 --     6 C    1.246     3 C    1.232     1 Zn   0.459
     8   6 C    3.932 --    17 C    1.322     6 C    1.312     9 C    1.031
     9   6 C    3.963 --    10 C    1.385    16 C    1.385     8 C    1.031
    10   6 C    3.987 --    11 C    1.464     9 C    1.385    45 H    0.971
                            15 C    0.102
    11   6 C    3.993 --    10 C    1.464    12 C    1.364    46 H    0.972
                            16 C    0.102
    12   6 C    3.984 --    11 C    1.364    15 C    1.364    13 C    1.098
    13   6 C    3.957 --    14 N    2.819    12 C    1.098
    14   7 N    2.972 --    13 C    2.819
    15   6 C    3.993 --    16 C    1.464    12 C    1.364    47 H    0.972
                            10 C    0.102
    16   6 C    3.987 --    15 C    1.464     9 C    1.385    48 H    0.971
                            11 C    0.102
    17   6 C    3.912 --     8 C    1.322    20 N    1.226    18 C    1.178
    18   6 C    3.959 --    19 C    1.647    17 C    1.178    49 H    0.973
    19   6 C    3.962 --    18 C    1.647    21 C    1.186    50 H    0.974
    20   7 N    3.296 --    21 C    1.263    17 C    1.226     1 Zn   0.455
    21   6 C    3.900 --    20 N    1.263    22 C    1.253    19 C    1.186
    22   6 C    3.939 --    23 C    1.254    21 C    1.253   120 C    1.193
    23   6 C    3.901 --    27 N    1.263    22 C    1.254    24 C    1.186
    24   6 C    3.962 --    25 C    1.647    23 C    1.186    51 H    0.974
    25   6 C    3.959 --    24 C    1.647    26 C    1.178    52 H    0.973
    26   6 C    3.912 --    28 C    1.322    27 N    1.226    25 C    1.178
    27   7 N    3.296 --    23 C    1.263    26 C    1.226     1 Zn   0.455
    28   6 C    3.932 --    26 C    1.322    37 C    1.312    29 C    1.031
    29   6 C    3.963 --    30 C    1.385    36 C    1.385    28 C    1.031
    30   6 C    3.987 --    31 C    1.464    29 C    1.385    53 H    0.971
                            35 C    0.102
    31   6 C    3.993 --    30 C    1.464    32 C    1.364    54 H    0.972
                            36 C    0.102
    32   6 C    3.984 --    31 C    1.364    35 C    1.364    33 C    1.098
    33   6 C    3.957 --    34 N    2.819    32 C    1.098
    34   7 N    2.972 --    33 C    2.819
    35   6 C    3.993 --    36 C    1.464    32 C    1.364    55 H    0.972
                            30 C    0.102
    36   6 C    3.987 --    35 C    1.464    29 C    1.385    56 H    0.971
                            31 C    0.102
    37   6 C    3.918 --    28 C    1.312    41 N    1.246    38 C    1.171
    38   6 C    3.963 --    39 C    1.660    37 C    1.171    57 H    0.973
    39   6 C    3.960 --    38 C    1.660    40 C    1.170    58 H    0.975
    40   6 C    3.921 --     2 C    1.358    41 N    1.232    39 C    1.170
    41   7 N    3.294 --    37 C    1.246    40 C    1.232     1 Zn   0.459
    42   1 H    1.001 --     2 C    0.971
    43   1 H    0.998 --     4 C    0.975
    44   1 H    1.004 --     5 C    0.973
    45   1 H    1.004 --    10 C    0.971
    46   1 H    1.000 --    11 C    0.972
    47   1 H    1.000 --    15 C    0.972
    48   1 H    1.004 --    16 C    0.971
    49   1 H    1.004 --    18 C    0.973
    50   1 H    1.002 --    19 C    0.974
    51   1 H    1.002 --    24 C    0.974
    52   1 H    1.004 --    25 C    0.973
    53   1 H    1.004 --    30 C    0.971
    54   1 H    1.000 --    31 C    0.972
    55   1 H    1.000 --    35 C    0.972
    56   1 H    1.004 --    36 C    0.971
    57   1 H    1.004 --    38 C    0.973
    58   1 H    0.998 --    39 C    0.975
    59  30 Zn   1.994 --    99 N    0.459    65 N    0.459    78 N    0.455
                            85 N    0.455
    60   6 C    3.929 --    98 C    1.358    61 C    1.358   100 H    0.971
    61   6 C    3.921 --    60 C    1.358    65 N    1.232    62 C    1.170
    62   6 C    3.960 --    63 C    1.660    61 C    1.170   101 H    0.975
    63   6 C    3.963 --    62 C    1.660    64 C    1.171   102 H    0.973
    64   6 C    3.918 --    66 C    1.313    65 N    1.246    63 C    1.171
    65   7 N    3.294 --    64 C    1.246    61 C    1.232    59 Zn   0.459
    66   6 C    3.932 --    75 C    1.322    64 C    1.313    67 C    1.030
    67   6 C    3.963 --    74 C    1.385    68 C    1.385    66 C    1.030
    68   6 C    3.987 --    69 C    1.464    67 C    1.385   103 H    0.971
                            73 C    0.102
    69   6 C    3.993 --    68 C    1.464    70 C    1.364   104 H    0.972
                            74 C    0.102
    70   6 C    3.984 --    69 C    1.364    73 C    1.364    71 C    1.098
    71   6 C    3.957 --    72 N    2.819    70 C    1.098
    72   7 N    2.972 --    71 C    2.819
    73   6 C    3.993 --    74 C    1.464    70 C    1.364   105 H    0.972
                            68 C    0.102
    74   6 C    3.987 --    73 C    1.464    67 C    1.385   106 H    0.971
                            69 C    0.102
    75   6 C    3.912 --    66 C    1.322    78 N    1.227    76 C    1.178
    76   6 C    3.960 --    77 C    1.647    75 C    1.178   107 H    0.973
    77   6 C    3.962 --    76 C    1.647    79 C    1.185   108 H    0.974
    78   7 N    3.297 --    79 C    1.262    75 C    1.227    59 Zn   0.455
    79   6 C    3.901 --    78 N    1.262    80 C    1.255    77 C    1.185
    80   6 C    3.940 --    81 C    1.255    79 C    1.255   128 C    1.189
    81   6 C    3.901 --    85 N    1.262    80 C    1.255    82 C    1.185
    82   6 C    3.962 --    83 C    1.647    81 C    1.185   109 H    0.974
    83   6 C    3.960 --    82 C    1.647    84 C    1.178   110 H    0.973
    84   6 C    3.912 --    86 C    1.322    85 N    1.227    83 C    1.178
    85   7 N    3.297 --    81 C    1.262    84 C    1.227    59 Zn   0.455
    86   6 C    3.932 --    84 C    1.322    95 C    1.312    87 C    1.031
    87   6 C    3.963 --    94 C    1.385    88 C    1.385    86 C    1.031
    88   6 C    3.987 --    89 C    1.464    87 C    1.385   111 H    0.971
                            93 C    0.102
    89   6 C    3.993 --    88 C    1.464    90 C    1.363   112 H    0.972
                            94 C    0.102
    90   6 C    3.984 --    93 C    1.364    89 C    1.363    91 C    1.098
    91   6 C    3.957 --    92 N    2.819    90 C    1.098
    92   7 N    2.972 --    91 C    2.819
    93   6 C    3.993 --    94 C    1.464    90 C    1.364   113 H    0.972
                            88 C    0.102
    94   6 C    3.987 --    93 C    1.464    87 C    1.385   114 H    0.971
                            89 C    0.102
    95   6 C    3.918 --    86 C    1.312    99 N    1.246    96 C    1.171
    96   6 C    3.963 --    97 C    1.660    95 C    1.171   115 H    0.973
    97   6 C    3.960 --    96 C    1.660    98 C    1.170   116 H    0.975
    98   6 C    3.921 --    60 C    1.358    99 N    1.232    97 C    1.170
    99   7 N    3.294 --    95 C    1.246    98 C    1.232    59 Zn   0.459
   100   1 H    1.001 --    60 C    0.971
   101   1 H    0.998 --    62 C    0.975
   102   1 H    1.004 --    63 C    0.973
   103   1 H    1.004 --    68 C    0.971
   104   1 H    1.000 --    69 C    0.972
   105   1 H    1.000 --    73 C    0.972
   106   1 H    1.004 --    74 C    0.971
   107   1 H    1.004 --    76 C    0.973
   108   1 H    1.002 --    77 C    0.974
   109   1 H    1.002 --    82 C    0.974
   110   1 H    1.004 --    83 C    0.973
   111   1 H    1.004 --    88 C    0.971
   112   1 H    1.000 --    89 C    0.972
   113   1 H    1.000 --    93 C    0.972
   114   1 H    1.004 --    94 C    0.971
   115   1 H    1.004 --    96 C    0.973
   116   1 H    0.998 --    97 C    0.975
   117   6 C    3.926 --   118 C    2.366   121 C    1.337   120 C    0.190
   118   6 C    3.924 --   117 C    2.366   119 C    1.336   122 C    0.190
   119   6 C    3.934 --   120 C    2.447   118 C    1.336
   120   6 C    3.890 --   119 C    2.447    22 C    1.193   117 C    0.190
   121   6 C    3.931 --   122 C    2.445   117 C    1.337
   122   6 C    3.890 --   121 C    2.445   130 C    1.195   118 C    0.190
   123   6 C    3.923 --   124 C    2.370   127 C    1.333   126 C    0.190
   124   6 C    3.925 --   123 C    2.370   125 C    1.334   128 C    0.190
   125   6 C    3.931 --   126 C    2.449   124 C    1.334
   126   6 C    3.890 --   125 C    2.449   150 C    1.192   123 C    0.190
   127   6 C    3.934 --   128 C    2.451   123 C    1.333
   128   6 C    3.889 --   127 C    2.451    80 C    1.189   124 C    0.190
   129  30 Zn   1.991 --   155 N    0.456   135 N    0.456   169 N    0.456
                           148 N    0.456
   130   6 C    3.928 --   168 C    1.251   131 C    1.251   122 C    1.195
   131   6 C    3.901 --   135 N    1.263   130 C    1.251   132 C    1.188
   132   6 C    3.960 --   133 C    1.644   131 C    1.188   170 H    0.974
   133   6 C    3.960 --   132 C    1.644   134 C    1.181   171 H    0.973
   134   6 C    3.910 --   136 C    1.318   135 N    1.226   133 C    1.181
   135   7 N    3.292 --   131 C    1.263   134 C    1.226   129 Zn   0.456
   136   6 C    3.928 --   134 C    1.318   145 C    1.318   137 C    1.030
   137   6 C    3.963 --   144 C    1.386   138 C    1.385   136 C    1.030
   138   6 C    3.987 --   139 C    1.464   137 C    1.385   172 H    0.971
                           143 C    0.102
   139   6 C    3.993 --   138 C    1.464   140 C    1.364   173 H    0.972
                           144 C    0.102
   140   6 C    3.984 --   143 C    1.364   139 C    1.364   141 C    1.098
   141   6 C    3.957 --   142 N    2.819   140 C    1.098
   142   7 N    2.973 --   141 C    2.819
   143   6 C    3.993 --   144 C    1.463   140 C    1.364   174 H    0.972
                           138 C    0.102
   144   6 C    3.987 --   143 C    1.463   137 C    1.386   175 H    0.971
                           139 C    0.102
   145   6 C    3.910 --   136 C    1.318   148 N    1.226   146 C    1.181
   146   6 C    3.960 --   147 C    1.644   145 C    1.181   176 H    0.973
   147   6 C    3.960 --   146 C    1.644   149 C    1.187   177 H    0.974
   148   7 N    3.291 --   149 C    1.262   145 C    1.226   129 Zn   0.456
   149   6 C    3.901 --   148 N    1.262   150 C    1.253   147 C    1.187
   150   6 C    3.928 --   151 C    1.253   149 C    1.253   126 C    1.192
   151   6 C    3.901 --   155 N    1.262   150 C    1.253   152 C    1.187
   152   6 C    3.960 --   153 C    1.644   151 C    1.187   178 H    0.974
   153   6 C    3.960 --   152 C    1.644   154 C    1.181   179 H    0.973
   154   6 C    3.910 --   156 C    1.318   155 N    1.226   153 C    1.181
   155   7 N    3.291 --   151 C    1.262   154 C    1.226   129 Zn   0.456
   156   6 C    3.928 --   165 C    1.318   154 C    1.318   157 C    1.030
   157   6 C    3.963 --   164 C    1.385   158 C    1.385   156 C    1.030
   158   6 C    3.987 --   159 C    1.464   157 C    1.385   180 H    0.971
                           163 C    0.102
   159   6 C    3.993 --   158 C    1.464   160 C    1.364   181 H    0.972
                           164 C    0.102
   160   6 C    3.984 --   163 C    1.364   159 C    1.364   161 C    1.098
   161   6 C    3.957 --   162 N    2.819   160 C    1.098
   162   7 N    2.973 --   161 C    2.819
   163   6 C    3.993 --   164 C    1.464   160 C    1.364   182 H    0.972
                           158 C    0.102
   164   6 C    3.987 --   163 C    1.464   157 C    1.385   183 H    0.971
                           159 C    0.102
   165   6 C    3.910 --   156 C    1.318   169 N    1.226   166 C    1.181
   166   6 C    3.960 --   167 C    1.644   165 C    1.181   184 H    0.973
   167   6 C    3.960 --   166 C    1.644   168 C    1.188   185 H    0.974
   168   6 C    3.901 --   169 N    1.263   130 C    1.251   167 C    1.188
   169   7 N    3.292 --   168 C    1.263   165 C    1.226   129 Zn   0.456
   170   1 H    1.002 --   132 C    0.974
   171   1 H    1.004 --   133 C    0.973
   172   1 H    1.004 --   138 C    0.971
   173   1 H    1.000 --   139 C    0.972
   174   1 H    1.000 --   143 C    0.972
   175   1 H    1.004 --   144 C    0.971
   176   1 H    1.004 --   146 C    0.973
   177   1 H    1.002 --   147 C    0.974
   178   1 H    1.002 --   152 C    0.974
   179   1 H    1.004 --   153 C    0.973
   180   1 H    1.004 --   158 C    0.971
   181   1 H    1.000 --   159 C    0.972
   182   1 H    1.000 --   163 C    0.972
   183   1 H    1.004 --   164 C    0.971
   184   1 H    1.004 --   166 C    0.973
   185   1 H    1.002 --   167 C    0.974
 ---------------------------------------------------------------------------

           -------------------------------------------------
          | TOTAL ENERGY             -327.235738603695 Eh   |
          | GRADIENT NORM               0.000945319116 Eh/α |
          | HOMO-LUMO GAP               0.969260378459 eV   |
           -------------------------------------------------

 * finished run on 2022/07/30 at 16:32:03.467
