   * xtb version 6.5.1 (b24c23e) compiled by 'conda@728c89f4b128' on 2022-07-12
          program call               : xtb Co_p-CP_C2_3.xyz --gfn 1 --opt -T 48

   ID    Z sym.   atoms
    1   27 Co     1, 63, 129
    2    6 C      2-6, 8-11, 13-24, 27-32, 35-39, 42, 43, 64-68, 70-73,
                  75-86, 89-94, 97-101, 104, 105, 125-128, 130-134, 136-139,
                  141-152, 155-160, 163-167, 170, 171
    3    7 N      7, 12, 33, 34, 69, 74, 95, 96, 135, 140, 161, 162
    4    8 O      25, 26, 40, 41, 87, 88, 102, 103, 153, 154, 168, 169
    5    1 H      44-62, 106-124, 172-189
########################################################################
[WARNING] Please study the warnings concerning your input carefully
-1- prog_main_parseArguments: Unknown option '-T' provided
########################################################################

          :  Hamiltonian                  GFN1-xTB          :
 * total energy  :  -358.6576388 Eh     change        0.6024493E-08 Eh
 * total energy  :  -359.2200240 Eh     change       -0.5623851E+00 Eh
 * total energy  :  -359.3721021 Eh     change       -0.1520782E+00 Eh
 * total energy  :  -359.4509138 Eh     change       -0.7881169E-01 Eh
 * total energy  :  -359.4836405 Eh     change       -0.3272668E-01 Eh
 * total energy  :  -359.5000779 Eh     change       -0.1643741E-01 Eh
 * total energy  :  -359.5088399 Eh     change       -0.8761925E-02 Eh
 * total energy  :  -359.5136594 Eh     change       -0.4819537E-02 Eh
 * total energy  :  -359.5160954 Eh     change       -0.2435974E-02 Eh
 * total energy  :  -359.5173089 Eh     change       -0.1213574E-02 Eh
 * total energy  :  -359.5227336 Eh     change       -0.6403210E-04 Eh
 * total energy  :  -359.5227657 Eh     change       -0.3204153E-04 Eh
 * total energy  :  -359.5227955 Eh     change       -0.2985690E-04 Eh
 * total energy  :  -359.5228218 Eh     change       -0.2632858E-04 Eh
 * total energy  :  -359.5228331 Eh     change       -0.1129617E-04 Eh
 * total energy  :  -359.5228444 Eh     change       -0.1126754E-04 Eh
 * total energy  :  -359.5228532 Eh     change       -0.8783510E-05 Eh
 * total energy  :  -359.5228587 Eh     change       -0.5541267E-05 Eh
 * total energy  :  -359.5228637 Eh     change       -0.4986072E-05 Eh
   *** GEOMETRY OPTIMIZATION CONVERGED AFTER 44 ITERATIONS ***

 final structure:
================
189
 xtb: 6.5.1 (b24c23e)
Co          38.64766536341801       -0.05625048102225        0.01631371112835
C           35.28395068234546       -0.16774975173866        0.04442468791031
C           35.96108346410616       -0.45744767801369        1.20979016290861
C           35.32104301185785       -0.80668645430424        2.44174068361232
C           36.27967979444090       -0.78837993895996        3.39699299713792
C           37.50861536143040       -0.43479800825269        2.74731655365363
N           37.30955928188812       -0.28549014849282        1.39818819637503
C           38.67895630849378       -0.10038911113423        3.41540636182357
C           39.83638017317890        0.25325754105100        2.73669841139538
C           41.07547934975696        0.58925295339535        3.37220856082822
C           42.01893131285255        0.62168349913151        2.40065648852329
N           40.01463875426475        0.13383087873157        1.37785796064711
C           41.35764448239568        0.29941865883274        1.17530960395442
C           42.02740362342983       -0.00239312441255       -0.00994377701389
C           41.34527452236333       -0.30246833955661       -1.18808129940523
C           41.98886165593252       -0.61669047687591       -2.42476433745269
C           41.03084742283085       -0.57752507368717       -3.38259045284401
C           39.80409220335874       -0.23632406814742       -2.72721072352866
C           38.61866162993437        0.06566367695209       -3.38412970148368
C           38.61332292539086        0.14012681271471       -4.86129028922821
C           37.76323926110972       -0.67644805663360       -5.61229270354499
C           37.75708926374725       -0.59523566375581       -6.99245366338372
C           38.59700322534645        0.30692618134269       -7.64824483040417
C           38.54739173905503        0.36358833380814       -9.12895402141072
O           39.39081401113751        1.26139566607754       -9.66045409937903
O           37.82763868465010       -0.31965206847483       -9.81196361494502
C           39.44928457161231        1.12285750752223       -6.90352875831184
C           39.45792437627772        1.03594813686128       -5.52257192349929
C           37.43835290973099        0.29402534429176       -2.68902195058383
C           36.18582283473702        0.62945288223172       -3.30189735369632
C           35.24148818839059        0.54424925222121       -2.33545721420329
C           35.91931548858869        0.17863597904378       -1.12897871578139
N           37.27243244182838        0.09535571897100       -1.34178472868553
N           39.99836120558307       -0.14074011585541       -1.37008189479356
C           38.69359071640067       -0.13411645119116        4.89663810950665
C           38.53494619108876       -1.34688731830125        5.57172132079827
C           38.54976219793929       -1.38213458169301        6.95384003759273
C           38.72017944520721       -0.20535154761665        7.68553723271767
C           38.72817593903659       -0.29485157955071        9.16549835579651
O           38.90585415723604        0.88740325593864        9.77413858199337
O           38.59060970048839       -1.31856789971002        9.78546333417156
C           38.87693112604017        1.00805722518911        7.01521605860913
C           38.86515377800180        1.04086098356643        5.63137865179293
H           34.20107994021213       -0.20329015841817        0.05435288285913
H           34.26781844235676       -1.01349471302840        2.54537230365815
H           36.17302992636406       -0.97235096825821        4.45366808608619
H           41.20166702068480        0.75174921850431        4.43014662609780
H           43.07469192878936        0.82037473078458        2.49232629333622
H           43.04171902696307       -0.82310781204915       -2.53167161113521
H           41.13376302595342       -0.76187939862440       -4.43960921944531
H           37.11965028963920       -1.38699848940004       -5.10625468652996
H           37.10260805909733       -1.22843414941860       -7.58138498019733
H           39.29676602820649        1.23701402220970      -10.62658514320163
H           40.10139298284145        1.82584579500074       -7.40822375655012
H           40.11021915941508        1.67983630706481       -4.94339388177514
H           36.05836734516719        0.88915577427566       -4.34026161878216
H           34.17827952650209        0.70632254919943       -2.41361706058762
H           38.41534417016107       -2.26285113041625        5.00444176684148
H           38.43139506745946       -2.32002452466294        7.48529592848594
H           38.89932178064532        0.74266208916205       10.73428222636225
H           39.00576927309707        1.92403687418549        7.57959190462414
H           38.97382311128455        1.98545170090154        5.11055765101968
Co          60.22016826812618       -0.04322761790458       -0.05663797961996
C           63.58267372938325       -0.15000124099810       -0.10195771415326
C           62.90403987696730       -0.30568927294201       -1.29205281654059
C           63.54105973534735       -0.51374983631464       -2.55707970150571
C           62.58090064025939       -0.38325042708142       -3.50227451184522
C           61.35439761523155       -0.10214205617234       -2.81398610275591
N           61.55588558029521       -0.10968552058568       -1.45725702287337
C           60.18438948668342        0.31364310645163       -3.43603922204488
C           59.02979945608566        0.59084611099408       -2.71828526119489
C           57.79128989445114        1.00555194433526       -3.30645076223280
C           56.84903655474904        0.92233112214500       -2.33654312392788
N           58.85222433791294        0.30857374644380       -1.38338141250735
C           57.51060967446158        0.45175275742587       -1.16049816912518
C           56.84111772075231        0.00504035105664       -0.02023153650405
C           57.52611431234570       -0.43850825009570        1.11150294733803
C           56.88580631987772       -0.90478404909786        2.30080791530245
C           57.84483532240633       -0.97786239759611        3.25585519697270
C           59.06881448066571       -0.55246992184753        2.64629006707370
C           60.25325443625536       -0.32234765217533        3.33345739969079
C           60.25963533516881       -0.42350248852537        4.80884691777774
C           61.11944360773777       -1.31414418608654        5.45771760512623
C           61.12454010000073       -1.39906197436949        6.83765790648883
C           60.27362335147695       -0.59245281143801        7.59572233078092
C           60.32169876018663       -0.71443385997456        9.07273711313061
O           59.46439815571996        0.09948459123136        9.70665729479970
O           61.05183700303795       -1.46418658814819        9.66947543795400
C           59.41205099833344        0.29714473029394        6.95312651631190
C           59.40471306177129        0.37677894337922        5.57169977521934
C           61.43139748008307       -0.00673902001538        2.66860465568590
C           62.68348481021732        0.26154072244108        3.31447412086249
C           63.62692299026519        0.28989642048960        2.34365227300835
C           62.94869017480671        0.06154696818319        1.10405234541687
N           61.59617252853302       -0.04931974167899        1.30750305260568
N           58.87184385226782       -0.29410882480014        1.31074101453660
C           60.16544367754994        0.45120536316031       -4.91119905799123
C           60.30947552565020       -0.67772581640902       -5.72139136806921
C           60.28682772408256       -0.55458664868945       -7.09835563612204
C           60.12396166642778        0.69964034999460       -7.68962738005112
C           60.10720909217928        0.77986425458253       -9.17009672975217
O           59.94271280519744        2.02601497023166       -9.63863077970742
O           60.22751471279890       -0.16820239687995       -9.90360780360052
C           59.98262978140843        1.82982495644250       -6.88403344410424
C           60.00141838968191        1.70402311669195       -5.50558787637727
H           64.66554579360350       -0.18424012100626       -0.11706073966223
H           64.59339511195374       -0.71073969339226       -2.68584577966877
H           62.68503863118852       -0.44547165512493       -4.57331414801530
H           57.66435046876908        1.29598051512181       -4.33654410236130
H           55.79380140266385        1.13363323880202       -2.40256929607005
H           55.83418767577145       -1.12815091764538        2.38304704400490
H           57.74391755860179       -1.29052667098307        4.28243933627016
H           61.77103968221323       -1.95164237749174        4.87104247723485
H           61.78634422841399       -2.09075733692351        7.34726546377231
H           59.55807577717615       -0.03948653298434       10.66310022668488
H           58.75142195646981        0.92655858087371        7.53755656057288
H           58.74509102790849        1.07812225394937        5.07318956828655
H           62.81138561680189        0.40225467710399        4.37547420068193
H           64.68967525118970        0.44564662182619        2.43885582879040
H           60.42339334672532       -1.65353838579485       -5.26321653681426
H           60.39297995420942       -1.42664281098316       -7.73424324221685
H           59.94340020929051        1.99219974792940      -10.60906055518938
H           59.85959618852537        2.80543154634260       -7.33921378897400
H           59.90386872477848        2.58368087897804       -4.87951634119280
C           43.43856371716804        0.00072371754182       -0.01760271761536
C           44.65388971579127       -0.00300465823541       -0.02272025769603
C           54.21651986094594        0.00310427450698       -0.00459293583026
C           55.43252908550652        0.00597881915176       -0.01112313832599
Co          49.43639263846809       -0.00079802557651       -0.06020867558337
C           46.06380581364801       -0.00185248479750       -0.02173851294338
C           46.74633752164761       -1.17317274640278       -0.35623860042696
C           46.11709227100899       -2.39710336151573       -0.73981892586900
C           47.07187742861431       -3.35929734041514       -0.68660449878302
C           48.28007619700881       -2.72012627601836       -0.26011713050983
N           48.08241198435520       -1.36679452777653       -0.13679784464423
C           49.43757924690639       -3.38049545821340        0.13705556067664
C           50.59371651615088       -2.68592068478606        0.47149804675961
C           51.80468141465788       -3.28502169100270        0.94641901005950
C           52.75820443706019       -2.32140171874550        0.91113760011887
N           50.78701705059792       -1.34426436969624        0.24213355091007
C           52.12544713248569       -1.13493389211922        0.42770617791986
C           52.80901539983552        0.00379734818839       -0.00476332433653
C           52.12826200997480        1.14350091178056       -0.44085983990433
C           52.76006937404016        2.32958672822748       -0.92535577053712
C           51.80504225653840        3.29230914429752       -0.96359498598413
C           50.59394481998930        2.69244557926372       -0.49102302364091
C           49.43277392320291        3.38321438131002       -0.16449102100742
C           49.42721510646184        4.85903901649971       -0.23870557357312
C           50.36177474075384        5.60874232478733        0.48149087794230
C           50.35365540276953        6.98932318041669        0.40943135914198
C           49.41568567689315        7.64697411016603       -0.38871368530230
C           49.45013218018951        9.12877930508670       -0.43696417339876
O           48.51255496931361        9.66137829017290       -1.23465219847617
O           50.23494332570392        9.81047376785229        0.17166849586121
C           48.48223100153805        6.90364295178760       -1.11169052120642
C           48.48781290084747        5.52221903249906       -1.03328956315689
C           48.27519792995800        2.71942144375982        0.22526487863524
C           47.06216871039679        3.35761627138078        0.64032650580807
C           46.10925884041215        2.39391146594256        0.68839863459109
C           46.74417102907228        1.16980438322941        0.31368214312534
N           48.08407760014374        1.36316408297806        0.11581074592711
N           50.79163997908826        1.35498781248153       -0.24681185794611
C           49.43597534935557       -4.85657455435878        0.20669782562869
C           48.49287427836784       -5.52496601323772        0.99290477593105
C           48.49353402157441       -6.90569530706488        1.06094042819934
C           49.43210458832611       -7.64526267399706        0.33888435500148
C           49.38923642001041       -9.12432331058687        0.44091979142076
O           50.32058391979638       -9.74038256059374       -0.30175936790470
O           48.60332687730364       -9.73581823754702        1.11866686526004
C           50.37350414015410       -6.98359216603819       -0.45005246156820
C           50.37569267893532       -5.60115530387633       -0.51156564149556
H           45.07535436708893       -2.49499306083282       -0.99997467817680
H           46.97557678502682       -4.40913405039265       -0.91107551607694
H           51.90404524636325       -4.31207963622730        1.25794788749977
H           53.80177824144413       -2.39628637767674        1.17168843455151
H           53.80361082091117        2.40606337483019       -1.18557088243153
H           51.90357832290734        4.31830536725600       -1.27898087545135
H           51.08187178148827        5.10107006609099        1.11308431699820
H           51.07190973160738        7.57720382567805        0.97035082576543
H           48.60182946540738       10.62803764397903       -1.21199450730228
H           47.75486050167976        7.40970569413399       -1.73535658454405
H           47.77171876114429        4.94457065452445       -1.60684120304169
H           46.96153383585880        4.40823484476622        0.85919280132048
H           45.06476747778365        2.49025122309324        0.93799080193699
H           47.77207178116092       -4.95219997891770        1.56523656046490
H           47.76893848242867       -7.43008772949934        1.67419155770137
H           50.22615499037758      -10.69928980094138       -0.18121435132816
H           51.10133049472012       -7.55392911702851       -1.01500346015311
H           51.09829391520204       -5.08829467656092       -1.13628187875183

          :  Hamiltonian                  GFN1-xTB          :
         :: total energy            -359.522863715179 Eh    ::
         :: gradient norm              0.000537865958 Eh/a0 ::
         :: HOMO-LUMO gap              0.008731633855 eV    ::
         :: SCC energy              -364.625029738600 Eh    ::
         :: repulsion energy           5.275400404565 Eh    ::

    * Orbital Energies and Occupations

         #    Occupation            Energy/Eh            Energy/eV
      -------------------------------------------------------------
         1        2.0000           -0.8362344             -22.7551
       ...           ...                  ...                  ...
       308        2.0000           -0.4070466             -11.0763
       309        2.0000           -0.4065987             -11.0641
       310        2.0000           -0.4063798             -11.0582
       311        1.9998           -0.4033328             -10.9752
       312        1.9998           -0.4033006             -10.9744
       313        1.9997           -0.4030179             -10.9667
       314        1.9996           -0.4029253             -10.9642
       315        1.9996           -0.4028524             -10.9622
       316        1.9996           -0.4028062             -10.9609
       317        1.9996           -0.4027391             -10.9591
       318        1.8546           -0.3971345             -10.8066
       319        1.1103           -0.3947885             -10.7427
       320        1.0950           -0.3947559             -10.7419 (HOMO)
       321        0.9426           -0.3944350             -10.7331 (LUMO)
       322                         -0.3506650              -9.5421
       323                         -0.3436150              -9.3502
       324                         -0.3409857              -9.2787
       325                         -0.3404613              -9.2644
       326                         -0.3398494              -9.2478
       327                         -0.3348445              -9.1116
       328                         -0.3204552              -8.7200
       329                         -0.3162099              -8.6045
       330                         -0.3158404              -8.5945
       331                         -0.3118185              -8.4850
       ...                                ...                  ...
       659                          1.3312482              36.2251
      -------------------------------------------------------------
                  HL-Gap            0.0003209 Eh            0.0087 eV

Wiberg/Mayer (AO) data.
largest (>0.10) Wiberg bond orders for each atom

     #   Z sym  total        # sym  WBO       # sym  WBO       # sym  WBO
 ---------------------------------------------------------------------------
     1  27 Co   3.061 --     7 N    0.644    33 N    0.644    12 N    0.639
                            34 N    0.638
     2   6 C    3.933 --     3 C    1.366    32 C    1.365    44 H    0.970
     3   6 C    3.923 --     2 C    1.366     7 N    1.199     4 C    1.172
     4   6 C    3.960 --     5 C    1.653     3 C    1.172    45 H    0.975
     5   6 C    3.963 --     4 C    1.653     6 C    1.174    46 H    0.972
     6   6 C    3.920 --     8 C    1.323     7 N    1.209     5 C    1.174
     7   7 N    3.351 --     6 C    1.209     3 C    1.199     1 Co   0.644
     8   6 C    3.934 --     9 C    1.330     6 C    1.323    35 C    1.025
     9   6 C    3.917 --     8 C    1.330    12 N    1.195    10 C    1.180
    10   6 C    3.960 --    11 C    1.641     9 C    1.180    47 H    0.973
    11   6 C    3.962 --    10 C    1.641    13 C    1.186    48 H    0.973
    12   7 N    3.350 --    13 C    1.221     9 C    1.195     1 Co   0.639
    13   6 C    3.913 --    14 C    1.275    12 N    1.221    11 C    1.186
    14   6 C    3.935 --    15 C    1.276    13 C    1.275   125 C    1.155
    15   6 C    3.913 --    14 C    1.276    34 N    1.218    16 C    1.188
    16   6 C    3.960 --    17 C    1.638    15 C    1.188    49 H    0.973
    17   6 C    3.961 --    16 C    1.638    18 C    1.182    50 H    0.973
    18   6 C    3.917 --    19 C    1.323    34 N    1.199    17 C    1.182
    19   6 C    3.934 --    18 C    1.323    29 C    1.321    20 C    1.035
    20   6 C    3.986 --    28 C    1.384    21 C    1.383    19 C    1.035
    21   6 C    3.985 --    22 C    1.465    20 C    1.383    51 H    0.972
                            27 C    0.102
    22   6 C    3.990 --    21 C    1.465    23 C    1.385    52 H    0.968
                            28 C    0.102
    23   6 C    3.982 --    27 C    1.388    22 C    1.385    24 C    1.009
    24   6 C    3.836 --    26 O    1.690    25 O    1.088    23 C    1.009
    25   8 O    2.096 --    24 C    1.088    53 H    0.838    26 O    0.129
    26   8 O    1.958 --    24 C    1.690    25 O    0.129
    27   6 C    3.991 --    28 C    1.462    23 C    1.388    54 H    0.970
                            21 C    0.102
    28   6 C    3.985 --    27 C    1.462    20 C    1.384    55 H    0.972
                            22 C    0.102
    29   6 C    3.921 --    19 C    1.321    33 N    1.209    30 C    1.175
    30   6 C    3.963 --    31 C    1.650    29 C    1.175    56 H    0.973
    31   6 C    3.959 --    30 C    1.650    32 C    1.174    57 H    0.975
    32   6 C    3.923 --     2 C    1.365    33 N    1.199    31 C    1.174
    33   7 N    3.349 --    29 C    1.209    32 C    1.199     1 Co   0.644
    34   7 N    3.350 --    15 C    1.218    18 C    1.199     1 Co   0.638
    35   6 C    3.986 --    43 C    1.389    36 C    1.386     8 C    1.025
    36   6 C    3.987 --    37 C    1.464    35 C    1.386    58 H    0.972
                            42 C    0.103
    37   6 C    3.990 --    36 C    1.464    38 C    1.385    59 H    0.968
                            43 C    0.103
    38   6 C    3.984 --    42 C    1.390    37 C    1.385    39 C    1.009
    39   6 C    3.836 --    41 O    1.690    40 O    1.088    38 C    1.009
    40   8 O    2.097 --    39 C    1.088    60 H    0.838    41 O    0.129
    41   8 O    1.959 --    39 C    1.690    40 O    0.129
    42   6 C    3.991 --    43 C    1.460    38 C    1.390    61 H    0.970
                            36 C    0.103
    43   6 C    3.988 --    42 C    1.460    35 C    1.389    62 H    0.972
                            37 C    0.103
    44   1 H    0.999 --     2 C    0.970
    45   1 H    0.997 --     4 C    0.975
    46   1 H    1.004 --     5 C    0.972
    47   1 H    1.004 --    10 C    0.973
    48   1 H    1.001 --    11 C    0.973
    49   1 H    1.001 --    16 C    0.973
    50   1 H    1.003 --    17 C    0.973
    51   1 H    1.004 --    21 C    0.972
    52   1 H    1.005 --    22 C    0.968
    53   1 H    0.873 --    25 O    0.838
    54   1 H    1.005 --    27 C    0.970
    55   1 H    1.004 --    28 C    0.972
    56   1 H    1.003 --    30 C    0.973
    57   1 H    0.997 --    31 C    0.975
    58   1 H    1.003 --    36 C    0.972
    59   1 H    1.005 --    37 C    0.968
    60   1 H    0.873 --    40 O    0.838
    61   1 H    1.005 --    42 C    0.970
    62   1 H    1.003 --    43 C    0.972
    63  27 Co   3.057 --    95 N    0.642    69 N    0.642    74 N    0.637
                            96 N    0.636
    64   6 C    3.929 --    65 C    1.366    94 C    1.365   106 H    0.970
    65   6 C    3.923 --    64 C    1.366    69 N    1.199    66 C    1.173
    66   6 C    3.960 --    67 C    1.652    65 C    1.173   107 H    0.975
    67   6 C    3.963 --    66 C    1.652    68 C    1.175   108 H    0.973
    68   6 C    3.920 --    70 C    1.321    69 N    1.210    67 C    1.175
    69   7 N    3.348 --    68 C    1.210    65 C    1.199    63 Co   0.642
    70   6 C    3.931 --    71 C    1.331    68 C    1.321    97 C    1.025
    71   6 C    3.917 --    70 C    1.331    74 N    1.194    72 C    1.180
    72   6 C    3.959 --    73 C    1.640    71 C    1.180   109 H    0.973
    73   6 C    3.962 --    72 C    1.640    75 C    1.187   110 H    0.973
    74   7 N    3.348 --    75 C    1.224    71 C    1.194    63 Co   0.637
    75   6 C    3.911 --    76 C    1.269    74 N    1.224    73 C    1.187
    76   6 C    3.933 --    77 C    1.271    75 C    1.269   128 C    1.166
    77   6 C    3.911 --    76 C    1.271    96 N    1.221    78 C    1.189
    78   6 C    3.960 --    79 C    1.637    77 C    1.189   111 H    0.973
    79   6 C    3.960 --    78 C    1.637    80 C    1.182   112 H    0.973
    80   6 C    3.917 --    81 C    1.324    96 N    1.198    79 C    1.182
    81   6 C    3.931 --    80 C    1.324    91 C    1.320    82 C    1.036
    82   6 C    3.986 --    90 C    1.384    83 C    1.383    81 C    1.036
    83   6 C    3.985 --    84 C    1.465    82 C    1.383   113 H    0.972
                            89 C    0.102
    84   6 C    3.990 --    83 C    1.465    85 C    1.385   114 H    0.968
                            90 C    0.102
    85   6 C    3.982 --    89 C    1.388    84 C    1.385    86 C    1.009
    86   6 C    3.836 --    88 O    1.690    87 O    1.089    85 C    1.009
    87   8 O    2.097 --    86 C    1.089   115 H    0.838    88 O    0.129
    88   8 O    1.958 --    86 C    1.690    87 O    0.129
    89   6 C    3.991 --    90 C    1.462    85 C    1.388   116 H    0.969
                            83 C    0.102
    90   6 C    3.985 --    89 C    1.462    82 C    1.384   117 H    0.972
                            84 C    0.102
    91   6 C    3.921 --    81 C    1.320    95 N    1.210    92 C    1.175
    92   6 C    3.963 --    93 C    1.650    91 C    1.175   118 H    0.973
    93   6 C    3.958 --    92 C    1.650    94 C    1.174   119 H    0.975
    94   6 C    3.923 --    64 C    1.365    95 N    1.199    93 C    1.174
    95   7 N    3.347 --    91 C    1.210    94 C    1.199    63 Co   0.642
    96   7 N    3.348 --    77 C    1.221    80 C    1.198    63 Co   0.636
    97   6 C    3.986 --   105 C    1.389    98 C    1.386    70 C    1.025
    98   6 C    3.987 --    99 C    1.464    97 C    1.386   120 H    0.972
                           104 C    0.103
    99   6 C    3.990 --    98 C    1.464   100 C    1.385   121 H    0.968
                           105 C    0.103
   100   6 C    3.984 --   104 C    1.390    99 C    1.385   101 C    1.009
   101   6 C    3.836 --   103 O    1.690   102 O    1.088   100 C    1.009
   102   8 O    2.097 --   101 C    1.088   122 H    0.838   103 O    0.129
   103   8 O    1.958 --   101 C    1.690   102 O    0.129
   104   6 C    3.991 --   105 C    1.460   100 C    1.390   123 H    0.970
                            98 C    0.103
   105   6 C    3.988 --   104 C    1.460    97 C    1.389   124 H    0.972
                            99 C    0.103
   106   1 H    0.999 --    64 C    0.970
   107   1 H    0.997 --    66 C    0.975
   108   1 H    1.004 --    67 C    0.973
   109   1 H    1.004 --    72 C    0.973
   110   1 H    1.002 --    73 C    0.973
   111   1 H    1.002 --    78 C    0.973
   112   1 H    1.003 --    79 C    0.973
   113   1 H    1.005 --    83 C    0.972
   114   1 H    1.005 --    84 C    0.968
   115   1 H    0.873 --    87 O    0.838
   116   1 H    1.005 --    89 C    0.969
   117   1 H    1.004 --    90 C    0.972
   118   1 H    1.003 --    92 C    0.973
   119   1 H    0.997 --    93 C    0.975
   120   1 H    1.003 --    98 C    0.972
   121   1 H    1.005 --    99 C    0.968
   122   1 H    0.873 --   102 O    0.838
   123   1 H    1.005 --   104 C    0.970
   124   1 H    1.003 --   105 C    0.972
   125   6 C    3.921 --   126 C    2.586    14 C    1.155
   126   6 C    3.930 --   125 C    2.586   130 C    1.160
   127   6 C    3.930 --   128 C    2.577   142 C    1.170
   128   6 C    3.922 --   127 C    2.577    76 C    1.166
   129  27 Co   3.118 --   161 N    0.642   140 N    0.642   135 N    0.635
                           162 N    0.634
   130   6 C    3.937 --   160 C    1.273   131 C    1.269   126 C    1.160
   131   6 C    3.914 --   130 C    1.269   135 N    1.220   132 C    1.191
   132   6 C    3.960 --   133 C    1.634   131 C    1.191   172 H    0.974
   133   6 C    3.962 --   132 C    1.634   134 C    1.184   173 H    0.973
   134   6 C    3.922 --   136 C    1.316   135 N    1.200   133 C    1.184
   135   7 N    3.344 --   131 C    1.220   134 C    1.200   129 Co   0.635
   136   6 C    3.933 --   137 C    1.322   134 C    1.316   163 C    1.039
   137   6 C    3.922 --   136 C    1.322   140 N    1.196   138 C    1.183
   138   6 C    3.962 --   139 C    1.636   137 C    1.183   174 H    0.973
   139   6 C    3.960 --   138 C    1.636   141 C    1.189   175 H    0.973
   140   7 N    3.341 --   141 C    1.223   137 C    1.196   129 Co   0.642
   141   6 C    3.912 --   142 C    1.268   140 N    1.223   139 C    1.189
   142   6 C    3.937 --   141 C    1.268   143 C    1.264   127 C    1.170
   143   6 C    3.912 --   142 C    1.264   162 N    1.223   144 C    1.192
   144   6 C    3.960 --   145 C    1.633   143 C    1.192   176 H    0.973
   145   6 C    3.961 --   144 C    1.633   146 C    1.184   177 H    0.973
   146   6 C    3.922 --   147 C    1.319   162 N    1.198   145 C    1.184
   147   6 C    3.928 --   146 C    1.319   157 C    1.319   148 C    1.039
   148   6 C    3.986 --   156 C    1.383   149 C    1.382   147 C    1.039
   149   6 C    3.984 --   150 C    1.465   148 C    1.382   178 H    0.971
                           155 C    0.102
   150   6 C    3.990 --   149 C    1.465   151 C    1.385   179 H    0.968
                           156 C    0.102
   151   6 C    3.981 --   155 C    1.388   150 C    1.385   152 C    1.008
   152   6 C    3.836 --   154 O    1.691   153 O    1.089   151 C    1.008
   153   8 O    2.097 --   152 C    1.089   180 H    0.838   154 O    0.129
   154   8 O    1.959 --   152 C    1.691   153 O    0.129
   155   6 C    3.991 --   156 C    1.462   151 C    1.388   181 H    0.969
                           149 C    0.102
   156   6 C    3.984 --   155 C    1.462   148 C    1.383   182 H    0.972
                           150 C    0.102
   157   6 C    3.922 --   147 C    1.319   161 N    1.199   158 C    1.183
   158   6 C    3.963 --   159 C    1.636   157 C    1.183   183 H    0.973
   159   6 C    3.960 --   158 C    1.636   160 C    1.189   184 H    0.974
   160   6 C    3.919 --   130 C    1.273   161 N    1.220   159 C    1.189
   161   7 N    3.341 --   160 C    1.220   157 C    1.199   129 Co   0.642
   162   7 N    3.343 --   143 C    1.223   146 C    1.198   129 Co   0.634
   163   6 C    3.986 --   171 C    1.383   164 C    1.382   136 C    1.039
   164   6 C    3.984 --   165 C    1.465   163 C    1.382   185 H    0.971
                           170 C    0.102
   165   6 C    3.990 --   164 C    1.465   166 C    1.385   186 H    0.968
                           171 C    0.102
   166   6 C    3.981 --   170 C    1.389   165 C    1.385   167 C    1.008
   167   6 C    3.836 --   169 O    1.691   168 O    1.089   166 C    1.008
   168   8 O    2.097 --   167 C    1.089   187 H    0.838   169 O    0.129
   169   8 O    1.959 --   167 C    1.691   168 O    0.129
   170   6 C    3.991 --   171 C    1.462   166 C    1.389   188 H    0.969
                           164 C    0.102
   171   6 C    3.984 --   170 C    1.462   163 C    1.383   189 H    0.972
                           165 C    0.102
   172   1 H    1.001 --   132 C    0.974
   173   1 H    1.003 --   133 C    0.973
   174   1 H    1.003 --   138 C    0.973
   175   1 H    1.002 --   139 C    0.973
   176   1 H    1.002 --   144 C    0.973
   177   1 H    1.003 --   145 C    0.973
   178   1 H    1.005 --   149 C    0.971
   179   1 H    1.005 --   150 C    0.968
   180   1 H    0.873 --   153 O    0.838
   181   1 H    1.005 --   155 C    0.969
   182   1 H    1.005 --   156 C    0.972
   183   1 H    1.003 --   158 C    0.973
   184   1 H    1.001 --   159 C    0.974
   185   1 H    1.004 --   164 C    0.971
   186   1 H    1.005 --   165 C    0.968
   187   1 H    0.872 --   168 O    0.838
   188   1 H    1.005 --   170 C    0.969
   189   1 H    1.005 --   171 C    0.972
 ---------------------------------------------------------------------------

           -------------------------------------------------
          | TOTAL ENERGY             -359.522863715179 Eh   |
          | GRADIENT NORM               0.000537865958 Eh/α |
          | HOMO-LUMO GAP               0.008731633855 eV   |
           -------------------------------------------------

 * finished run on 2022/07/30 at 02:39:44.540
