   * xtb version 6.5.1 (b24c23e) compiled by 'conda@728c89f4b128' on 2022-07-12
          program call               : xtb Zn_PhCHO_C8_3.xyz --gfn 1 --opt -T 48

   ID    Z sym.   atoms
    1   30 Zn     1, 61, 137
    2    6 C      2-6, 8-13, 15-19, 21-26, 28-33, 35-40, 62-66, 68-73, 75-79,
                  81-86, 88-93, 95-100, 121-136, 138-142, 144-149, 151-155,
                  157-162, 164-169, 171-176
    3    7 N      7, 20, 27, 41, 67, 80, 87, 101, 143, 156, 163, 177
    4    8 O      14, 34, 74, 94, 150, 170
    5    1 H      42-60, 102-120, 178-195

          :  Hamiltonian                  GFN1-xTB          :
 * total energy  :  -346.0486792 Eh     change       -0.1008931E-07 Eh
 * total energy  :  -347.2400996 Eh     change       -0.1191420E+01 Eh
 * total energy  :  -347.5053364 Eh     change       -0.2652368E+00 Eh
 * total energy  :  -347.6487468 Eh     change       -0.1434104E+00 Eh
 * total energy  :  -347.7572768 Eh     change       -0.1085300E+00 Eh
 * total energy  :  -347.8379740 Eh     change       -0.8069722E-01 Eh
 * total energy  :  -347.8814040 Eh     change       -0.4343004E-01 Eh
 * total energy  :  -347.9111838 Eh     change       -0.2977980E-01 Eh
 * total energy  :  -347.9299239 Eh     change       -0.1874008E-01 Eh
 * total energy  :  -347.9399168 Eh     change       -0.9992897E-02 Eh
 * total energy  :  -347.9650514 Eh     change       -0.2579585E-04 Eh
 * total energy  :  -347.9650599 Eh     change       -0.8533829E-05 Eh
 * total energy  :  -347.9650640 Eh     change       -0.4091089E-05 Eh
 * total energy  :  -347.9650698 Eh     change       -0.5786884E-05 Eh
 * total energy  :  -347.9650736 Eh     change       -0.3785639E-05 Eh
 * total energy  :  -347.9650798 Eh     change       -0.6204676E-05 Eh
 * total energy  :  -347.9650877 Eh     change       -0.7925308E-05 Eh
 * total energy  :  -347.9650934 Eh     change       -0.5727114E-05 Eh
 * total energy  :  -347.9650968 Eh     change       -0.3404904E-05 Eh
   *** GEOMETRY OPTIMIZATION CONVERGED AFTER 55 ITERATIONS ***

 final structure:
================
195
 xtb: 6.5.1 (b24c23e)
Zn          26.87124453774940        0.00423361083317       -0.02563212278398
C           23.46339524645776        0.06373868509686       -0.11991988163566
C           24.09890440276642        1.28941603076773        0.03726741051900
C           23.43024711941528        2.55006035566330        0.19978386195444
C           24.39305827104292        3.49408722598824        0.34586599063591
C           25.66311138618549        2.82197237044901        0.26346567207382
N           25.44926580367347        1.48726604330218        0.08291585872634
C           26.91730985001135        3.43329949715330        0.38646926814337
C           26.93727818716857        4.90340964044601        0.57806227681822
C           27.47391366920272        5.45642712183894        1.74499297174348
C           27.48767788731952        6.82569120375158        1.92680634748290
C           26.97063876093770        7.67549136430997        0.94309463145625
C           26.99818589669033        9.13297680070233        1.15930160602469
O           27.44935337644952        9.65547520563575        2.14651862814429
C           26.43769459025162        7.12476604242548       -0.22503666206257
C           26.41883840307920        5.75296280194973       -0.40338546317298
C           28.15332963689501        2.77823478689029        0.34834532072314
C           29.43627625494941        3.42192280210410        0.41820792126980
C           30.37755761485445        2.44891850062487        0.32129429059350
N           28.33997828171622        1.43015384719006        0.19899473011466
C           29.68074685795368        1.20360071003030        0.18489753650826
C           30.30578480085459       -0.05233251423148        0.04520890191640
C           29.64570583354640       -1.28799187091102       -0.11057144987280
C           30.30747118176208       -2.54912587621919       -0.27285970997323
C           29.33936086675212       -3.49221714771632       -0.39761963375553
C           28.07473023383284       -2.81568878353469       -0.30531057724308
N           28.29901548559795       -1.47527388634160       -0.13998149883418
C           26.82042692471494       -3.42843539334852       -0.40692683101443
C           26.79818652141605       -4.90322176910834       -0.55487892300556
C           26.23823130564101       -5.49343285491374       -1.69165397817425
C           26.21586194748711       -6.86984481809083       -1.82904915532684
C           26.74902854690907       -7.68606183169834       -0.82831372195919
C           26.73326165530570       -9.15473899677922       -0.94850476260755
O           27.17743024133879       -9.90016698307333       -0.11288747740308
C           27.30815249364636       -7.09636636568335        0.31045566976359
C           27.33489341386508       -5.72178504209721        0.44406779789287
C           25.58392287384398       -2.77058263128928       -0.37676600061345
C           24.29494117691753       -3.40834503783793       -0.43678185521196
C           23.35960768906062       -2.42909821113050       -0.36145555950837
C           24.06406950730053       -1.18320557794342       -0.24284244866503
N           25.40828450684942       -1.42400628836234       -0.25150959287377
H           22.37801533426308        0.08060352636552       -0.13430257424844
H           22.35976428288269        2.68273368383076        0.20823157884292
H           24.25931447455527        4.55158974555269        0.50838046248081
H           27.86414377087934        4.79980521095310        2.51444501802009
H           27.89603895429313        7.26170582864157        2.83220321000783
H           26.56529118435979        9.72577034012718        0.32532746930026
H           26.03908644540456        7.77697343774846       -0.99541600884233
H           26.01595035176238        5.32928667908659       -1.31651034029644
H           29.59503750489687        4.48388385578910        0.51394863757741
H           31.45025021557223        2.55794516335270        0.33433018353783
H           31.37677299503548       -2.68678086967006       -0.29371872967269
H           29.46879590596802       -4.55104719970702       -0.55345823734745
H           25.83546153693583       -4.86278156290269       -2.47630684706497
H           25.78416443038468       -7.31875914259075       -2.71777548725231
H           26.27004490912928       -9.53042325222994       -1.88596158493567
H           27.71676150965493       -7.73758919575938        1.08410886697807
H           27.75705931080103       -5.26843819846411        1.33387024229406
H           24.13030715282832       -4.47122329865550       -0.51263059922965
H           22.28576645553910       -2.53039459035237       -0.37504717077582
Zn          64.10686461853450       -0.02473279260808       -0.04481523882565
C           67.51563211436296       -0.07016655109064       -0.10857129888984
C           66.88045512094051       -1.30580412252203       -0.13363966694454
C           67.54937354113297       -2.57674074981402       -0.14304836917545
C           66.58658929083016       -3.53202570502815       -0.14190941461332
C           65.31640681823441       -2.85510970040289       -0.14339504536854
N           65.53001708403460       -1.50824002757037       -0.13165086446572
C           64.06185782641526       -3.47754885097812       -0.12349587274101
C           64.04132013818131       -4.96003162498672       -0.13791313111600
C           63.49067537468161       -5.66850936073282        0.93467468872733
C           63.47546722322309       -7.04972859181413        0.92528358814228
C           64.00485705755908       -7.75590292933126       -0.16019822288322
C           63.97433241242135       -9.22920957891670       -0.14858461108061
O           63.51110929350977       -9.88276094319462        0.75112242406207
C           64.55202539245050       -7.04951977804756       -1.23420990534703
C           64.57242146361183       -5.66624597790623       -1.22088959274195
C           62.82524235571782       -2.82346741758316       -0.08721893347008
C           61.54278052624296       -3.47056150665242       -0.12894146149064
C           60.60103889508574       -2.49353948992240       -0.10271613061497
N           62.63806571919385       -1.46784185358487       -0.04766331576610
C           61.29721464778835       -1.24149486920814       -0.05052239328401
C           60.67148729998016        0.02131611355422       -0.01544598147209
C           61.33103675665870        1.26641310440485        0.02273767327430
C           60.66931133901090        2.53785982002872        0.04061721098308
C           61.63738985352224        3.48880489632895        0.06831227868018
C           62.90187499486791        2.80575216371548        0.07441637231752
N           62.67772879270115        1.45568800602088        0.03808072448303
C           64.15627009792485        3.42658874816413        0.07630660387502
C           64.17801147934442        4.90732039659582        0.14446490022519
C           64.74463546971396        5.65613067710520       -0.89105152733515
C           64.76679714726120        7.03790311428831       -0.82705704565723
C           64.22699138876382        7.70022344519304        0.27832219099560
C           64.24305904012805        9.17081267357888        0.37289120164390
O           63.79349321776041        9.78722438707186        1.30513146792277
C           63.66116166008165        6.95157784582695        1.31586986849987
C           63.63439717629171        5.57213906817417        1.24824816797782
C           65.39336402628697        2.77144943402683        0.02270567610055
C           66.68188634236971        3.41140595541625        0.06738798850255
C           67.61795835259828        2.43165538300365        0.00994690842171
C           66.91431393243805        1.18152242209623       -0.05845964308292
N           65.56987953310060        1.42089321481189       -0.04571193803991
H           68.60113156994564       -0.08474309222275       -0.11386110767607
H           68.61992345937368       -2.70916543750147       -0.14151135657084
H           66.72026196148357       -4.60187078786418       -0.12850405472952
H           63.09034160913630       -5.12410778537022        1.78253359836528
H           63.05608820923131       -7.60626453550317        1.75655971482345
H           64.41966019586698       -9.70144801185993       -1.05026136469356
H           64.96037654857398       -7.58941990859970       -2.08243668569946
H           64.98629502859205       -5.12087063752556       -2.06164173765889
H           61.38492001312787       -4.53545704323096       -0.18603535710156
H           59.52850531024959       -2.60315227424615       -0.12207260429296
H           59.60011860902299        2.67738309050108        0.02740191590253
H           61.50831589342741        4.55907915870343        0.06963376441183
H           65.15290751899342        5.14589140027393       -1.75626404010818
H           65.20360796262770        7.61104178149915       -1.63849245565394
H           64.71025586173910        9.67842888653134       -0.49804536090532
H           63.24750669784930        7.47377894253143        2.17194265186442
H           63.20684287911302        4.99443685576157        2.06000567017952
H           66.84552464084842        4.47419397273015        0.14661145676160
H           68.69172726618561        2.53404689897767        0.02133534961412
C           31.71055272077123       -0.07146505512181        0.05410405344106
C           32.93536151444131       -0.07531324715148        0.06064530630236
C           34.27772899654884       -0.07989244335356        0.06342642531961
C           35.50864525541474       -0.08003011845624        0.06394650191657
C           36.84618831659495       -0.07898579237364        0.06416827713551
C           38.07709002959359       -0.07229873605553        0.06263964489396
C           39.41919644524271       -0.06679743000264        0.05676611022548
C           40.64416450040837       -0.05945113608211        0.04742126072569
C           50.33300336659188        0.01074708787804       -0.07660383526363
C           51.55796893820116        0.02094122219660       -0.07768149932451
C           52.90012040692719        0.02993624126883       -0.07512780689758
C           54.13110108823340        0.03601021849855       -0.07185188821566
C           55.46863159737567        0.04218939580276       -0.06191543561424
C           56.69946185849569        0.04686803598795       -0.05079676332891
C           58.04180700226311        0.04536278778463       -0.03653310216350
C           59.26653645967139        0.03810777426277       -0.02547235730192
Zn          45.48859434132920       -0.02493185600420       -0.01344826305303
C           42.04830370974721       -0.05056446583579        0.03455757489647
C           42.68842004022594        1.15681670247951        0.38135341233740
C           42.00672927117329        2.37110002258110        0.71883478611670
C           42.95994092622406        3.29578064942262        1.00111733807609
C           44.23368841501335        2.65047876947574        0.84598400280416
N           44.03181132357398        1.35313474519182        0.45870643146530
C           45.47868102636240        3.26174687899461        1.03373180615544
C           45.47459967766863        4.67190139809175        1.49233726492320
C           46.03632428017839        5.67763416859766        0.69971986662799
C           46.03174577056928        6.99022057234398        1.13048550619193
C           45.47082598415249        7.32752336531157        2.36687035665978
C           45.48248341044132        8.73432590618978        2.80660067904026
O           45.94954029592716        9.63498667249054        2.15728704808225
C           44.91074315635062        6.32353609881947        3.16065379310630
C           44.91020204177158        5.01031579567303        2.72557041594134
C           46.72731675566745        2.66314559157873        0.83048581505989
C           47.99763156895774        3.28760136141708        1.07451294253605
C           48.95607037876051        2.37677227358970        0.76670496913691
N           46.93664654818025        1.38209368630015        0.39546163964029
C           48.28125584003927        1.18600325275942        0.34242707401833
C           48.92874337441676        0.00161190966495       -0.06457733473492
C           48.28789994791568       -1.19252930955136       -0.45331436091517
C           48.96786255010991       -2.37337448523560       -0.89629659042793
C           48.01485760855572       -3.30148188016221       -1.16798690967727
C           46.74330182050598       -2.69739205996764       -0.88310155388883
N           46.94571438107051       -1.41091466151119       -0.46123275986772
C           45.49881836954070       -3.31904150120120       -1.03791367280363
C           45.50265374237199       -4.73597818033127       -1.47487003214073
C           46.10920174670109       -5.71686594450313       -0.68502513100737
C           46.10904910439351       -7.04059315265301       -1.08708385355660
C           45.50648014811595       -7.40999829832525       -2.29214070117045
C           45.49445271182481       -8.81285743034010       -2.74412966646988
O           44.98843555243050       -9.18038349716635       -3.77367820110611
C           44.90263308232642       -6.42830704040633       -3.08504027932261
C           44.89838695295401       -5.10762417530566       -2.67993913164058
C           44.25051649289620       -2.72563173838631       -0.81759083533735
C           42.98252706259270       -3.39080510344435       -0.93102996640701
C           42.02395207098721       -2.47692792678073       -0.63268186432096
C           42.69677804759919       -1.25010083730683       -0.32383056739653
N           44.04029843596135       -1.42790562343278       -0.43547690628322
H           40.93563199030547        2.49515276101585        0.72980480759936
H           42.81438276819545        4.32776148369902        1.27680992976801
H           46.46121838031549        5.42107634935990       -0.26416704388396
H           46.46049325308132        7.77694330977307        0.51895959872283
H           45.01890220732735        8.90463380474267        3.80178394807414
H           44.47657978936870        6.57590855211919        4.12268174490911
H           44.48593830938022        4.23131619841583        3.34913264920801
H           48.13777462620115        4.28989628062789        1.44577596797082
H           50.02655433207956        2.49185117198558        0.82608253611746
H           50.03749739996834       -2.47014310319609       -0.99277007876736
H           48.15891351262624       -4.30248840473988       -1.54142376194860
H           46.56634551084663       -5.43514996188363        0.25690839755037
H           46.57648176463630       -7.79623352595850       -0.46405135082685
H           45.99562609811542       -9.51999589617559       -2.04920320601069
H           44.44089228032239       -6.72355742286214       -4.02111540080305
H           44.44043597812735       -4.34736841841999       -3.30262030080451
H           42.84413685908279       -4.42738761904789       -1.19262450481968
H           40.95488646037163       -2.61629386674741       -0.61372176873215

          :  Hamiltonian                  GFN1-xTB          :
         :: total energy            -347.965096843130 Eh    ::
         :: gradient norm              0.000713010143 Eh/a0 ::
         :: HOMO-LUMO gap              0.959607001802 eV    ::
         :: SCC energy              -353.693407297232 Eh    ::
         :: repulsion energy           5.900473944002 Eh    ::

    * Orbital Energies and Occupations

         #    Occupation            Energy/Eh            Energy/eV
      -------------------------------------------------------------
         1        2.0000           -0.7909640             -21.5232
       ...           ...                  ...                  ...
       303        2.0000           -0.4330704             -11.7844
       304        2.0000           -0.4330406             -11.7836
       305        2.0000           -0.4327754             -11.7764
       306        2.0000           -0.4268001             -11.6138
       307        2.0000           -0.4191284             -11.4051
       308        2.0000           -0.4148015             -11.2873
       309        2.0000           -0.4144837             -11.2787
       310        2.0000           -0.4068142             -11.0700
       311        2.0000           -0.4057909             -11.0421
       312        2.0000           -0.4057685             -11.0415
       313        2.0000           -0.3989946             -10.8572
       314        2.0000           -0.3936903             -10.7129
       315        2.0000           -0.3872730             -10.5382 (HOMO)
       316                         -0.3520081              -9.5786 (LUMO)
       317                         -0.3439943              -9.3606
       318                         -0.3425456              -9.3211
       319                         -0.3419475              -9.3049
       320                         -0.3419397              -9.3047
       321                         -0.3387488              -9.2178
       322                         -0.3273985              -8.9090
       323                         -0.3262006              -8.8764
       324                         -0.3260891              -8.8733
       325                         -0.3210583              -8.7364
       326                         -0.3208898              -8.7319
       ...                                ...                  ...
       668                          1.5985629              43.4991
      -------------------------------------------------------------
                  HL-Gap            0.0352649 Eh            0.9596 eV

Wiberg/Mayer (AO) data.
largest (>0.10) Wiberg bond orders for each atom

     #   Z sym  total        # sym  WBO       # sym  WBO       # sym  WBO
 ---------------------------------------------------------------------------
     1  30 Zn   1.993 --    41 N    0.459     7 N    0.459    27 N    0.455
                            20 N    0.455
     2   6 C    3.928 --    40 C    1.358     3 C    1.358    42 H    0.971
     3   6 C    3.920 --     2 C    1.358     7 N    1.232     4 C    1.170
     4   6 C    3.960 --     5 C    1.660     3 C    1.170    43 H    0.975
     5   6 C    3.963 --     4 C    1.660     6 C    1.171    44 H    0.973
     6   6 C    3.918 --     8 C    1.311     7 N    1.246     5 C    1.171
     7   7 N    3.293 --     6 C    1.246     3 C    1.232     1 Zn   0.459
     8   6 C    3.931 --    17 C    1.322     6 C    1.311     9 C    1.032
     9   6 C    3.985 --    16 C    1.383    10 C    1.380     8 C    1.032
    10   6 C    3.987 --    11 C    1.472     9 C    1.380    45 H    0.972
    11   6 C    3.988 --    10 C    1.472    12 C    1.369    46 H    0.968
                            16 C    0.100
    12   6 C    3.983 --    15 C    1.377    11 C    1.369    13 C    1.051
    13   6 C    3.864 --    14 O    1.806    12 C    1.051    47 H    0.942
    14   8 O    2.002 --    13 C    1.806
    15   6 C    3.993 --    16 C    1.466    12 C    1.377    48 H    0.971
    16   6 C    3.987 --    15 C    1.466     9 C    1.383    49 H    0.972
                            11 C    0.100
    17   6 C    3.912 --     8 C    1.322    20 N    1.226    18 C    1.178
    18   6 C    3.959 --    19 C    1.647    17 C    1.178    50 H    0.973
    19   6 C    3.961 --    18 C    1.647    21 C    1.185    51 H    0.974
    20   7 N    3.296 --    21 C    1.263    17 C    1.226     1 Zn   0.455
    21   6 C    3.899 --    20 N    1.263    22 C    1.253    19 C    1.185
    22   6 C    3.939 --    23 C    1.254    21 C    1.253   121 C    1.194
    23   6 C    3.900 --    27 N    1.262    22 C    1.254    24 C    1.185
    24   6 C    3.961 --    25 C    1.647    23 C    1.185    52 H    0.974
    25   6 C    3.959 --    24 C    1.647    26 C    1.178    53 H    0.973
    26   6 C    3.912 --    28 C    1.321    27 N    1.227    25 C    1.178
    27   7 N    3.296 --    23 C    1.262    26 C    1.227     1 Zn   0.455
    28   6 C    3.931 --    26 C    1.321    37 C    1.311    29 C    1.034
    29   6 C    3.985 --    30 C    1.382    36 C    1.379    28 C    1.034
    30   6 C    3.987 --    31 C    1.466    29 C    1.382    54 H    0.972
    31   6 C    3.993 --    30 C    1.466    32 C    1.377    55 H    0.971
    32   6 C    3.983 --    31 C    1.377    35 C    1.369    33 C    1.051
    33   6 C    3.864 --    34 O    1.806    32 C    1.051    56 H    0.942
    34   8 O    2.002 --    33 C    1.806
    35   6 C    3.988 --    36 C    1.472    32 C    1.369    57 H    0.968
    36   6 C    3.987 --    35 C    1.472    29 C    1.379    58 H    0.972
    37   6 C    3.918 --    28 C    1.311    41 N    1.247    38 C    1.171
    38   6 C    3.963 --    39 C    1.660    37 C    1.171    59 H    0.973
    39   6 C    3.960 --    38 C    1.660    40 C    1.170    60 H    0.975
    40   6 C    3.920 --     2 C    1.358    41 N    1.232    39 C    1.170
    41   7 N    3.293 --    37 C    1.247    40 C    1.232     1 Zn   0.459
    42   1 H    1.001 --     2 C    0.971
    43   1 H    0.998 --     4 C    0.975
    44   1 H    1.004 --     5 C    0.973
    45   1 H    1.004 --    10 C    0.972
    46   1 H    1.005 --    11 C    0.968
    47   1 H    1.010 --    13 C    0.942
    48   1 H    1.000 --    15 C    0.971
    49   1 H    1.004 --    16 C    0.972
    50   1 H    1.004 --    18 C    0.973
    51   1 H    1.002 --    19 C    0.974
    52   1 H    1.002 --    24 C    0.974
    53   1 H    1.004 --    25 C    0.973
    54   1 H    1.004 --    30 C    0.972
    55   1 H    1.000 --    31 C    0.971
    56   1 H    1.010 --    33 C    0.942
    57   1 H    1.005 --    35 C    0.968
    58   1 H    1.004 --    36 C    0.972
    59   1 H    1.004 --    38 C    0.973
    60   1 H    0.998 --    39 C    0.975
    61  30 Zn   1.993 --   101 N    0.459    67 N    0.458    87 N    0.455
                            80 N    0.455
    62   6 C    3.928 --   100 C    1.358    63 C    1.358   102 H    0.971
    63   6 C    3.920 --    62 C    1.358    67 N    1.232    64 C    1.170
    64   6 C    3.960 --    65 C    1.660    63 C    1.170   103 H    0.975
    65   6 C    3.963 --    64 C    1.660    66 C    1.171   104 H    0.973
    66   6 C    3.918 --    68 C    1.311    67 N    1.246    65 C    1.171
    67   7 N    3.293 --    66 C    1.246    63 C    1.232    61 Zn   0.458
    68   6 C    3.931 --    77 C    1.321    66 C    1.311    69 C    1.032
    69   6 C    3.985 --    76 C    1.383    70 C    1.380    68 C    1.032
    70   6 C    3.987 --    71 C    1.472    69 C    1.380   105 H    0.972
    71   6 C    3.988 --    70 C    1.472    72 C    1.369   106 H    0.968
    72   6 C    3.983 --    75 C    1.378    71 C    1.369    73 C    1.051
    73   6 C    3.864 --    74 O    1.806    72 C    1.051   107 H    0.942
    74   8 O    2.002 --    73 C    1.806
    75   6 C    3.993 --    76 C    1.466    72 C    1.378   108 H    0.971
    76   6 C    3.987 --    75 C    1.466    69 C    1.383   109 H    0.972
    77   6 C    3.912 --    68 C    1.321    80 N    1.227    78 C    1.178
    78   6 C    3.959 --    79 C    1.647    77 C    1.178   110 H    0.973
    79   6 C    3.961 --    78 C    1.647    81 C    1.185   111 H    0.974
    80   7 N    3.296 --    81 C    1.263    77 C    1.227    61 Zn   0.455
    81   6 C    3.899 --    80 N    1.263    82 C    1.253    79 C    1.185
    82   6 C    3.939 --    83 C    1.254    81 C    1.253   136 C    1.193
    83   6 C    3.900 --    87 N    1.262    82 C    1.254    84 C    1.185
    84   6 C    3.962 --    85 C    1.647    83 C    1.185   112 H    0.974
    85   6 C    3.959 --    84 C    1.647    86 C    1.178   113 H    0.973
    86   6 C    3.912 --    88 C    1.321    87 N    1.227    85 C    1.178
    87   7 N    3.296 --    83 C    1.262    86 C    1.227    61 Zn   0.455
    88   6 C    3.931 --    86 C    1.321    97 C    1.311    89 C    1.033
    89   6 C    3.985 --    90 C    1.382    96 C    1.380    88 C    1.033
    90   6 C    3.987 --    91 C    1.466    89 C    1.382   114 H    0.972
    91   6 C    3.993 --    90 C    1.466    92 C    1.377   115 H    0.971
    92   6 C    3.983 --    91 C    1.377    95 C    1.369    93 C    1.050
    93   6 C    3.864 --    94 O    1.806    92 C    1.050   116 H    0.942
    94   8 O    2.002 --    93 C    1.806
    95   6 C    3.988 --    96 C    1.472    92 C    1.369   117 H    0.968
    96   6 C    3.987 --    95 C    1.472    89 C    1.380   118 H    0.972
    97   6 C    3.918 --    88 C    1.311   101 N    1.246    98 C    1.171
    98   6 C    3.963 --    99 C    1.660    97 C    1.171   119 H    0.973
    99   6 C    3.960 --    98 C    1.660   100 C    1.170   120 H    0.975
   100   6 C    3.920 --    62 C    1.358   101 N    1.232    99 C    1.170
   101   7 N    3.293 --    97 C    1.246   100 C    1.232    61 Zn   0.459
   102   1 H    1.001 --    62 C    0.971
   103   1 H    0.998 --    64 C    0.975
   104   1 H    1.004 --    65 C    0.973
   105   1 H    1.004 --    70 C    0.972
   106   1 H    1.005 --    71 C    0.968
   107   1 H    1.010 --    73 C    0.942
   108   1 H    1.000 --    75 C    0.971
   109   1 H    1.004 --    76 C    0.972
   110   1 H    1.004 --    78 C    0.973
   111   1 H    1.002 --    79 C    0.974
   112   1 H    1.002 --    84 C    0.974
   113   1 H    1.004 --    85 C    0.973
   114   1 H    1.004 --    90 C    0.972
   115   1 H    1.000 --    91 C    0.971
   116   1 H    1.010 --    93 C    0.942
   117   1 H    1.005 --    95 C    0.968
   118   1 H    1.004 --    96 C    0.972
   119   1 H    1.004 --    98 C    0.973
   120   1 H    0.998 --    99 C    0.975
   121   6 C    3.877 --   122 C    2.437    22 C    1.194   124 C    0.186
   122   6 C    3.934 --   121 C    2.437   123 C    1.346
   123   6 C    3.892 --   124 C    2.334   122 C    1.346   126 C    0.182
   124   6 C    3.925 --   123 C    2.334   125 C    1.371   121 C    0.186
   125   6 C    3.923 --   126 C    2.333   124 C    1.371   128 C    0.186
   126   6 C    3.893 --   125 C    2.333   127 C    1.347   123 C    0.182
   127   6 C    3.931 --   128 C    2.434   126 C    1.347
   128   6 C    3.877 --   127 C    2.434   138 C    1.196   125 C    0.186
   129   6 C    3.877 --   130 C    2.434   158 C    1.196   132 C    0.186
   130   6 C    3.931 --   129 C    2.434   131 C    1.347
   131   6 C    3.893 --   132 C    2.333   130 C    1.347   134 C    0.182
   132   6 C    3.923 --   131 C    2.333   133 C    1.371   129 C    0.186
   133   6 C    3.925 --   134 C    2.334   132 C    1.371   136 C    0.186
   134   6 C    3.892 --   133 C    2.334   135 C    1.345   131 C    0.182
   135   6 C    3.934 --   136 C    2.437   134 C    1.345
   136   6 C    3.877 --   135 C    2.437    82 C    1.193   133 C    0.186
   137  30 Zn   1.990 --   156 N    0.456   177 N    0.456   143 N    0.455
                           163 N    0.455
   138   6 C    3.927 --   176 C    1.250   139 C    1.250   128 C    1.196
   139   6 C    3.900 --   143 N    1.263   138 C    1.250   140 C    1.188
   140   6 C    3.960 --   141 C    1.644   139 C    1.188   178 H    0.974
   141   6 C    3.960 --   140 C    1.644   142 C    1.181   179 H    0.973
   142   6 C    3.910 --   144 C    1.317   143 N    1.226   141 C    1.181
   143   7 N    3.291 --   139 C    1.263   142 C    1.226   137 Zn   0.455
   144   6 C    3.927 --   153 C    1.317   142 C    1.317   145 C    1.032
   145   6 C    3.985 --   152 C    1.383   146 C    1.380   144 C    1.032
   146   6 C    3.987 --   147 C    1.471   145 C    1.380   180 H    0.972
   147   6 C    3.988 --   146 C    1.471   148 C    1.369   181 H    0.968
                           152 C    0.100
   148   6 C    3.983 --   151 C    1.378   147 C    1.369   149 C    1.050
   149   6 C    3.864 --   150 O    1.807   148 C    1.050   182 H    0.942
   150   8 O    2.003 --   149 C    1.807
   151   6 C    3.993 --   152 C    1.466   148 C    1.378   183 H    0.971
   152   6 C    3.987 --   151 C    1.466   145 C    1.383   184 H    0.972
                           147 C    0.100
   153   6 C    3.910 --   144 C    1.317   156 N    1.226   154 C    1.180
   154   6 C    3.960 --   155 C    1.644   153 C    1.180   185 H    0.973
   155   6 C    3.960 --   154 C    1.644   157 C    1.187   186 H    0.974
   156   7 N    3.291 --   157 C    1.263   153 C    1.226   137 Zn   0.456
   157   6 C    3.900 --   156 N    1.263   158 C    1.251   155 C    1.187
   158   6 C    3.927 --   157 C    1.251   159 C    1.251   129 C    1.196
   159   6 C    3.900 --   163 N    1.263   158 C    1.251   160 C    1.188
   160   6 C    3.960 --   161 C    1.643   159 C    1.188   187 H    0.974
   161   6 C    3.960 --   160 C    1.643   162 C    1.181   188 H    0.973
   162   6 C    3.910 --   164 C    1.317   163 N    1.226   161 C    1.181
   163   7 N    3.291 --   159 C    1.263   162 C    1.226   137 Zn   0.455
   164   6 C    3.927 --   173 C    1.317   162 C    1.317   165 C    1.033
   165   6 C    3.985 --   166 C    1.383   172 C    1.380   164 C    1.033
   166   6 C    3.987 --   167 C    1.466   165 C    1.383   189 H    0.972
                           171 C    0.100
   167   6 C    3.993 --   166 C    1.466   168 C    1.378   190 H    0.971
   168   6 C    3.983 --   167 C    1.378   171 C    1.369   169 C    1.050
   169   6 C    3.864 --   170 O    1.807   168 C    1.050   191 H    0.942
   170   8 O    2.003 --   169 C    1.807
   171   6 C    3.988 --   172 C    1.471   168 C    1.369   192 H    0.968
                           166 C    0.100
   172   6 C    3.987 --   171 C    1.471   165 C    1.380   193 H    0.972
   173   6 C    3.910 --   164 C    1.317   177 N    1.226   174 C    1.180
   174   6 C    3.960 --   175 C    1.644   173 C    1.180   194 H    0.973
   175   6 C    3.960 --   174 C    1.644   176 C    1.187   195 H    0.974
   176   6 C    3.900 --   177 N    1.263   138 C    1.250   175 C    1.187
   177   7 N    3.291 --   176 C    1.263   173 C    1.226   137 Zn   0.456
   178   1 H    1.002 --   140 C    0.974
   179   1 H    1.004 --   141 C    0.973
   180   1 H    1.004 --   146 C    0.972
   181   1 H    1.005 --   147 C    0.968
   182   1 H    1.010 --   149 C    0.942
   183   1 H    1.000 --   151 C    0.971
   184   1 H    1.004 --   152 C    0.972
   185   1 H    1.004 --   154 C    0.973
   186   1 H    1.002 --   155 C    0.974
   187   1 H    1.002 --   160 C    0.974
   188   1 H    1.004 --   161 C    0.973
   189   1 H    1.004 --   166 C    0.972
   190   1 H    1.000 --   167 C    0.971
   191   1 H    1.010 --   169 C    0.942
   192   1 H    1.005 --   171 C    0.968
   193   1 H    1.004 --   172 C    0.972
   194   1 H    1.004 --   174 C    0.973
   195   1 H    1.002 --   175 C    0.974
 ---------------------------------------------------------------------------

           -------------------------------------------------
          | TOTAL ENERGY             -347.965096843130 Eh   |
          | GRADIENT NORM               0.000713010143 Eh/α |
          | HOMO-LUMO GAP               0.959607001802 eV   |
           -------------------------------------------------

 * finished run on 2022/07/30 at 09:17:49.157
