   * xtb version 6.5.1 (b24c23e) compiled by 'conda@728c89f4b128' on 2022-07-12
          program call               : xtb Co_Ph2OMe_C2_2.xyz --gfn 1 --opt -T 48

   ID    Z sym.   atoms
    1   27 Co     1, 73
    2    6 C      2-6, 8-11, 13-21, 23-27, 29-33, 36, 37, 39-43, 45, 74-78,
                  80-83, 85-93, 95-99, 101-105, 108, 109, 111-115, 117, 145,
                  146
    3    7 N      7, 12, 34, 35, 79, 84, 106, 107
    4    8 O      22, 28, 38, 44, 94, 100, 110, 116
    5    1 H      46-72, 118-144
########################################################################
[WARNING] Please study the warnings concerning your input carefully
-1- prog_main_parseArguments: Unknown option '-T' provided
########################################################################

          :  Hamiltonian                  GFN1-xTB          :
 * total energy  :  -255.5358827 Eh     change       -0.1664887E-08 Eh
 * total energy  :  -255.6196408 Eh     change       -0.8375813E-01 Eh
 * total energy  :  -255.6704970 Eh     change       -0.5085611E-01 Eh
 * total energy  :  -255.6878108 Eh     change       -0.1731384E-01 Eh
 * total energy  :  -255.6980573 Eh     change       -0.1024651E-01 Eh
 * total energy  :  -255.7039413 Eh     change       -0.5884031E-02 Eh
 * total energy  :  -255.7074089 Eh     change       -0.3467598E-02 Eh
 * total energy  :  -255.7094925 Eh     change       -0.2083562E-02 Eh
 * total energy  :  -255.7107459 Eh     change       -0.1253392E-02 Eh
 * total energy  :  -255.7114478 Eh     change       -0.7019260E-03 Eh
 * total energy  :  -255.7141395 Eh     change       -0.2435704E-04 Eh
 * total energy  :  -255.7141544 Eh     change       -0.1492123E-04 Eh
 * total energy  :  -255.7141647 Eh     change       -0.1031297E-04 Eh
 * total energy  :  -255.7141749 Eh     change       -0.1018114E-04 Eh
 * total energy  :  -255.7141860 Eh     change       -0.1105519E-04 Eh
 * total energy  :  -255.7141993 Eh     change       -0.1333708E-04 Eh
 * total energy  :  -255.7142143 Eh     change       -0.1501774E-04 Eh
 * total energy  :  -255.7142281 Eh     change       -0.1374172E-04 Eh
 * total energy  :  -255.7142327 Eh     change       -0.4633681E-05 Eh
   *** GEOMETRY OPTIMIZATION CONVERGED AFTER 68 ITERATIONS ***

 final structure:
================
146
 xtb: 6.5.1 (b24c23e)
Co          15.77778476132065       -0.06060869257142        0.13349816879342
C           12.42007674278687       -0.25403235545741        0.38473947422020
C           13.11164448774046        0.44374356615802        1.35172640863086
C           12.48511381056611        1.09170462074756        2.46404248657604
C           13.43665584005965        1.85078611689328        3.05637196580935
C           14.64669352698834        1.65367886165225        2.31455598740903
N           14.44605993573700        0.75831472568522        1.29541655992488
C           15.81221863485250        2.37835121118041        2.51833933940034
C           16.97266250685838        2.11578895153571        1.81008918712633
C           18.21643985313833        2.78520694341302        2.04493516992572
C           19.16474070045573        2.09758066743179        1.36518613421852
N           17.15085750047365        1.06398335493157        0.93910045073251
C           18.49632930803660        1.01940656319012        0.70707665805994
C           19.16319415780582        0.02073289020022       -0.00530504801894
C           18.47810075684350       -0.96084747372895       -0.72251389904972
C           19.13080654361292       -1.98099204505994       -1.48145264262351
C           18.16490639153456       -2.61938553960456       -2.18441740805155
C           16.92398467494481       -1.99140101480873       -1.84613974169046
C           15.71196595640189       -2.29491256625349       -2.44590851662280
C           15.68865578682338       -3.28582678081382       -3.55493096216075
C           16.30341575691963       -2.99579529145709       -4.78077884954620
O           16.88169965830055       -1.77049998433520       -4.88081356924988
C           17.56293529155855       -1.39341824745433       -6.06009434355031
C           16.28824508856774       -3.93028353142436       -5.81590851501349
C           15.66577929288648       -5.15361812534350       -5.61955196773533
C           15.05586343263335       -5.46534779877202       -4.41390224136541
C           15.06559427320114       -4.52954584110630       -3.38027798728962
O           14.50715098409255       -4.74872701942959       -2.16090026284805
C           13.84656066338589       -5.96611823469533       -1.88143316503912
C           14.52006860748927       -1.73399554030153       -2.01246813627389
C           13.23902546266269       -2.03394531095408       -2.58128742629236
C           12.30980530374974       -1.48371124233231       -1.76551280703391
C           13.02521964787888       -0.82912297469985       -0.71209871683344
N           14.37931871190995       -0.93721654373373       -0.90387732442008
N           17.12462268916330       -1.00393539444447       -0.91009979593475
C           15.82668464852148        3.45118417092745        3.54993997509767
C           15.79304103230815        3.12622548848410        4.91208600104059
O           15.75107156664301        1.79945763209009        5.20420152716927
C           15.73126667748776        1.36159559221550        6.54767894946148
C           15.81357203368455        4.13270109132525        5.87711482984046
C           15.86202333911256        5.45901505907421        5.47514912032735
C           15.89498578811794        5.80422750380567        4.13243364509654
C           15.88168438527035        4.79757916100434        3.16744057870792
O           15.91034807736452        5.03240618349849        1.82911482824308
C           15.98065694135108        6.35438256503740        1.33503427220628
H           11.34318963001614       -0.33302959762315        0.47854095049019
H           11.44461593567440        0.98350580030126        2.72703979899223
H           13.34085252976386        2.49675670654467        3.91385488680262
H           18.33791298527400        3.65444885154050        2.67051382470587
H           20.22437771741382        2.28816823609262        1.30691446694371
H           20.19328830361960       -2.16427219479734       -1.47474727645100
H           18.26973708172750       -3.44078083458291       -2.87452107915834
H           16.88746855991470       -1.36556189756682       -6.92378719578493
H           17.95298648395174       -0.39037224483120       -5.87779220130415
H           18.39820488227888       -2.07101073223979       -6.27502984081304
H           16.75530249948427       -3.71378227024175       -6.76734534946028
H           15.65671763805345       -5.88104701596708       -6.42385809004566
H           14.58189995062187       -6.42939888901082       -4.28651316460634
H           13.47568020124381       -5.88183418679578       -0.85820678993288
H           12.99942627833452       -6.12872569445708       -2.55883441956968
H           14.53213307777306       -6.81972280957903       -1.94682206142738
H           13.08734936209665       -2.61086744374776       -3.47920927019656
H           11.23463655109277       -1.51032327985336       -1.84841673862248
H           15.69707534466761        0.27115629447781        6.51104021681804
H           14.84562645869596        1.73181413312525        7.07832775662978
H           16.63386414762330        1.67580610844533        7.08572527405525
H           15.79223105397701        3.89269097144902        6.93173135304598
H           15.87462695572313        6.24175071764260        6.22569895246388
H           15.93083344567431        6.84731438901108        3.84795626494843
H           16.88760682439147        6.86503291422763        1.68111691349116
H           16.00974591920555        6.27075645347675        0.24706124734993
H           15.10091654269346        6.94042695033217        1.62772146991951
Co          26.57858589864318       -0.14088975039013        0.04114141789255
C           29.93632439744896       -0.41684568586584        0.19670838170875
C           29.24475892845378       -1.27493731739458       -0.63132499355758
C           29.87126699643321       -2.28399213208559       -1.43065600224500
C           28.91972814995993       -2.76246553732765       -2.26620345375731
C           27.70969579192474       -2.05616359226528       -1.96571785849563
N           27.91031292089815       -1.17462292912270       -0.93460086815752
C           26.54416351082074       -2.15492697434187       -2.71198393482534
C           25.38372043138608       -1.49117408910362       -2.35145037907566
C           24.13993579479795       -1.62857450637985       -3.04742509749221
C           23.19163292464724       -1.05340214419250       -2.27021393798750
N           25.20551379145281       -0.77850098252039       -1.18653671652074
C           23.86005211810565       -0.55504862143247       -1.10952452201503
C           23.19318712443776        0.00830838796274       -0.01982440363952
C           23.87828103857625        0.57875961240884        1.05371309101808
C           23.22558369911797        1.18503220716247        2.17135645725915
C           24.19148507144599        1.79018757269855        2.90312913534258
C           25.43240164041750        1.54455717001416        2.23344706815049
C           26.64442210006074        2.09513677518082        2.61906085783068
C           26.66773935039328        3.05212967146821        3.75748417930172
C           26.05298360398371        4.30674538349668        3.64452784987735
O           25.47470145384246        4.57982095945006        2.44586753275745
C           24.79346606184966        5.80070692310209        2.24012654209163
C           26.06815262655973        5.19863009541096        4.71658272909477
C           26.69061442759526        4.83048704670583        5.89962087693804
C           27.30052677394995        3.59278074492678        6.03692656729834
C           27.29079389980175        2.70257070395782        4.96378539541729
O           27.84923664015648        1.46442236937222        5.00753121964352
C           28.50982010457527        1.01485654132476        6.17288309682508
C           27.83631515875073        1.74574779045062        2.00226547505721
C           29.11736105115291        2.26617384816096        2.37999464929566
C           30.04658159674178        1.53681878859145        1.71947451669633
C           29.33117103382542        0.58713738669042        0.92180410931260
N           27.97706368647422        0.76151399416335        1.05615631528405
N           25.23176644595099        0.75820523805589        1.12308684460164
C           26.52967559180221       -3.02369524759963       -3.92046034374866
C           26.56331869303196       -4.41819126855710       -3.79228651831779
O           26.60529679523925       -4.89581076837950       -2.52046725272225
C           26.62510634621572       -6.28786420886682       -2.27788580935916
C           26.54280608096797       -5.23046759640523       -4.92563645007968
C           26.49437174122912       -4.64417756247925       -6.18140128302069
C           26.46139534175152       -3.26604057323641       -6.33238216909120
C           26.47468318911168       -2.45382398373634       -5.19886688449911
O           26.44601855537409       -1.09571279355086       -5.24120547116078
C           26.37572012804564       -0.41885710831892       -6.47959192863958
H           31.01320506729336       -0.52098657618875        0.26167521324512
H           30.91176888265399       -2.55967788519939       -1.36092662902838
H           29.01553667497310       -3.51946592316058       -3.02745428683208
H           24.01846410398040       -2.12432030733899       -3.99672448256675
H           22.13199767310525       -0.96863360770669       -2.45060182326280
H           22.16309986221573        1.15238090537546        2.35181270311010
H           24.08665455379396        2.35663380633903        3.81421232044181
H           25.46893275713552        6.65959765084814        2.33524774106517
H           24.40342169508958        5.76273862468550        1.22135304959648
H           23.95819246824615        5.91720693798844        2.94137542320573
H           25.60109311642813        6.17117167024024        4.63743045124225
H           26.69966794003276        5.52330109861362        6.73392871619542
H           27.77448583403669        3.32973699226835        6.97310774605225
H           28.88069958842710        0.01397761551173        5.94410766683793
H           29.35695519862542        1.66228692924717        6.43007250693478
H           27.82424415691913        0.95832914130169        7.02711750052797
H           29.26903899377679        3.07305473863592        3.07860033676212
H           31.12174958009838        1.61511266798226        1.75758234798436
H           26.65929262122345       -6.40649758689056       -1.19329966123948
H           27.51074782251905       -6.76054556879796       -2.71972483818050
H           25.72251043128250       -6.77582331068715       -2.66534188897237
H           26.56414877303888       -6.30848350662577       -4.83786739467124
H           26.48173765038850       -5.27593292065856       -7.06281215245514
H           26.42553882057387       -2.83627953716440       -7.32448296366765
H           25.46877450754243       -0.68889621766859       -7.03422941729214
H           26.34662899519421        0.64620400223665       -6.24226582383142
H           27.25546518369560       -0.62533057364187       -7.10126106703983
C           20.56995883533693        0.01970878273436       -0.01847757517115
C           21.78642191261407        0.02122531330755       -0.01694003988134

          :  Hamiltonian                  GFN1-xTB          :
         :: total energy            -255.714232693972 Eh    ::
         :: gradient norm              0.000422889200 Eh/a0 ::
         :: HOMO-LUMO gap              0.014106726535 eV    ::
         :: SCC energy              -259.177064657593 Eh    ::
         :: repulsion energy           3.592684995103 Eh    ::

    * Orbital Energies and Occupations

         #    Occupation            Energy/Eh            Energy/eV
      -------------------------------------------------------------
         1        2.0000           -0.8052724             -21.9126
       ...           ...                  ...                  ...
       216        2.0000           -0.4103514             -11.1662
       217        2.0000           -0.4102684             -11.1640
       218        2.0000           -0.3816212             -10.3844
       219        2.0000           -0.3792663             -10.3204
       220        2.0000           -0.3792393             -10.3196
       221        2.0000           -0.3778749             -10.2825
       222        2.0000           -0.3775410             -10.2734
       223        1.9998           -0.3745038             -10.1908
       224        1.9998           -0.3745004             -10.1907
       225        1.9998           -0.3744642             -10.1897
       226        1.9998           -0.3744636             -10.1897
       227        1.9423           -0.3688522             -10.0370
       228        1.1646           -0.3658277              -9.9547 (HOMO)
       229        0.8937           -0.3653093              -9.9406 (LUMO)
       230                         -0.3207465              -8.7280
       231                         -0.3099174              -8.4333
       232                         -0.3099038              -8.4329
       233                         -0.3053734              -8.3096
       234                         -0.2795974              -7.6082
       235                         -0.2763870              -7.5209
       236                         -0.2763787              -7.5206
       237                         -0.2716109              -7.3909
       238                         -0.2535114              -6.8984
       239                         -0.2535035              -6.8982
       ...                                ...                  ...
       486                          1.3598234              37.0027
      -------------------------------------------------------------
                  HL-Gap            0.0005184 Eh            0.0141 eV

Wiberg/Mayer (AO) data.
largest (>0.10) Wiberg bond orders for each atom

     #   Z sym  total        # sym  WBO       # sym  WBO       # sym  WBO
 ---------------------------------------------------------------------------
     1  27 Co   3.064 --    34 N    0.642    12 N    0.638     7 N    0.637
                            35 N    0.634
     2   6 C    3.930 --     3 C    1.364    33 C    1.364    46 H    0.970
     3   6 C    3.926 --     2 C    1.364     7 N    1.203     4 C    1.174
     4   6 C    3.960 --     5 C    1.649     3 C    1.174    47 H    0.976
     5   6 C    3.963 --     4 C    1.649     6 C    1.178    48 H    0.974
     6   6 C    3.919 --     8 C    1.321     7 N    1.212     5 C    1.178
     7   7 N    3.348 --     6 C    1.212     3 C    1.203     1 Co   0.637
     8   6 C    3.932 --     9 C    1.341     6 C    1.321    36 C    1.013
     9   6 C    3.917 --     8 C    1.341    12 N    1.190    10 C    1.180
    10   6 C    3.959 --    11 C    1.639     9 C    1.180    49 H    0.974
    11   6 C    3.963 --    10 C    1.639    13 C    1.189    50 H    0.972
    12   7 N    3.348 --    13 C    1.234     9 C    1.190     1 Co   0.638
    13   6 C    3.911 --    14 C    1.263    12 N    1.234    11 C    1.189
    14   6 C    3.934 --    15 C    1.267    13 C    1.263   145 C    1.176
    15   6 C    3.911 --    14 C    1.267    35 N    1.228    16 C    1.188
    16   6 C    3.962 --    17 C    1.638    15 C    1.188    51 H    0.972
    17   6 C    3.960 --    16 C    1.638    18 C    1.182    52 H    0.974
    18   6 C    3.917 --    19 C    1.332    35 N    1.196    17 C    1.182
    19   6 C    3.932 --    18 C    1.332    30 C    1.326    20 C    1.018
    20   6 C    3.977 --    21 C    1.341    27 C    1.341    19 C    1.018
                            25 C    0.100
    21   6 C    3.903 --    24 C    1.362    20 C    1.341    22 O    1.033
    22   8 O    2.146 --    21 C    1.033    23 C    0.935
    23   6 C    3.907 --    54 H    0.983    55 H    0.980    53 H    0.980
                            22 O    0.935
    24   6 C    3.983 --    25 C    1.442    21 C    1.362    56 H    0.969
    25   6 C    3.992 --    24 C    1.442    26 C    1.441    57 H    0.974
                            20 C    0.100
    26   6 C    3.983 --    25 C    1.441    27 C    1.363    58 H    0.969
    27   6 C    3.902 --    26 C    1.363    20 C    1.341    28 O    1.032
    28   8 O    2.146 --    27 C    1.032    29 C    0.935
    29   6 C    3.907 --    59 H    0.983    60 H    0.980    61 H    0.980
                            28 O    0.935
    30   6 C    3.920 --    19 C    1.326    34 N    1.209    31 C    1.176
    31   6 C    3.963 --    32 C    1.651    30 C    1.176    62 H    0.974
    32   6 C    3.960 --    31 C    1.651    33 C    1.173    63 H    0.976
    33   6 C    3.926 --     2 C    1.364    34 N    1.204    32 C    1.173
    34   7 N    3.346 --    30 C    1.209    33 C    1.204     1 Co   0.642
    35   7 N    3.350 --    15 C    1.228    18 C    1.196     1 Co   0.634
    36   6 C    3.977 --    43 C    1.343    37 C    1.343     8 C    1.013
                            41 C    0.101
    37   6 C    3.903 --    40 C    1.362    36 C    1.343    38 O    1.031
    38   8 O    2.146 --    37 C    1.031    39 C    0.935
    39   6 C    3.907 --    64 H    0.983    65 H    0.980    66 H    0.980
                            38 O    0.935
    40   6 C    3.983 --    41 C    1.442    37 C    1.362    67 H    0.969
    41   6 C    3.993 --    40 C    1.442    42 C    1.442    68 H    0.974
                            36 C    0.101
    42   6 C    3.983 --    41 C    1.442    43 C    1.362    69 H    0.969
    43   6 C    3.903 --    42 C    1.362    36 C    1.343    44 O    1.032
    44   8 O    2.146 --    43 C    1.032    45 C    0.936
    45   6 C    3.908 --    71 H    0.983    70 H    0.980    72 H    0.980
                            44 O    0.936
    46   1 H    1.001 --     2 C    0.970
    47   1 H    0.998 --     4 C    0.976
    48   1 H    1.002 --     5 C    0.974
    49   1 H    1.002 --    10 C    0.974
    50   1 H    1.004 --    11 C    0.972
    51   1 H    1.004 --    16 C    0.972
    52   1 H    1.002 --    17 C    0.974
    53   1 H    1.009 --    23 C    0.980
    54   1 H    1.015 --    23 C    0.983
    55   1 H    1.009 --    23 C    0.980
    56   1 H    1.000 --    24 C    0.969
    57   1 H    1.003 --    25 C    0.974
    58   1 H    1.000 --    26 C    0.969
    59   1 H    1.015 --    29 C    0.983
    60   1 H    1.009 --    29 C    0.980
    61   1 H    1.009 --    29 C    0.980
    62   1 H    1.002 --    31 C    0.974
    63   1 H    0.998 --    32 C    0.976
    64   1 H    1.015 --    39 C    0.983
    65   1 H    1.009 --    39 C    0.980
    66   1 H    1.009 --    39 C    0.980
    67   1 H    1.000 --    40 C    0.969
    68   1 H    1.003 --    41 C    0.974
    69   1 H    1.000 --    42 C    0.969
    70   1 H    1.009 --    45 C    0.980
    71   1 H    1.015 --    45 C    0.983
    72   1 H    1.009 --    45 C    0.980
    73  27 Co   3.064 --   106 N    0.642    84 N    0.638    79 N    0.637
                           107 N    0.634
    74   6 C    3.930 --    75 C    1.364   105 C    1.364   118 H    0.970
    75   6 C    3.926 --    74 C    1.364    79 N    1.203    76 C    1.174
    76   6 C    3.960 --    77 C    1.649    75 C    1.174   119 H    0.976
    77   6 C    3.963 --    76 C    1.649    78 C    1.178   120 H    0.974
    78   6 C    3.919 --    80 C    1.321    79 N    1.212    77 C    1.178
    79   7 N    3.348 --    78 C    1.212    75 C    1.203    73 Co   0.637
    80   6 C    3.932 --    81 C    1.341    78 C    1.321   108 C    1.013
    81   6 C    3.917 --    80 C    1.341    84 N    1.190    82 C    1.180
    82   6 C    3.959 --    83 C    1.639    81 C    1.180   121 H    0.974
    83   6 C    3.963 --    82 C    1.639    85 C    1.189   122 H    0.972
    84   7 N    3.348 --    85 C    1.234    81 C    1.190    73 Co   0.638
    85   6 C    3.911 --    86 C    1.263    84 N    1.234    83 C    1.189
    86   6 C    3.934 --    87 C    1.267    85 C    1.263   146 C    1.176
    87   6 C    3.911 --    86 C    1.267   107 N    1.228    88 C    1.188
    88   6 C    3.962 --    89 C    1.638    87 C    1.188   123 H    0.972
    89   6 C    3.960 --    88 C    1.638    90 C    1.182   124 H    0.974
    90   6 C    3.917 --    91 C    1.332   107 N    1.196    89 C    1.182
    91   6 C    3.932 --    90 C    1.332   102 C    1.326    92 C    1.018
    92   6 C    3.977 --    93 C    1.341    99 C    1.341    91 C    1.018
                            97 C    0.100
    93   6 C    3.903 --    96 C    1.362    92 C    1.341    94 O    1.033
    94   8 O    2.146 --    93 C    1.033    95 C    0.935
    95   6 C    3.907 --   126 H    0.983   127 H    0.980   125 H    0.980
                            94 O    0.935
    96   6 C    3.983 --    97 C    1.442    93 C    1.362   128 H    0.969
    97   6 C    3.992 --    96 C    1.442    98 C    1.441   129 H    0.974
                            92 C    0.100
    98   6 C    3.983 --    97 C    1.441    99 C    1.363   130 H    0.969
    99   6 C    3.902 --    98 C    1.363    92 C    1.341   100 O    1.032
   100   8 O    2.146 --    99 C    1.032   101 C    0.935
   101   6 C    3.907 --   131 H    0.983   132 H    0.980   133 H    0.980
                           100 O    0.935
   102   6 C    3.920 --    91 C    1.326   106 N    1.209   103 C    1.176
   103   6 C    3.963 --   104 C    1.651   102 C    1.176   134 H    0.974
   104   6 C    3.960 --   103 C    1.651   105 C    1.173   135 H    0.976
   105   6 C    3.926 --    74 C    1.364   106 N    1.204   104 C    1.173
   106   7 N    3.346 --   102 C    1.209   105 C    1.204    73 Co   0.642
   107   7 N    3.350 --    87 C    1.228    90 C    1.196    73 Co   0.634
   108   6 C    3.977 --   115 C    1.343   109 C    1.343    80 C    1.013
                           113 C    0.101
   109   6 C    3.903 --   112 C    1.362   108 C    1.343   110 O    1.031
   110   8 O    2.146 --   109 C    1.031   111 C    0.935
   111   6 C    3.907 --   136 H    0.983   137 H    0.980   138 H    0.980
                           110 O    0.935
   112   6 C    3.983 --   113 C    1.442   109 C    1.362   139 H    0.969
   113   6 C    3.993 --   112 C    1.442   114 C    1.442   140 H    0.974
                           108 C    0.101
   114   6 C    3.983 --   113 C    1.442   115 C    1.362   141 H    0.969
   115   6 C    3.903 --   114 C    1.362   108 C    1.343   116 O    1.032
   116   8 O    2.146 --   115 C    1.032   117 C    0.936
   117   6 C    3.908 --   143 H    0.983   142 H    0.980   144 H    0.980
                           116 O    0.936
   118   1 H    1.001 --    74 C    0.970
   119   1 H    0.998 --    76 C    0.976
   120   1 H    1.002 --    77 C    0.974
   121   1 H    1.002 --    82 C    0.974
   122   1 H    1.004 --    83 C    0.972
   123   1 H    1.004 --    88 C    0.972
   124   1 H    1.002 --    89 C    0.974
   125   1 H    1.009 --    95 C    0.980
   126   1 H    1.015 --    95 C    0.983
   127   1 H    1.009 --    95 C    0.980
   128   1 H    1.000 --    96 C    0.969
   129   1 H    1.003 --    97 C    0.974
   130   1 H    1.000 --    98 C    0.969
   131   1 H    1.015 --   101 C    0.983
   132   1 H    1.009 --   101 C    0.980
   133   1 H    1.009 --   101 C    0.980
   134   1 H    1.002 --   103 C    0.974
   135   1 H    0.998 --   104 C    0.976
   136   1 H    1.015 --   111 C    0.983
   137   1 H    1.009 --   111 C    0.980
   138   1 H    1.009 --   111 C    0.980
   139   1 H    1.000 --   112 C    0.969
   140   1 H    1.003 --   113 C    0.974
   141   1 H    1.000 --   114 C    0.969
   142   1 H    1.009 --   117 C    0.980
   143   1 H    1.015 --   117 C    0.983
   144   1 H    1.009 --   117 C    0.980
   145   6 C    3.930 --   146 C    2.574    14 C    1.176
   146   6 C    3.930 --   145 C    2.574    86 C    1.176
 ---------------------------------------------------------------------------

           -------------------------------------------------
          | TOTAL ENERGY             -255.714232693972 Eh   |
          | GRADIENT NORM               0.000422889200 Eh/α |
          | HOMO-LUMO GAP               0.014106726535 eV   |
           -------------------------------------------------

 * finished run on 2022/07/30 at 01:27:43.911
