   * xtb version 6.5.1 (b24c23e) compiled by 'conda@728c89f4b128' on 2022-07-12
          program call               : xtb Fe_Ph_C8_3.xyz --gfn 1 --opt -T 48

   ID    Z sym.   atoms
    1   26 Fe     1, 57, 129
    2    6 C      2-6, 8-11, 13-29, 32-37, 58-62, 64-67, 69-85, 88-93,
                  113-128, 130-134, 136-139, 141-157, 160-165
    3    7 N      7, 12, 30, 31, 63, 68, 86, 87, 135, 140, 158, 159
    4    1 H      38-56, 94-112, 166-183

          :  Hamiltonian                  GFN1-xTB          :
 * total energy  :  -312.8336931 Eh     change       -0.6289270E-08 Eh
 * total energy  :  -313.2346733 Eh     change       -0.4009801E+00 Eh
 * total energy  :  -313.3551533 Eh     change       -0.1204800E+00 Eh
 * total energy  :  -313.4125161 Eh     change       -0.5736281E-01 Eh
 * total energy  :  -313.4554946 Eh     change       -0.4297853E-01 Eh
 * total energy  :  -313.5045200 Eh     change       -0.4902541E-01 Eh
 * total energy  :  -313.5579091 Eh     change       -0.5338905E-01 Eh
 * total energy  :  -313.6096220 Eh     change       -0.5171294E-01 Eh
 * total energy  :  -313.6533308 Eh     change       -0.4370881E-01 Eh
 * total energy  :  -313.6779285 Eh     change       -0.2459769E-01 Eh
 * total energy  :  -313.8210652 Eh     change       -0.1689239E-04 Eh
 * total energy  :  -313.8210842 Eh     change       -0.1892002E-04 Eh
 * total energy  :  -313.8211044 Eh     change       -0.2021756E-04 Eh
 * total energy  :  -313.8211255 Eh     change       -0.2109073E-04 Eh
 * total energy  :  -313.8211475 Eh     change       -0.2200839E-04 Eh
 * total energy  :  -313.8211694 Eh     change       -0.2187419E-04 Eh
 * total energy  :  -313.8211903 Eh     change       -0.2099787E-04 Eh
 * total energy  :  -313.8212102 Eh     change       -0.1989734E-04 Eh
 * total energy  :  -313.8212133 Eh     change       -0.3071178E-05 Eh
   *** GEOMETRY OPTIMIZATION CONVERGED AFTER 94 ITERATIONS ***

 final structure:
================
183
 xtb: 6.5.1 (b24c23e)
Fe          23.75618348797752       -0.01611207395747        0.02108531161165
C           20.36404873343682       -0.03966603691501        0.09421064110673
C           21.01184429619718       -1.24615452434464       -0.07121477313781
C           20.32834527703864       -2.49758959860528       -0.19976171766242
C           21.28296986721297       -3.45356089267347       -0.28325624491270
C           22.54907158055029       -2.78315808024036       -0.21033752964584
N           22.36940516271873       -1.43169040360280       -0.09007986204643
C           23.77226564005351       -3.44401217178549       -0.18484028047650
C           24.98601700296577       -2.78293557139009       -0.07131158064414
C           26.25523731525330       -3.44775009808478       -0.05441353943163
C           27.20203334644086       -2.48137855239714        0.00704176786448
N           25.16080822667062       -1.41951210004757       -0.02323972302408
C           26.50992077483008       -1.23059364245674        0.01517776098065
C           27.17016208458228        0.00439795397449        0.00129187785535
C           26.49478726259215        1.23112359018330       -0.02115861618614
C           27.16939833568950        2.48967145225812       -0.08637308844255
C           26.21057523353369        3.44563411673969       -0.05039022102016
C           24.95314195650672        2.76620618604475        0.05099155250066
C           23.73310344142280        3.41552791276291        0.16637177784012
C           23.71928929796105        4.89757042685777        0.22143542978645
C           23.09144158962988        5.63430844027428       -0.78353904847060
C           23.08191609935817        7.02013213372997       -0.73380660344059
C           23.69178628994969        7.68505305614027        0.32131265010139
C           24.31469581715180        6.95842129861795        1.32689337596031
C           24.33221376872034        5.57258247912437        1.27758159605149
C           22.52020416498889        2.73865188304732        0.23773608976469
C           21.25356570678233        3.38810876543251        0.41474976538674
C           20.31016672617563        2.41742800740746        0.39658645425946
C           21.00203042565571        1.17714490972242        0.21577032249209
N           22.35484160995344        1.38360327853759        0.14294088450270
N           25.14444785814210        1.40420020812423        0.03931200101869
C           23.77664381423718       -4.92553964505163       -0.27057313348422
C           23.34914719308522       -5.56685294328874       -1.43330484915891
C           23.35620594868626       -6.95154683653732       -1.51148729877513
C           23.78339765752708       -7.70980878339614       -0.42993556059559
C           24.20680137829469       -7.07800617237666        0.73139812070470
C           24.20676563998093       -5.69346271983328        0.81175471828889
H           19.28038819849175       -0.04827843541526        0.12959904956342
H           19.25584144208558       -2.61008613943265       -0.21327703568156
H           21.15466371970195       -4.52008955696941       -0.37218299283071
H           26.39369973730788       -4.51570646735115       -0.09676623235021
H           28.27439908010351       -2.58929202474143        0.03251276232066
H           28.23852314582187        2.60976052808249       -0.15583175001635
H           26.33289405189669        4.51555445940485       -0.09329921027789
H           22.62391687088624        5.11595656085347       -1.61327340420424
H           22.59638822827019        7.58335393656843       -1.52303923272632
H           23.68140233308134        8.76842119462894        0.35994164497399
H           24.78939469175894        7.47320840758946        2.15484881353387
H           24.80937025131916        5.00560642223222        2.06914260495604
H           21.11804040199410        4.44971358416424        0.54326973635657
H           19.24051414611064        2.51221750456864        0.49639880217392
H           23.02484914580958       -4.97502094289071       -2.28197696146246
H           23.02695023193802       -7.44055574891710       -2.42160413048120
H           23.78616326720737       -8.79213852683691       -0.49196965705801
H           24.53851932549536       -7.66599968047944        1.57997036801991
H           24.52749933441046       -5.20071559594398        1.72280936042933
Fe          60.88150985429577        0.04701169799220        0.03615533745334
C           64.27383177400998        0.05898830206109        0.10684113758551
C           63.62897924437542        1.27306327444131       -0.00647114881651
C           64.31538704947054        2.52721679635550       -0.08260974320220
C           63.36295952982745        3.48790405243454       -0.12879059397090
C           62.09534707981629        2.81789973183403       -0.08421879300520
N           62.27185488184593        1.46223874327091       -0.01947432645652
C           60.87387110475121        3.48012190572476       -0.03107569112874
C           59.65865960658685        2.81825016666191        0.05897619328962
C           58.39147029308888        3.48522680266121        0.10907343994712
C           57.44229040151095        2.51963229260356        0.13741663918576
N           59.48030021748711        1.45448492635697        0.05292926707768
C           58.13088733113415        1.26768174380648        0.09153421188059
C           57.46720661269980        0.03598993895861        0.03003685125732
C           58.13921310011231       -1.19025433795602       -0.04928824666926
C           57.46088779562619       -2.44300780939659       -0.16684683145102
C           58.41743090544038       -3.40179766183670       -0.18117644417051
C           59.67723477781283       -2.73058356664570       -0.05711931231110
C           60.89603882443909       -3.38741540867883        0.02243930583754
C           60.90600730308822       -4.87052390763099        0.00991090476675
C           61.52431445518715       -5.56258536052823       -1.03199245068643
C           61.52975905442490       -6.94928300995578       -1.04516880368670
C           60.92560214973625       -7.65962153981723       -0.01669804324409
C           60.31247487096693       -6.97760486260947        1.02548729622124
C           60.29883399210762       -5.59092321932282        1.03903176729252
C           62.11090857449182       -2.71767670006398        0.12145169949574
C           63.37601355728081       -3.37789669135339        0.26652213690289
C           64.32173267460358       -2.40970156243066        0.29449029086555
C           63.63288048308862       -1.16057409069924        0.17245622199208
N           62.27958344328886       -1.36013077932112        0.08979589799622
N           59.48944857430966       -1.36898647102928       -0.00579550690054
C           60.87365329797057        4.96404739814910       -0.05595868051225
C           61.29460256366163        5.65143240643942       -1.19442483495128
C           61.29195996357640        7.03821809713921       -1.21508918794053
C           60.87619997165978        7.75238323476342       -0.09960868464410
C           60.45952806152714        7.07442980025156        1.03788234242827
C           60.45478260713681        5.68775230270000        1.06065001653410
H           65.35747690712390        0.06344822691755        0.14343549529911
H           65.38815486677704        2.63776103927935       -0.09009839197996
H           63.49342973723213        4.55690325946278       -0.17456797193110
H           58.25606580376181        4.55442610315988        0.11035640087052
H           56.37038360799274        2.62915788454728        0.17334950715686
H           56.39101674853051       -2.55740720065489       -0.23434342127990
H           58.29210869150641       -4.46837572289194       -0.27193040963519
H           61.98757758311373       -5.00842833522233       -1.84070889046083
H           62.00761648305981       -7.47756061077856       -1.86274218977126
H           60.93283223504036       -8.74365195678641       -0.02727505885114
H           59.84239711162950       -7.52803453589321        1.83289511962277
H           59.82918911974183       -5.05896413724080        1.85889031807148
H           63.50883928301327       -4.44477609117029        0.34417801841861
H           65.39116208222096       -2.51168841268096        0.38949624046863
H           61.61055486427464        5.09415476344300       -2.06923047189834
H           61.61583306666680        7.56348996430214       -2.10674075134999
H           60.87715751387673        8.83636123569098       -0.11662121372730
H           60.13691390546067        7.62782882849481        1.91281464431810
H           60.13909435336382        5.15859527648051        1.95284617993604
C           28.57013146578665        0.01310688486409       -0.00082806165212
C           29.79688509506403        0.02098726923227        0.00246184629409
C           31.13569593614673        0.02958130344245        0.00791932750035
C           32.36892810013721        0.03444119687702        0.01310959723273
C           33.70278257774174        0.04170572858518        0.02023986227272
C           34.93612434385746        0.04424504051987        0.02659150111624
C           36.27459854574918        0.04594615624906        0.03242628757839
C           37.50172170795140        0.04679559086677        0.03698387396260
C           47.13553100637309       -0.00058503537429        0.03027781363896
C           48.36264903828057       -0.00147600111916        0.03432771506454
C           49.70114286814433       -0.00037086684206        0.03757416785023
C           50.93450667431045        0.00311264680500        0.04034910402632
C           52.26839326331001        0.00959025056026        0.04120948702818
C           53.50160734140816        0.01669557052195        0.04095939909323
C           54.84044651583616        0.02295584470532        0.03818236769977
C           56.06721875292200        0.03026726792992        0.03319368377320
Fe          42.31861491789954        0.02381809667833        0.03161527286898
C           38.90039805126850        0.04136973664965        0.03779779040842
C           39.56575016854436       -1.18572152324402        0.16447388976816
C           38.88551328737994       -2.43140943921399        0.32916347966631
C           39.83621954928851       -3.39719495463672        0.30770522664457
C           41.09186645929107       -2.73472975502869        0.12101713882623
N           40.91219078330531       -1.37373371784594        0.07289500291151
C           42.30078562685713       -3.39876599822098       -0.04200656706844
C           43.51694365102678       -2.74141742589816       -0.17540142740698
C           44.76587548572175       -3.40836269022896       -0.38920701330872
C           45.72671221171268       -2.45260093700070       -0.36759323945220
N           43.71082651632744       -1.38578963346600       -0.06769350292308
C           45.05926626850233       -1.20811565106407       -0.15004261776095
C           45.73684809023479        0.00557710555201        0.02902865745590
C           45.07192296886537        1.22650683115371        0.20708911199726
C           45.75292433765591        2.46412430725470        0.42160911097192
C           44.80244643596014        3.43012301973455        0.44302065548447
C           43.54601293421459        2.77632290921122        0.23236470343752
C           42.33642881223028        3.44670488551050        0.10240265645894
C           42.34527197677392        4.92916482802079        0.13224369714347
C           41.68578681776213        5.61898256195324        1.15004743193966
C           41.70065601055462        7.00535472177960        1.17896842526910
C           42.36476551149376        7.71723885250998        0.18932581144581
C           43.01893548638303        7.03729567562645       -0.82898485312920
C           43.01438552022604        5.65085840225041       -0.85682122099435
C           41.11960853997294        2.79532072086928       -0.05372797253446
C           39.86989222932885        3.47031834594660       -0.23550176782615
C           38.90930385925540        2.51421870884060       -0.25215321329419
C           39.57753159113616        1.26179975013654       -0.08976330945381
N           40.92616091315251        1.43628911020474       -0.00326054511089
N           43.72528171206169        1.41850646023872        0.12684847062131
C           42.29194741706939       -4.88136914594099       -0.07473706563147
C           41.62882444714164       -5.56041012368262       -1.09731724059200
C           41.62457704014575       -6.94680358011463       -1.12815179967422
C           42.27261789800704       -7.66909803978156       -0.13542639218520
C           42.93063956859223       -6.99969245866345        0.88735904871842
C           42.94559761710877       -5.61330278877893        0.91692821744385
H           37.81888092455902       -2.53800416375769        0.44376401386788
H           39.70909024693439       -4.46242447765775        0.41094787511152
H           44.88189121389787       -4.46943338505093       -0.53831227470877
H           46.79240194015500       -2.56514724918138       -0.48545128231970
H           46.81991089589456        2.56576983058663        0.53735081168397
H           44.93053216831116        4.48997613973200        0.59068611399356
H           41.17537285268263        5.06314010722515        1.92858813630497
H           41.19156222543464        7.53202164376217        1.97843489203060
H           42.37259789648967        8.80105822623975        0.21169430761329
H           43.53579661916606        7.58906666904948       -1.60623625709007
H           43.51746275414578        5.12023369684481       -1.65742405576684
H           39.75290657234863        4.53664931433153       -0.33932515313909
H           37.84326774761520        2.63145704047349       -0.36198188921648
H           41.12982980891861       -4.99628769309690       -1.87731998184827
H           41.11276513459022       -7.46528840019691       -1.93122189476056
H           42.26486739591781       -8.75289914719257       -0.15885649112275
H           43.43455247431510       -7.55965127184730        1.66718513332303
H           43.45168961478083       -5.09067383737121        1.72084622406220

          :  Hamiltonian                  GFN1-xTB          :
         :: total energy            -313.821213316629 Eh    ::
         :: gradient norm              0.000373948274 Eh/a0 ::
         :: HOMO-LUMO gap              0.052495197365 eV    ::
         :: SCC energy              -319.310764200702 Eh    ::
         :: repulsion energy           5.653470110337 Eh    ::

    * Orbital Energies and Occupations

         #    Occupation            Energy/Eh            Energy/eV
      -------------------------------------------------------------
         1        2.0000           -0.7727615             -21.0279
       ...           ...                  ...                  ...
       282        2.0000           -0.3970064             -10.8031
       283        2.0000           -0.3965141             -10.7897
       284        1.9967           -0.3900518             -10.6138
       285        1.9924           -0.3892596             -10.5923
       286        1.9917           -0.3891755             -10.5900
       287        1.9911           -0.3891076             -10.5882
       288        1.9686           -0.3879001             -10.5553
       289        1.9591           -0.3876456             -10.5484
       290        1.9496           -0.3874431             -10.5429
       291        1.9491           -0.3874318             -10.5426
       292        1.9471           -0.3873957             -10.5416
       293        1.9470           -0.3873937             -10.5415
       294        1.2685           -0.3844925             -10.4626 (HOMO)
       295        0.3708           -0.3825634             -10.4101 (LUMO)
       296        0.3349           -0.3824457             -10.4069
       297        0.3334           -0.3824408             -10.4067
       298                         -0.3466941              -9.4340
       299                         -0.3363719              -9.1531
       300                         -0.3308297              -9.0023
       301                         -0.3304043              -8.9908
       302                         -0.3274878              -8.9114
       303                         -0.3274689              -8.9109
       304                         -0.3123095              -8.4984
       305                         -0.3081028              -8.3839
       ...                                ...                  ...
       635                          1.5961110              43.4324
      -------------------------------------------------------------
                  HL-Gap            0.0019292 Eh            0.0525 eV

Wiberg/Mayer (AO) data.
largest (>0.10) Wiberg bond orders for each atom

     #   Z sym  total        # sym  WBO       # sym  WBO       # sym  WBO
 ---------------------------------------------------------------------------
     1  26 Fe   3.087 --     7 N    0.664    30 N    0.664    31 N    0.657
                            12 N    0.657
     2   6 C    3.918 --    29 C    1.363     3 C    1.363    38 H    0.970
     3   6 C    3.925 --     2 C    1.363     7 N    1.210     4 C    1.173
     4   6 C    3.959 --     5 C    1.649     3 C    1.173    39 H    0.975
     5   6 C    3.962 --     4 C    1.649     6 C    1.175    40 H    0.973
     6   6 C    3.920 --     8 C    1.313     7 N    1.225     5 C    1.175
     7   7 N    3.379 --     6 C    1.225     3 C    1.210     1 Fe   0.664
     8   6 C    3.921 --     9 C    1.338     6 C    1.313    32 C    1.022
     9   6 C    3.917 --     8 C    1.338    12 N    1.198    10 C    1.179
    10   6 C    3.957 --    11 C    1.639     9 C    1.179    41 H    0.973
    11   6 C    3.960 --    10 C    1.639    13 C    1.187    42 H    0.973
    12   7 N    3.378 --    13 C    1.248     9 C    1.198     1 Fe   0.657
    13   6 C    3.903 --    14 C    1.248    12 N    1.248    11 C    1.187
    14   6 C    3.919 --    13 C    1.248    15 C    1.248   113 C    1.207
    15   6 C    3.903 --    31 N    1.248    14 C    1.248    16 C    1.188
    16   6 C    3.960 --    17 C    1.639    15 C    1.188    43 H    0.973
    17   6 C    3.957 --    16 C    1.639    18 C    1.179    44 H    0.973
    18   6 C    3.918 --    19 C    1.337    31 N    1.198    17 C    1.179
    19   6 C    3.922 --    18 C    1.337    26 C    1.312    20 C    1.025
    20   6 C    3.988 --    25 C    1.395    21 C    1.395    19 C    1.025
                            23 C    0.108
    21   6 C    3.987 --    22 C    1.447    20 C    1.395    45 H    0.973
                            24 C    0.110
    22   6 C    3.995 --    21 C    1.447    23 C    1.438    46 H    0.973
                            25 C    0.110
    23   6 C    3.990 --    24 C    1.438    22 C    1.438    47 H    0.974
                            20 C    0.108
    24   6 C    3.995 --    25 C    1.447    23 C    1.438    48 H    0.973
                            21 C    0.110
    25   6 C    3.988 --    24 C    1.447    20 C    1.395    49 H    0.973
                            22 C    0.110
    26   6 C    3.920 --    19 C    1.312    30 N    1.226    27 C    1.176
    27   6 C    3.962 --    28 C    1.649    26 C    1.176    50 H    0.973
    28   6 C    3.958 --    27 C    1.649    29 C    1.173    51 H    0.975
    29   6 C    3.925 --     2 C    1.363    30 N    1.209    28 C    1.173
    30   7 N    3.379 --    26 C    1.226    29 C    1.209     1 Fe   0.664
    31   7 N    3.378 --    15 C    1.248    18 C    1.198     1 Fe   0.657
    32   6 C    3.988 --    33 C    1.397    37 C    1.397     8 C    1.022
                            35 C    0.108
    33   6 C    3.988 --    34 C    1.447    32 C    1.397    52 H    0.973
                            36 C    0.110
    34   6 C    3.995 --    33 C    1.447    35 C    1.438    53 H    0.973
                            37 C    0.110
    35   6 C    3.991 --    36 C    1.438    34 C    1.438    54 H    0.974
                            32 C    0.108
    36   6 C    3.995 --    37 C    1.446    35 C    1.438    55 H    0.973
                            33 C    0.110
    37   6 C    3.988 --    36 C    1.446    32 C    1.397    56 H    0.973
                            34 C    0.110
    38   1 H    1.001 --     2 C    0.970
    39   1 H    0.998 --     4 C    0.975
    40   1 H    1.005 --     5 C    0.973
    41   1 H    1.005 --    10 C    0.973
    42   1 H    1.002 --    11 C    0.973
    43   1 H    1.002 --    16 C    0.973
    44   1 H    1.005 --    17 C    0.973
    45   1 H    1.004 --    21 C    0.973
    46   1 H    1.002 --    22 C    0.973
    47   1 H    1.003 --    23 C    0.974
    48   1 H    1.003 --    24 C    0.973
    49   1 H    1.004 --    25 C    0.973
    50   1 H    1.005 --    27 C    0.973
    51   1 H    0.998 --    28 C    0.975
    52   1 H    1.004 --    33 C    0.973
    53   1 H    1.002 --    34 C    0.973
    54   1 H    1.003 --    35 C    0.974
    55   1 H    1.003 --    36 C    0.973
    56   1 H    1.004 --    37 C    0.973
    57  26 Fe   3.088 --    63 N    0.664    86 N    0.664    87 N    0.657
                            68 N    0.657
    58   6 C    3.918 --    85 C    1.363    59 C    1.363    94 H    0.970
    59   6 C    3.925 --    58 C    1.363    63 N    1.210    60 C    1.173
    60   6 C    3.959 --    61 C    1.649    59 C    1.173    95 H    0.975
    61   6 C    3.962 --    60 C    1.649    62 C    1.175    96 H    0.973
    62   6 C    3.920 --    64 C    1.314    63 N    1.225    61 C    1.175
    63   7 N    3.379 --    62 C    1.225    59 C    1.210    57 Fe   0.664
    64   6 C    3.922 --    65 C    1.338    62 C    1.314    88 C    1.022
    65   6 C    3.917 --    64 C    1.338    68 N    1.198    66 C    1.179
    66   6 C    3.957 --    67 C    1.639    65 C    1.179    97 H    0.973
    67   6 C    3.960 --    66 C    1.639    69 C    1.187    98 H    0.973
    68   7 N    3.378 --    69 C    1.248    65 C    1.198    57 Fe   0.657
    69   6 C    3.903 --    70 C    1.249    68 N    1.248    67 C    1.187
    70   6 C    3.919 --    69 C    1.249    71 C    1.248   128 C    1.207
    71   6 C    3.903 --    87 N    1.248    70 C    1.248    72 C    1.188
    72   6 C    3.960 --    73 C    1.639    71 C    1.188    99 H    0.973
    73   6 C    3.957 --    72 C    1.639    74 C    1.179   100 H    0.973
    74   6 C    3.918 --    75 C    1.337    87 N    1.198    73 C    1.179
    75   6 C    3.922 --    74 C    1.337    82 C    1.312    76 C    1.025
    76   6 C    3.988 --    81 C    1.396    77 C    1.395    75 C    1.025
                            79 C    0.108
    77   6 C    3.988 --    78 C    1.447    76 C    1.395   101 H    0.973
                            80 C    0.110
    78   6 C    3.995 --    77 C    1.447    79 C    1.438   102 H    0.973
                            81 C    0.110
    79   6 C    3.990 --    80 C    1.438    78 C    1.438   103 H    0.974
                            76 C    0.108
    80   6 C    3.995 --    81 C    1.447    79 C    1.438   104 H    0.973
                            77 C    0.110
    81   6 C    3.988 --    80 C    1.447    76 C    1.396   105 H    0.973
                            78 C    0.110
    82   6 C    3.920 --    75 C    1.312    86 N    1.226    83 C    1.176
    83   6 C    3.962 --    84 C    1.649    82 C    1.176   106 H    0.973
    84   6 C    3.958 --    83 C    1.649    85 C    1.173   107 H    0.975
    85   6 C    3.925 --    58 C    1.363    86 N    1.209    84 C    1.173
    86   7 N    3.379 --    82 C    1.226    85 C    1.209    57 Fe   0.664
    87   7 N    3.378 --    71 C    1.248    74 C    1.198    57 Fe   0.657
    88   6 C    3.988 --    89 C    1.397    93 C    1.397    64 C    1.022
                            91 C    0.109
    89   6 C    3.988 --    90 C    1.446    88 C    1.397   108 H    0.973
                            92 C    0.110
    90   6 C    3.995 --    89 C    1.446    91 C    1.438   109 H    0.973
                            93 C    0.110
    91   6 C    3.991 --    92 C    1.438    90 C    1.438   110 H    0.974
                            88 C    0.109
    92   6 C    3.995 --    93 C    1.446    91 C    1.438   111 H    0.973
                            89 C    0.110
    93   6 C    3.988 --    92 C    1.446    88 C    1.397   112 H    0.973
                            90 C    0.110
    94   1 H    1.001 --    58 C    0.970
    95   1 H    0.998 --    60 C    0.975
    96   1 H    1.005 --    61 C    0.973
    97   1 H    1.005 --    66 C    0.973
    98   1 H    1.002 --    67 C    0.973
    99   1 H    1.002 --    72 C    0.973
   100   1 H    1.005 --    73 C    0.973
   101   1 H    1.004 --    77 C    0.973
   102   1 H    1.002 --    78 C    0.973
   103   1 H    1.003 --    79 C    0.974
   104   1 H    1.003 --    80 C    0.973
   105   1 H    1.004 --    81 C    0.973
   106   1 H    1.005 --    83 C    0.973
   107   1 H    0.998 --    84 C    0.975
   108   1 H    1.004 --    89 C    0.973
   109   1 H    1.002 --    90 C    0.973
   110   1 H    1.003 --    91 C    0.974
   111   1 H    1.003 --    92 C    0.973
   112   1 H    1.004 --    93 C    0.973
   113   6 C    3.862 --   114 C    2.408    14 C    1.207   116 C    0.182
   114   6 C    3.924 --   113 C    2.408   115 C    1.366
   115   6 C    3.879 --   116 C    2.301   114 C    1.366   118 C    0.177
   116   6 C    3.914 --   115 C    2.301   117 C    1.393   113 C    0.182
   117   6 C    3.912 --   118 C    2.300   116 C    1.393   120 C    0.182
   118   6 C    3.880 --   117 C    2.300   119 C    1.368   115 C    0.177
   119   6 C    3.919 --   120 C    2.403   118 C    1.368
   120   6 C    3.864 --   119 C    2.403   130 C    1.213   117 C    0.182
   121   6 C    3.864 --   122 C    2.403   142 C    1.213   124 C    0.182
   122   6 C    3.919 --   121 C    2.403   123 C    1.368
   123   6 C    3.880 --   124 C    2.300   122 C    1.368   126 C    0.177
   124   6 C    3.912 --   123 C    2.300   125 C    1.393   121 C    0.182
   125   6 C    3.914 --   126 C    2.301   124 C    1.393   128 C    0.182
   126   6 C    3.879 --   125 C    2.301   127 C    1.366   123 C    0.177
   127   6 C    3.924 --   128 C    2.408   126 C    1.366
   128   6 C    3.862 --   127 C    2.408    70 C    1.207   125 C    0.182
   129  26 Fe   3.050 --   159 N    0.647   135 N    0.647   158 N    0.647
                           140 N    0.647
   130   6 C    3.904 --   157 C    1.244   131 C    1.244   120 C    1.213
   131   6 C    3.904 --   135 N    1.249   130 C    1.244   132 C    1.191
   132   6 C    3.959 --   133 C    1.634   131 C    1.191   166 H    0.973
   133   6 C    3.958 --   132 C    1.634   134 C    1.183   167 H    0.973
   134   6 C    3.915 --   136 C    1.324   135 N    1.204   133 C    1.183
   135   7 N    3.367 --   131 C    1.249   134 C    1.204   129 Fe   0.647
   136   6 C    3.914 --   137 C    1.324   134 C    1.324   160 C    1.025
   137   6 C    3.915 --   136 C    1.324   140 N    1.204   138 C    1.183
   138   6 C    3.958 --   139 C    1.634   137 C    1.183   168 H    0.973
   139   6 C    3.959 --   138 C    1.634   141 C    1.191   169 H    0.973
   140   7 N    3.367 --   141 C    1.249   137 C    1.204   129 Fe   0.647
   141   6 C    3.904 --   140 N    1.249   142 C    1.244   139 C    1.191
   142   6 C    3.904 --   141 C    1.244   143 C    1.244   121 C    1.213
   143   6 C    3.904 --   159 N    1.249   142 C    1.244   144 C    1.191
   144   6 C    3.959 --   145 C    1.634   143 C    1.191   170 H    0.973
   145   6 C    3.958 --   144 C    1.634   146 C    1.183   171 H    0.973
   146   6 C    3.915 --   147 C    1.323   159 N    1.204   145 C    1.183
   147   6 C    3.914 --   154 C    1.323   146 C    1.323   148 C    1.026
   148   6 C    3.988 --   149 C    1.395   153 C    1.395   147 C    1.026
                           151 C    0.108
   149   6 C    3.987 --   150 C    1.447   148 C    1.395   172 H    0.973
                           152 C    0.110
   150   6 C    3.995 --   149 C    1.447   151 C    1.438   173 H    0.973
                           153 C    0.110
   151   6 C    3.990 --   150 C    1.438   152 C    1.438   174 H    0.974
                           148 C    0.108
   152   6 C    3.995 --   153 C    1.447   151 C    1.438   175 H    0.973
                           149 C    0.110
   153   6 C    3.987 --   152 C    1.447   148 C    1.395   176 H    0.973
                           150 C    0.110
   154   6 C    3.915 --   147 C    1.323   158 N    1.204   155 C    1.183
   155   6 C    3.958 --   156 C    1.634   154 C    1.183   177 H    0.973
   156   6 C    3.959 --   155 C    1.634   157 C    1.191   178 H    0.973
   157   6 C    3.904 --   158 N    1.249   130 C    1.244   156 C    1.191
   158   7 N    3.367 --   157 C    1.249   154 C    1.204   129 Fe   0.647
   159   7 N    3.367 --   143 C    1.249   146 C    1.204   129 Fe   0.647
   160   6 C    3.988 --   165 C    1.395   161 C    1.395   136 C    1.025
                           163 C    0.108
   161   6 C    3.988 --   162 C    1.447   160 C    1.395   179 H    0.973
                           164 C    0.110
   162   6 C    3.995 --   161 C    1.447   163 C    1.438   180 H    0.973
                           165 C    0.110
   163   6 C    3.990 --   164 C    1.438   162 C    1.438   181 H    0.974
                           160 C    0.108
   164   6 C    3.995 --   165 C    1.447   163 C    1.438   182 H    0.973
                           161 C    0.110
   165   6 C    3.988 --   164 C    1.447   160 C    1.395   183 H    0.973
                           162 C    0.110
   166   1 H    1.001 --   132 C    0.973
   167   1 H    1.004 --   133 C    0.973
   168   1 H    1.004 --   138 C    0.973
   169   1 H    1.001 --   139 C    0.973
   170   1 H    1.001 --   144 C    0.973
   171   1 H    1.004 --   145 C    0.973
   172   1 H    1.004 --   149 C    0.973
   173   1 H    1.002 --   150 C    0.973
   174   1 H    1.003 --   151 C    0.974
   175   1 H    1.002 --   152 C    0.973
   176   1 H    1.004 --   153 C    0.973
   177   1 H    1.004 --   155 C    0.973
   178   1 H    1.001 --   156 C    0.973
   179   1 H    1.004 --   161 C    0.973
   180   1 H    1.002 --   162 C    0.973
   181   1 H    1.003 --   163 C    0.974
   182   1 H    1.002 --   164 C    0.973
   183   1 H    1.004 --   165 C    0.973
 ---------------------------------------------------------------------------

           -------------------------------------------------
          | TOTAL ENERGY             -313.821213316629 Eh   |
          | GRADIENT NORM               0.000373948274 Eh/α |
          | HOMO-LUMO GAP               0.052495197365 eV   |
           -------------------------------------------------

 * finished run on 2022/07/29 at 20:46:55.168
