   * xtb version 6.5.1 (b24c23e) compiled by 'conda@728c89f4b128' on 2022-07-12
          program call               : xtb Fe_H_C8_2.xyz --gfn 1 --opt -T 48

   ID    Z sym.   atoms
    1   26 Fe     1, 37
    2    6 C      2-6, 8-11, 13-18, 20-24, 38-42, 44-47, 49-54, 56-60, 73-80
    3    7 N      7, 12, 19, 25, 43, 48, 55, 61
    4    1 H      26-36, 62-72
########################################################################
[WARNING] Please study the warnings concerning your input carefully
-1- prog_main_parseArguments: Unknown option '-T' provided
########################################################################

          :  Hamiltonian                  GFN1-xTB          :
 * total energy  :  -143.9736994 Eh     change        0.2346496E-09 Eh
 * total energy  :  -144.4855768 Eh     change       -0.5118774E+00 Eh
 * total energy  :  -144.5811535 Eh     change       -0.9557666E-01 Eh
 * total energy  :  -144.6204066 Eh     change       -0.3925311E-01 Eh
 * total energy  :  -144.6334289 Eh     change       -0.1302235E-01 Eh
 * total energy  :  -144.6409577 Eh     change       -0.7528817E-02 Eh
 * total energy  :  -144.6457269 Eh     change       -0.4769156E-02 Eh
 * total energy  :  -144.6491482 Eh     change       -0.3421348E-02 Eh
 * total energy  :  -144.6511233 Eh     change       -0.1975045E-02 Eh
 * total energy  :  -144.6529697 Eh     change       -0.1846378E-02 Eh
 * total energy  :  -144.6558014 Eh     change       -0.2528258E-03 Eh
 * total energy  :  -144.6559701 Eh     change       -0.1687059E-03 Eh
 * total energy  :  -144.6560629 Eh     change       -0.9271130E-04 Eh
 * total energy  :  -144.6560989 Eh     change       -0.3599794E-04 Eh
 * total energy  :  -144.6561147 Eh     change       -0.1588987E-04 Eh
 * total energy  :  -144.6561238 Eh     change       -0.9096679E-05 Eh
 * total energy  :  -144.6561345 Eh     change       -0.1067746E-04 Eh
 * total energy  :  -144.6561416 Eh     change       -0.7032518E-05 Eh
 * total energy  :  -144.6561441 Eh     change       -0.2539175E-05 Eh
   *** GEOMETRY OPTIMIZATION CONVERGED AFTER 22 ITERATIONS ***

 final structure:
================
80
 xtb: 6.5.1 (b24c23e)
Fe           5.24223083688483       -0.03096828284665        0.01624772831269
C            1.82985343445185       -0.05685043120756       -0.05112031250259
C            2.50094497748401       -0.90184292788119       -0.91104816757143
C            1.84733369276398       -1.80236132787456       -1.81534603507339
C            2.82427300123718       -2.46213719480784       -2.48069923561397
C            4.07183320136898       -1.96327705046019       -1.98080435588842
N            3.86164052346399       -1.00450912402585       -1.02728040246513
C            5.30441386069569       -2.40678023116817       -2.41702111646985
C            6.51102993367096       -1.94303496568473       -1.93908040517918
C            7.78068799166485       -2.42441449898051       -2.39346413921822
C            8.72417047734508       -1.74478260558439       -1.69885173969215
N            6.67822447713491       -0.97289204785011       -0.98035040325118
C            8.02686271049358       -0.84937359352047       -0.82632908665365
C            8.67533106761685        0.03790522856201        0.04094413459015
C            7.98115209602234        0.91316906257942        0.88402550856388
C            8.63022020884946        1.82360156242764        1.77774011154105
C            7.65001115591469        2.48872970334079        2.43478121433117
C            6.40640585281129        1.97983849045786        1.93981285043257
N            6.62582197612288        1.01926335710330        0.98216167982403
C            5.17446025871149        2.40944195092036        2.38427430716041
C            3.96704099312070        1.92507786476049        1.92184252438088
C            2.69323107672025        2.37818879586609        2.39869893721461
C            1.75305414594754        1.68528394755489        1.71432298267799
C            2.45511741262907        0.81059814707559        0.82109785723699
N            3.80873254323851        0.96948423895353        0.95492272113444
H            0.74595288941657       -0.07635545101318       -0.06043373322171
H            0.77755064792324       -1.90145886436323       -1.91059912618452
H            2.73150104673645       -3.22102168927976       -3.24152325955921
H            5.32486553889109       -3.17420408566971       -3.18268934187142
H            7.91212293604786       -3.18606721609703       -3.14550918686057
H            9.79746618942701       -1.82724068311587       -1.75976119470521
H            9.69910575983479        1.92534604277327        1.87668592995955
H            7.74039638339209        3.25325488118512        3.19000199593579
H            5.15204680527445        3.17682132896152        3.14997608227311
H            2.55924215971867        3.13027562138997        3.16012672841637
H            0.67881821896134        1.74409850975189        1.79118224699482
Fe          23.84427417648462        0.00769609446624        0.03213380749801
C           27.25661188070343        0.07571855837556       -0.00445762223979
C           26.58424879284853        1.27878977078220       -0.07051890681566
C           27.23643945853620        2.55418428172150       -0.13303435233653
C           26.25846239276834        3.48901684044625       -0.17850164314121
C           25.01169233177223        2.78226654824816       -0.14366452342052
N           25.22336504909741        1.43158476521054       -0.08516979191489
C           23.77837599620211        3.40248484348386       -0.16677108748545
C           22.57255191622586        2.73638216801470       -0.12635886823318
C           21.30211611905203        3.39670900525256       -0.13906866029547
C           20.35975320065921        2.42537344444949       -0.08440846488086
N           22.40691975600363        1.37330795564016       -0.07122412325116
C           21.05850819962976        1.17670764688592       -0.04178600070228
C           20.41119134221264       -0.06394994807929        0.00175418131937
C           21.10654511624775       -1.27797128077714        0.03778660676129
C           20.45898090160664       -2.55356881829797        0.08699822417163
C           21.44029776418087       -3.48646245393237        0.12748516571481
C           22.68306824999370       -2.77544424739797        0.10394104092760
N           22.46204957953546       -1.42085500174387        0.04029681501416
C           23.91574621294317       -3.39081669222143        0.14460761595689
C           25.12241335397830       -2.72003797042180        0.12701323679163
C           26.39695381481074       -3.37473247371818        0.17405878562875
C           27.33609783970732       -2.40076806916611        0.13126490250546
C           26.63267016091011       -1.15348325665427        0.05862236299542
N           25.27927042323653       -1.36242580174694        0.05294119284128
H           28.34050287469183        0.09746222336116        0.00012479824737
H           28.30606862766734        2.69273474067706       -0.13830511613394
H           26.35007586098943        4.56250519398521       -0.22945239613595
H           23.75665926769553        4.48542450987815       -0.21558305142765
H           21.16953249767703        4.46606734910584       -0.18214126792882
H           19.28630976949552        2.52596737615891       -0.07490981773001
H           19.39029069135455       -2.69687596274541        0.09096731481820
H           21.35124601670769       -4.56026333284203        0.17274356110329
H           23.93939843041466       -4.47362694578586        0.19595146682482
H           26.53209516886547       -4.44322943990573        0.23247663080570
H           28.41044803456748       -2.49493991648770        0.14706305732837
C           10.07730566530496        0.04450119293525        0.06341004353259
C           11.30288767986332        0.02857574916909        0.06876841211704
C           12.64368908560469        0.01068937623020        0.06716583422674
C           13.87528473366572       -0.01937157939530        0.05737456809286
C           15.21107056025670       -0.04621985199257        0.04842392619790
C           16.44277206812292       -0.07248335960702        0.03719646647401
C           17.78353746632620       -0.08437633113032        0.02097733513439
C           19.00923298938122       -0.08489536266559        0.01267604204373

          :  Hamiltonian                  GFN1-xTB          :
         :: total energy            -144.656144094932 Eh    ::
         :: gradient norm              0.000717826192 Eh/a0 ::
         :: HOMO-LUMO gap              0.107106790620 eV    ::
         :: SCC energy              -147.094673386353 Eh    ::
         :: repulsion energy           2.505312013313 Eh    ::

    * Orbital Energies and Occupations

         #    Occupation            Energy/Eh            Energy/eV
      -------------------------------------------------------------
         1        2.0000           -0.7715173             -20.9941
       ...           ...                  ...                  ...
       123        2.0000           -0.4298688             -11.6973
       124        2.0000           -0.4223103             -11.4916
       125        2.0000           -0.4158569             -11.3160
       126        2.0000           -0.3991145             -10.8605
       127        2.0000           -0.3991115             -10.8604
       128        1.9998           -0.3976098             -10.8195
       129        1.9911           -0.3939411             -10.7197
       130        1.9911           -0.3939362             -10.7195
       131        1.9322           -0.3919809             -10.6663
       132        1.9321           -0.3919796             -10.6663
       133        1.9176           -0.3917889             -10.6611
       134        1.9162           -0.3917717             -10.6606
       135        1.8196           -0.3909948             -10.6395 (HOMO)
       136        0.2761           -0.3870587             -10.5324 (LUMO)
       137        0.2243           -0.3868332             -10.5263
       138                         -0.3411162              -9.2822
       139                         -0.3334411              -9.0734
       140                         -0.3296809              -8.9711
       141                         -0.3296787              -8.9710
       142                         -0.3064693              -8.3395
       143                         -0.3061732              -8.3314
       144                         -0.3060700              -8.3286
       145                         -0.3047248              -8.2920
       146                         -0.2915730              -7.9341
       ...                                ...                  ...
       286                          1.5971677              43.4611
      -------------------------------------------------------------
                  HL-Gap            0.0039361 Eh            0.1071 eV

Wiberg/Mayer (AO) data.
largest (>0.10) Wiberg bond orders for each atom

     #   Z sym  total        # sym  WBO       # sym  WBO       # sym  WBO
 ---------------------------------------------------------------------------
     1  26 Fe   3.179 --    25 N    0.678     7 N    0.677    12 N    0.671
                            19 N    0.670
     2   6 C    3.933 --     3 C    1.364    24 C    1.364    26 H    0.971
     3   6 C    3.924 --     2 C    1.364     7 N    1.213     4 C    1.169
     4   6 C    3.958 --     5 C    1.655     3 C    1.169    27 H    0.975
     5   6 C    3.960 --     4 C    1.655     6 C    1.170    28 H    0.975
     6   6 C    3.920 --     8 C    1.357     7 N    1.217     5 C    1.170
     7   7 N    3.390 --     6 C    1.217     3 C    1.213     1 Fe   0.677
     8   6 C    3.938 --     9 C    1.375     6 C    1.357    29 H    0.970
     9   6 C    3.916 --     8 C    1.375    12 N    1.194    10 C    1.174
    10   6 C    3.956 --    11 C    1.644     9 C    1.174    30 H    0.975
    11   6 C    3.959 --    10 C    1.644    13 C    1.183    31 H    0.973
    12   7 N    3.390 --    13 C    1.247     9 C    1.194     1 Fe   0.671
    13   6 C    3.903 --    14 C    1.254    12 N    1.247    11 C    1.183
    14   6 C    3.936 --    15 C    1.256    13 C    1.254    73 C    1.198
    15   6 C    3.903 --    14 C    1.256    19 N    1.247    16 C    1.183
    16   6 C    3.959 --    17 C    1.644    15 C    1.183    32 H    0.973
    17   6 C    3.956 --    16 C    1.644    18 C    1.174    33 H    0.975
    18   6 C    3.916 --    20 C    1.374    19 N    1.195    17 C    1.174
    19   7 N    3.390 --    15 C    1.247    18 C    1.195     1 Fe   0.670
    20   6 C    3.938 --    18 C    1.374    21 C    1.357    34 H    0.970
    21   6 C    3.920 --    20 C    1.357    25 N    1.216    22 C    1.170
    22   6 C    3.960 --    23 C    1.655    21 C    1.170    35 H    0.975
    23   6 C    3.958 --    22 C    1.655    24 C    1.169    36 H    0.975
    24   6 C    3.924 --     2 C    1.364    25 N    1.213    23 C    1.169
    25   7 N    3.390 --    21 C    1.216    24 C    1.213     1 Fe   0.678
    26   1 H    1.000 --     2 C    0.971
    27   1 H    0.997 --     4 C    0.975
    28   1 H    0.997 --     5 C    0.975
    29   1 H    1.000 --     8 C    0.970
    30   1 H    0.997 --    10 C    0.975
    31   1 H    1.002 --    11 C    0.973
    32   1 H    1.001 --    16 C    0.973
    33   1 H    0.997 --    17 C    0.975
    34   1 H    1.000 --    20 C    0.970
    35   1 H    0.997 --    22 C    0.975
    36   1 H    0.997 --    23 C    0.975
    37  26 Fe   3.179 --    61 N    0.678    43 N    0.677    48 N    0.671
                            55 N    0.670
    38   6 C    3.933 --    39 C    1.364    60 C    1.364    62 H    0.971
    39   6 C    3.924 --    38 C    1.364    43 N    1.213    40 C    1.169
    40   6 C    3.958 --    41 C    1.655    39 C    1.169    63 H    0.975
    41   6 C    3.960 --    40 C    1.655    42 C    1.170    64 H    0.975
    42   6 C    3.920 --    44 C    1.357    43 N    1.217    41 C    1.170
    43   7 N    3.390 --    42 C    1.217    39 C    1.213    37 Fe   0.677
    44   6 C    3.938 --    45 C    1.375    42 C    1.357    65 H    0.970
    45   6 C    3.916 --    44 C    1.375    48 N    1.194    46 C    1.174
    46   6 C    3.956 --    47 C    1.644    45 C    1.174    66 H    0.975
    47   6 C    3.959 --    46 C    1.644    49 C    1.183    67 H    0.973
    48   7 N    3.390 --    49 C    1.247    45 C    1.194    37 Fe   0.671
    49   6 C    3.903 --    50 C    1.254    48 N    1.247    47 C    1.183
    50   6 C    3.936 --    51 C    1.256    49 C    1.254    80 C    1.198
    51   6 C    3.903 --    50 C    1.256    55 N    1.247    52 C    1.183
    52   6 C    3.959 --    53 C    1.644    51 C    1.183    68 H    0.973
    53   6 C    3.956 --    52 C    1.644    54 C    1.174    69 H    0.975
    54   6 C    3.916 --    56 C    1.374    55 N    1.195    53 C    1.174
    55   7 N    3.390 --    51 C    1.247    54 C    1.195    37 Fe   0.670
    56   6 C    3.938 --    54 C    1.374    57 C    1.357    70 H    0.970
    57   6 C    3.920 --    56 C    1.357    61 N    1.216    58 C    1.170
    58   6 C    3.960 --    59 C    1.655    57 C    1.170    71 H    0.975
    59   6 C    3.958 --    58 C    1.655    60 C    1.169    72 H    0.975
    60   6 C    3.924 --    38 C    1.364    61 N    1.213    59 C    1.169
    61   7 N    3.390 --    57 C    1.216    60 C    1.213    37 Fe   0.678
    62   1 H    1.000 --    38 C    0.971
    63   1 H    0.997 --    40 C    0.975
    64   1 H    0.997 --    41 C    0.975
    65   1 H    1.000 --    44 C    0.970
    66   1 H    0.997 --    46 C    0.975
    67   1 H    1.001 --    47 C    0.973
    68   1 H    1.001 --    52 C    0.973
    69   1 H    0.997 --    53 C    0.975
    70   1 H    1.000 --    56 C    0.970
    71   1 H    0.997 --    58 C    0.975
    72   1 H    0.997 --    59 C    0.975
    73   6 C    3.868 --    74 C    2.423    14 C    1.198    76 C    0.183
    74   6 C    3.927 --    73 C    2.423    75 C    1.354
    75   6 C    3.883 --    76 C    2.318    74 C    1.354    78 C    0.179
    76   6 C    3.916 --    75 C    2.318    77 C    1.380    73 C    0.183
    77   6 C    3.916 --    78 C    2.318    76 C    1.380    80 C    0.183
    78   6 C    3.883 --    77 C    2.318    79 C    1.354    75 C    0.179
    79   6 C    3.927 --    80 C    2.423    78 C    1.354
    80   6 C    3.868 --    79 C    2.423    50 C    1.198    77 C    0.183
 ---------------------------------------------------------------------------

           -------------------------------------------------
          | TOTAL ENERGY             -144.656144094932 Eh   |
          | GRADIENT NORM               0.000717826192 Eh/α |
          | HOMO-LUMO GAP               0.107106790620 eV   |
           -------------------------------------------------

 * finished run on 2022/07/29 at 16:14:14.438
