   * xtb version 6.5.1 (b24c23e) compiled by 'conda@728c89f4b128' on 2022-07-12
          program call               : xtb p-CP_C4_2.xyz --gfn 1 --opt -T 48

   ID    Z sym.   atoms
    1    6 C      1-5, 7-10, 12-23, 26-31, 34-38, 41, 42, 64-68, 70-73,
                  75-86, 89-94, 97-101, 104, 105, 127-130
    2    7 N      6, 11, 32, 33, 69, 74, 95, 96
    3    8 O      24, 25, 39, 40, 87, 88, 102, 103
    4    1 H      43-63, 106-126
########################################################################
[WARNING] Please study the warnings concerning your input carefully
-1- prog_main_parseArguments: Unknown option '-T' provided
########################################################################

          :  Hamiltonian                  GFN1-xTB          :
 * total energy  :  -237.5878619 Eh     change       -0.1482846E-08 Eh
 * total energy  :  -237.7161521 Eh     change       -0.1282902E+00 Eh
 * total energy  :  -237.7736419 Eh     change       -0.5748985E-01 Eh
 * total energy  :  -237.7980389 Eh     change       -0.2439697E-01 Eh
 * total energy  :  -237.8142940 Eh     change       -0.1625507E-01 Eh
 * total energy  :  -237.8264718 Eh     change       -0.1217780E-01 Eh
 * total energy  :  -237.8381407 Eh     change       -0.1166896E-01 Eh
 * total energy  :  -237.8456282 Eh     change       -0.7487500E-02 Eh
 * total energy  :  -237.8533324 Eh     change       -0.7704195E-02 Eh
 * total energy  :  -237.8582137 Eh     change       -0.4881280E-02 Eh
 * total energy  :  -237.8742224 Eh     change       -0.1094097E-04 Eh
 * total energy  :  -237.8742010 Eh     change        0.2141276E-04 Eh
 * total energy  :  -237.8742318 Eh     change       -0.3086272E-04 Eh
 * total energy  :  -237.8742373 Eh     change       -0.5450077E-05 Eh
 * total energy  :  -237.8742446 Eh     change       -0.7348530E-05 Eh
 * total energy  :  -237.8742505 Eh     change       -0.5847087E-05 Eh
 * total energy  :  -237.8742581 Eh     change       -0.7613801E-05 Eh
 * total energy  :  -237.8742662 Eh     change       -0.8083949E-05 Eh
 * total energy  :  -237.8742693 Eh     change       -0.3129847E-05 Eh
   *** GEOMETRY OPTIMIZATION CONVERGED AFTER 52 ITERATIONS ***

 final structure:
================
130
 xtb: 6.5.1 (b24c23e)
C           14.45972977097229       -0.14606597872767        0.06801916430315
C           15.06978264785089       -1.37998749028558       -0.11676636479062
C           14.41966927623329       -2.63624824217517       -0.27453403598356
C           15.38249428055222       -3.58954785762696       -0.45090852495266
C           16.65205669113586       -2.94481480964465       -0.41426532694656
N           16.41286533360110       -1.61727263877062       -0.20047587671857
C           17.91543544179526       -3.53309743710013       -0.54236269273204
C           19.13222820995106       -2.85289411090104       -0.44858068510866
C           20.42846940650116       -3.47907189368180       -0.63824135849404
C           21.34989153074466       -2.50802490142946       -0.47101260213384
N           19.28754129809886       -1.52480685272683       -0.19344189593493
C           20.61518578293333       -1.28925878828716       -0.19207293373530
C           21.25269883830869       -0.05436468038765        0.04343100020462
C           20.61639261970699        1.18145957302755        0.26645570321191
C           21.25971221045269        2.42364716547046        0.51031210504158
C           20.29212040752750        3.38008571795114        0.64731258151969
C           19.02698933805202        2.75036066237246        0.48453617595918
C           17.76427795618438        3.34897717468501        0.55862046493531
C           17.73531409278449        4.81706614401563        0.75678134528777
C           18.32106804904829        5.66617652001748       -0.18649295670122
C           18.29031477691951        7.03661068562111       -0.00732713591148
C           17.67908251729663        7.58485368009180        1.12193978376269
C           17.67451129352825        9.05970577805532        1.27048175195208
O           17.06798420527030        9.48530761168715        2.38895055080835
O           18.16185980167366        9.82463821570394        0.47729601090901
C           17.09627022060964        6.74177758022559        2.06874270939505
C           17.12301326026121        5.37047445541294        1.88432852497705
C           16.54656191436829        2.66848976118853        0.45298017577973
C           15.24211793111669        3.31203689220230        0.48851817592470
C           14.32803408262326        2.32979302102366        0.35879704644171
C           15.07270589986940        1.08957015675774        0.22836698272089
N           16.40528706643947        1.33283812054320        0.28232162790115
N           19.27461505929554        1.42106690698467        0.26725917679203
C           17.94570377413681       -4.99199502547731       -0.80379946920058
C           17.35861474421694       -5.51296561614203       -1.95978885780997
C           17.39011231914558       -6.87294012664609       -2.21383855868245
C           18.00576639882038       -7.73736375032213       -1.30812141124385
C           18.06580058278044       -9.20119851958801       -1.53394087300287
O           17.48266742640958       -9.59233886622976       -2.67732541868500
O           18.58222609132810       -9.98559969522830       -0.77926880878202
C           18.58902444523993       -7.22189766007063       -0.14896415567052
C           18.56167155484562       -5.86209076757821        0.09973660957534
H           13.37450883142757       -0.15707393239533        0.07821064102334
H           13.35116871809703       -2.77919216594678       -0.24998333766379
H           15.23301817319641       -4.64852495718376       -0.58575781046753
H           17.13670639701676       -0.91158294761475       -0.11533585449611
H           20.59019627582710       -4.51702242701435       -0.87980254672319
H           22.42373937743836       -2.58126064099864       -0.53497069754893
H           22.32742325322247        2.55792360902672        0.57467305506443
H           20.43846901668027        4.42764867399624        0.85401990845735
H           18.78398184905733        5.24365192028095       -1.07112869036172
H           18.73687452069404        7.70081351600520       -0.73912283208142
H           17.10899869227381       10.45518288394335        2.41045339660196
H           16.62463739416426        7.16282240643041        2.94877669844963
H           16.68194783780257        4.71544013002736        2.62711474029859
H           15.07377865929269        4.37236274341527        0.58674097066850
H           13.25227167156217        2.40674846896721        0.33801586382038
H           18.55355555285229        0.72045523572453        0.13005319669002
H           16.89254838315842       -4.84028065134781       -2.67105515127471
H           16.93945309977571       -7.26787153937319       -3.11666229774726
H           17.56704451869280      -10.55682117149996       -2.75100817839740
H           19.06130703717263       -7.90321638063552        0.55021911647660
H           19.00494391240019       -5.46518472181620        1.00587506013672
C           34.65062298872873        0.10091547678612        0.12531844780066
C           34.04065463759518        1.28630523370145        0.51476612317202
C           34.69092129485546        2.47933626156050        0.93847950101715
C           33.72824445568865        3.41051396011650        1.20883437598490
C           32.45862670169747        2.81845520848063        0.95127522474003
N           32.69762346059741        1.53623807241973        0.54618735204181
C           31.19530803608881        3.40211070767885        1.09979802080004
C           29.97854587786084        2.75227102839652        0.87764053573840
C           28.68229974587088        3.39728751136563        0.98731603870653
C           27.76096598146480        2.45419207631259        0.70159177437753
N           29.82333984789149        1.45054532604055        0.51101424238052
C           28.49572590576815        1.23942392956193        0.40593169613949
C           27.85831335618072        0.02967068797406        0.06383795140063
C           28.49457706831309       -1.17532698296279       -0.28978920784947
C           27.85110687853501       -2.39543464739898       -0.62685461116002
C           28.81851377961217       -3.31191142355584       -0.93340581002498
C           30.08368291518999       -2.67567935558763       -0.79866714084560
C           31.34632393338030       -3.24366613959481       -1.00236217080557
C           31.37516829626389       -4.64482536804096       -1.48312070234116
C           30.78566761645985       -4.98198993139963       -2.70489755903845
C           30.81606355417282       -6.28745137136250       -3.15872973404628
C           31.43092766848371       -7.28291214749692       -2.39687239078509
C           31.43501692386603       -8.66802913496977       -2.92477650871941
O           32.04667314968513       -9.54869134659874       -2.11836681565380
O           30.94315139384765       -8.99731113289367       -3.97426113390165
C           32.01761934311568       -6.95274129691986       -1.17471891338543
C           31.99100012496456       -5.64419142099771       -0.72508834744175
C           32.56401947893691       -2.58744083672672       -0.79323621515706
C           33.86847529638678       -3.17776836474700       -1.05189158178374
C           34.78245690998712       -2.24147680693346       -0.72756984138416
C           34.03770332945598       -1.07513210705887       -0.28635808147869
N           32.70516560892787       -1.31726533734231       -0.34628322169109
N           29.83627579129393       -1.38979906163631       -0.39760707269659
C           31.16504094673536        4.82326041096335        1.52037258834585
C           31.75515002222662        5.80694547897291        0.72250383089016
C           31.72362502333915        7.13642654382349        1.10529917168845
C           31.10474808695819        7.50334233681179        2.30068867226570
C           31.04444929263130        8.91303261460635        2.75517144277306
O           31.63139148211118        9.77487807951897        1.91071485422605
O           30.52454835613581        9.27617075153540        3.77959287785198
C           30.51839406854953        6.52320183404412        3.10384524505194
C           30.54595686047328        5.19624738398223        2.71642209949225
H           35.73585050874920        0.10624923271541        0.13909254918286
H           35.75941751101121        2.59571152467395        1.02508444608113
H           33.87792418436263        4.41707904428526        1.56432795785953
H           31.97364656445538        0.86774970185020        0.30500110169782
H           28.52047041395749        4.43363956863930        1.23556895883257
H           26.68714785987250        2.54843842021817        0.67641329164543
H           26.78342659609300       -2.54453788102327       -0.62815738300363
H           28.67195844037601       -4.34127131510633       -1.21705781955589
H           30.32010378038447       -4.20837267653488       -3.30503310305172
H           30.36647079874384       -6.55386562137180       -4.10898767253969
H           32.00498382054899      -10.42549852757341       -2.53342342927787
H           32.49207157777601       -7.72295270618173       -0.57818971126093
H           32.43489825020524       -5.39099426213935        0.23104155802868
H           34.03693021405319       -4.16911129197278       -1.44065257003380
H           35.85819302750902       -2.30040450803095       -0.78179072222063
H           30.55748014184956       -0.70182005819890       -0.20744560472236
H           32.22361123826329        5.52439668628320       -0.21362114262853
H           32.17678162878548        7.89394673661281        0.47683574605753
H           31.54648519511404       10.67004840979380        2.27710381632504
H           30.04352316921966        6.81895515295854        4.03289262350955
H           30.10035991106892        4.43547269442911        3.34711844904761
C           23.88081635093663       -0.02157035551391        0.05710726188982
C           22.65875894968346       -0.03882741004384        0.04935193483343
C           25.23018129068364       -0.00581715942663        0.06138639137650
C           26.45224736546560        0.01311773377747        0.06193809014467

          :  Hamiltonian                  GFN1-xTB          :
         :: total energy            -237.874269288639 Eh    ::
         :: gradient norm              0.000315718607 Eh/a0 ::
         :: HOMO-LUMO gap              1.014990264732 eV    ::
         :: SCC energy              -241.407766595572 Eh    ::
         :: repulsion energy           3.641883517969 Eh    ::

    * Orbital Energies and Occupations

         #    Occupation            Energy/Eh            Energy/eV
      -------------------------------------------------------------
         1        2.0000           -0.8322672             -22.6471
       ...           ...                  ...                  ...
       197        2.0000           -0.4323252             -11.7642
       198        2.0000           -0.4302841             -11.7086
       199        2.0000           -0.4291026             -11.6765
       200        2.0000           -0.4282427             -11.6531
       201        2.0000           -0.4260346             -11.5930
       202        2.0000           -0.4251330             -11.5685
       203        2.0000           -0.4249749             -11.5642
       204        2.0000           -0.4234856             -11.5236
       205        2.0000           -0.4234650             -11.5231
       206        2.0000           -0.4074259             -11.0866
       207        2.0000           -0.4070899             -11.0775
       208        2.0000           -0.3978842             -10.8270
       209        2.0000           -0.3868574             -10.5269 (HOMO)
       210                         -0.3495572              -9.5119 (LUMO)
       211                         -0.3414619              -9.2917
       212                         -0.3410735              -9.2811
       213                         -0.3357682              -9.1367
       214                         -0.3158377              -8.5944
       215                         -0.3136678              -8.5353
       216                         -0.3084183              -8.3925
       217                         -0.3083796              -8.3914
       218                         -0.3012051              -8.1962
       219                         -0.2953237              -8.0362
       220                         -0.2782885              -7.5726
       ...                                ...                  ...
       436                          1.5088416              41.0577
      -------------------------------------------------------------
                  HL-Gap            0.0373002 Eh            1.0150 eV

Wiberg/Mayer (AO) data.
largest (>0.10) Wiberg bond orders for each atom

     #   Z sym  total        # sym  WBO       # sym  WBO       # sym  WBO
 ---------------------------------------------------------------------------
     1   6 C    3.926 --    31 C    1.366     2 C    1.347    43 H    0.971
     2   6 C    3.901 --     1 C    1.347     3 C    1.229     6 N    1.169
     3   6 C    3.953 --     4 C    1.596     2 C    1.229    44 H    0.976
     4   6 C    3.959 --     3 C    1.596     5 C    1.233    45 H    0.974
     5   6 C    3.896 --     7 C    1.302     4 C    1.233     6 N    1.178
     6   7 N    3.470 --     5 C    1.178     2 C    1.169    46 H    0.873
     7   6 C    3.938 --     8 C    1.334     5 C    1.302    34 C    1.032
     8   6 C    3.914 --     7 C    1.334    11 N    1.287     9 C    1.125
     9   6 C    3.965 --    10 C    1.710     8 C    1.125    47 H    0.973
    10   6 C    3.964 --     9 C    1.710    12 C    1.128    48 H    0.974
    11   7 N    3.021 --    12 C    1.344     8 C    1.287
    12   6 C    3.908 --    11 N    1.344    13 C    1.255    10 C    1.128
    13   6 C    3.937 --    12 C    1.255    14 C    1.252   128 C    1.189
    14   6 C    3.885 --    13 C    1.252    15 C    1.249    33 N    1.189
    15   6 C    3.959 --    16 C    1.583    14 C    1.249    49 H    0.975
    16   6 C    3.954 --    15 C    1.583    17 C    1.240    50 H    0.974
    17   6 C    3.898 --    18 C    1.307    16 C    1.240    33 N    1.167
    18   6 C    3.924 --    28 C    1.320    17 C    1.307    19 C    1.034
    19   6 C    3.986 --    27 C    1.385    20 C    1.383    18 C    1.034
    20   6 C    3.986 --    21 C    1.465    19 C    1.383    51 H    0.972
                            26 C    0.102
    21   6 C    3.990 --    20 C    1.465    22 C    1.384    52 H    0.968
                            27 C    0.102
    22   6 C    3.981 --    26 C    1.388    21 C    1.384    23 C    1.010
    23   6 C    3.835 --    25 O    1.689    24 O    1.088    22 C    1.010
    24   8 O    2.096 --    23 C    1.088    53 H    0.838    25 O    0.128
    25   8 O    1.957 --    23 C    1.689    24 O    0.128
    26   6 C    3.991 --    27 C    1.462    22 C    1.388    54 H    0.970
                            20 C    0.102
    27   6 C    3.987 --    26 C    1.462    19 C    1.385    55 H    0.972
                            21 C    0.102
    28   6 C    3.929 --    18 C    1.320    32 N    1.318    29 C    1.117
    29   6 C    3.967 --    30 C    1.724    28 C    1.117    56 H    0.973
    30   6 C    3.966 --    29 C    1.724    31 C    1.116    57 H    0.976
    31   6 C    3.928 --     1 C    1.366    32 N    1.300    30 C    1.116
    32   7 N    3.011 --    28 C    1.318    31 C    1.300
    33   7 N    3.474 --    14 C    1.189    17 C    1.167    58 H    0.873
    34   6 C    3.986 --    35 C    1.386    42 C    1.384     7 C    1.032
    35   6 C    3.987 --    36 C    1.462    34 C    1.386    59 H    0.972
                            41 C    0.102
    36   6 C    3.991 --    35 C    1.462    37 C    1.388    60 H    0.970
                            42 C    0.102
    37   6 C    3.982 --    36 C    1.388    41 C    1.385    38 C    1.010
    38   6 C    3.836 --    40 O    1.690    39 O    1.088    37 C    1.010
    39   8 O    2.096 --    38 C    1.088    61 H    0.838    40 O    0.128
    40   8 O    1.958 --    38 C    1.690    39 O    0.128
    41   6 C    3.990 --    42 C    1.464    37 C    1.385    62 H    0.968
                            35 C    0.102
    42   6 C    3.987 --    41 C    1.464    34 C    1.384    63 H    0.972
                            36 C    0.102
    43   1 H    1.002 --     1 C    0.971
    44   1 H    0.997 --     3 C    0.976
    45   1 H    1.004 --     4 C    0.974
    46   1 H    0.986 --     6 N    0.873
    47   1 H    1.004 --     9 C    0.973
    48   1 H    1.003 --    10 C    0.974
    49   1 H    1.002 --    15 C    0.975
    50   1 H    1.004 --    16 C    0.974
    51   1 H    1.004 --    20 C    0.972
    52   1 H    1.005 --    21 C    0.968
    53   1 H    0.873 --    24 O    0.838
    54   1 H    1.005 --    26 C    0.970
    55   1 H    1.004 --    27 C    0.972
    56   1 H    1.004 --    29 C    0.973
    57   1 H    0.998 --    30 C    0.976
    58   1 H    0.987 --    33 N    0.873
    59   1 H    1.004 --    35 C    0.972
    60   1 H    1.005 --    36 C    0.970
    61   1 H    0.873 --    39 O    0.838
    62   1 H    1.005 --    41 C    0.968
    63   1 H    1.004 --    42 C    0.972
    64   6 C    3.926 --    94 C    1.366    65 C    1.347   106 H    0.971
    65   6 C    3.901 --    64 C    1.347    66 C    1.229    69 N    1.169
    66   6 C    3.953 --    67 C    1.596    65 C    1.229   107 H    0.976
    67   6 C    3.959 --    66 C    1.596    68 C    1.234   108 H    0.974
    68   6 C    3.896 --    70 C    1.302    67 C    1.234    69 N    1.178
    69   7 N    3.470 --    68 C    1.178    65 C    1.169   109 H    0.873
    70   6 C    3.938 --    71 C    1.333    68 C    1.302    97 C    1.032
    71   6 C    3.914 --    70 C    1.333    74 N    1.287    72 C    1.125
    72   6 C    3.965 --    73 C    1.710    71 C    1.125   110 H    0.973
    73   6 C    3.964 --    72 C    1.710    75 C    1.128   111 H    0.974
    74   7 N    3.021 --    75 C    1.343    71 C    1.287
    75   6 C    3.908 --    74 N    1.343    76 C    1.255    73 C    1.128
    76   6 C    3.937 --    75 C    1.255    77 C    1.252   130 C    1.189
    77   6 C    3.885 --    76 C    1.252    78 C    1.249    96 N    1.189
    78   6 C    3.959 --    79 C    1.583    77 C    1.249   112 H    0.975
    79   6 C    3.954 --    78 C    1.583    80 C    1.240   113 H    0.974
    80   6 C    3.898 --    81 C    1.307    79 C    1.240    96 N    1.167
    81   6 C    3.924 --    91 C    1.320    80 C    1.307    82 C    1.034
    82   6 C    3.986 --    90 C    1.385    83 C    1.383    81 C    1.034
    83   6 C    3.986 --    84 C    1.465    82 C    1.383   114 H    0.972
                            89 C    0.102
    84   6 C    3.990 --    83 C    1.465    85 C    1.384   115 H    0.968
                            90 C    0.102
    85   6 C    3.981 --    89 C    1.388    84 C    1.384    86 C    1.010
    86   6 C    3.835 --    88 O    1.689    87 O    1.088    85 C    1.010
    87   8 O    2.096 --    86 C    1.088   116 H    0.838    88 O    0.128
    88   8 O    1.957 --    86 C    1.689    87 O    0.128
    89   6 C    3.991 --    90 C    1.462    85 C    1.388   117 H    0.970
                            83 C    0.102
    90   6 C    3.987 --    89 C    1.462    82 C    1.385   118 H    0.972
                            84 C    0.102
    91   6 C    3.929 --    81 C    1.320    95 N    1.318    92 C    1.117
    92   6 C    3.967 --    93 C    1.724    91 C    1.117   119 H    0.973
    93   6 C    3.966 --    92 C    1.724    94 C    1.116   120 H    0.976
    94   6 C    3.928 --    64 C    1.366    95 N    1.300    93 C    1.116
    95   7 N    3.011 --    91 C    1.318    94 C    1.300
    96   7 N    3.474 --    77 C    1.189    80 C    1.167   121 H    0.873
    97   6 C    3.986 --    98 C    1.386   105 C    1.384    70 C    1.032
    98   6 C    3.987 --    99 C    1.462    97 C    1.386   122 H    0.972
                           104 C    0.102
    99   6 C    3.991 --    98 C    1.462   100 C    1.388   123 H    0.970
                           105 C    0.102
   100   6 C    3.982 --    99 C    1.388   104 C    1.385   101 C    1.010
   101   6 C    3.836 --   103 O    1.690   102 O    1.088   100 C    1.010
   102   8 O    2.096 --   101 C    1.088   124 H    0.838   103 O    0.128
   103   8 O    1.958 --   101 C    1.690   102 O    0.128
   104   6 C    3.990 --   105 C    1.464   100 C    1.385   125 H    0.968
                            98 C    0.102
   105   6 C    3.987 --   104 C    1.464    97 C    1.384   126 H    0.972
                            99 C    0.102
   106   1 H    1.002 --    64 C    0.971
   107   1 H    0.997 --    66 C    0.976
   108   1 H    1.004 --    67 C    0.974
   109   1 H    0.986 --    69 N    0.873
   110   1 H    1.004 --    72 C    0.973
   111   1 H    1.003 --    73 C    0.974
   112   1 H    1.002 --    78 C    0.975
   113   1 H    1.004 --    79 C    0.974
   114   1 H    1.004 --    83 C    0.972
   115   1 H    1.005 --    84 C    0.968
   116   1 H    0.873 --    87 O    0.838
   117   1 H    1.005 --    89 C    0.970
   118   1 H    1.004 --    90 C    0.972
   119   1 H    1.004 --    92 C    0.973
   120   1 H    0.998 --    93 C    0.976
   121   1 H    0.987 --    96 N    0.873
   122   1 H    1.004 --    98 C    0.972
   123   1 H    1.005 --    99 C    0.970
   124   1 H    0.873 --   102 O    0.838
   125   1 H    1.005 --   104 C    0.968
   126   1 H    1.004 --   105 C    0.972
   127   6 C    3.933 --   128 C    2.474   129 C    1.309
   128   6 C    3.925 --   127 C    2.474    13 C    1.189   130 C    0.199
   129   6 C    3.933 --   130 C    2.474   127 C    1.309
   130   6 C    3.925 --   129 C    2.474    76 C    1.189   128 C    0.199
 ---------------------------------------------------------------------------

           -------------------------------------------------
          | TOTAL ENERGY             -237.874269288639 Eh   |
          | GRADIENT NORM               0.000315718607 Eh/α |
          | HOMO-LUMO GAP               1.014990264732 eV   |
           -------------------------------------------------

 * finished run on 2022/07/30 at 06:49:52.662
