   * xtb version 6.5.1 (b24c23e) compiled by 'conda@728c89f4b128' on 2022-07-12
          program call               : xtb Ni_m-CP_C2_3.xyz --gfn 1 --opt -T 48

   ID    Z sym.   atoms
    1   28 Ni     1, 63, 129
    2    6 C      2-6, 8-12, 15-20, 22-27, 29-35, 38-42, 64-68, 70-74, 77-82,
                  84-89, 91-97, 100-104, 125-128, 130-134, 136-140, 143-148,
                  150-155, 157-163, 166-170
    3    7 N      7, 21, 28, 43, 69, 83, 90, 105, 135, 149, 156, 171
    4    8 O      13, 14, 36, 37, 75, 76, 98, 99, 141, 142, 164, 165
    5    1 H      44-62, 106-124, 172-189
########################################################################
[WARNING] Please study the warnings concerning your input carefully
-1- prog_main_parseArguments: Unknown option '-T' provided
########################################################################

          :  Hamiltonian                  GFN1-xTB          :
 * total energy  :  -360.2821294 Eh     change       -0.2189722E-08 Eh
 * total energy  :  -360.6851451 Eh     change       -0.4030157E+00 Eh
 * total energy  :  -360.8755152 Eh     change       -0.1903701E+00 Eh
 * total energy  :  -360.9979369 Eh     change       -0.1224217E+00 Eh
 * total energy  :  -361.0744213 Eh     change       -0.7648440E-01 Eh
 * total energy  :  -361.1387937 Eh     change       -0.6437247E-01 Eh
 * total energy  :  -361.1914682 Eh     change       -0.5267446E-01 Eh
 * total energy  :  -361.2269830 Eh     change       -0.3551474E-01 Eh
 * total energy  :  -361.2540929 Eh     change       -0.2710993E-01 Eh
 * total energy  :  -361.2774599 Eh     change       -0.2336705E-01 Eh
 * total energy  :  -361.4280614 Eh     change       -0.9990052E-05 Eh
 * total energy  :  -361.4280743 Eh     change       -0.1298938E-04 Eh
 * total energy  :  -361.4280891 Eh     change       -0.1476146E-04 Eh
 * total energy  :  -361.4281037 Eh     change       -0.1456077E-04 Eh
 * total energy  :  -361.4281191 Eh     change       -0.1540175E-04 Eh
 * total energy  :  -361.4281348 Eh     change       -0.1570474E-04 Eh
 * total energy  :  -361.4281487 Eh     change       -0.1396837E-04 Eh
 * total energy  :  -361.4281605 Eh     change       -0.1176271E-04 Eh
 * total energy  :  -361.4281641 Eh     change       -0.3611165E-05 Eh
   *** GEOMETRY OPTIMIZATION CONVERGED AFTER 122 ITERATIONS ***

 final structure:
================
189
 xtb: 6.5.1 (b24c23e)
Ni          34.29319347006683        0.04157647497341       -0.24538707594317
C           30.99027997986351       -0.19660503861927        0.46649889027394
C           31.52808387689533        1.06427530389207        0.30721217506357
C           30.75729554544115        2.26892798448468        0.35754861101614
C           31.62120313824574        3.29186116134954        0.15922215884515
C           32.92728128734070        2.71317176863916        0.03179049822053
N           32.85181265881185        1.34316728534177        0.07918906656543
C           34.10427832339013        3.44783230180201       -0.02756697941049
C           34.03087911457934        4.92811789473993        0.01267124245223
C           33.46675721580579        5.58410159014140        1.10293748563680
C           33.40140178667618        6.97655745142556        1.13388563427830
C           32.78517636682646        7.61670245597935        2.32347364009143
O           32.76781353347166        8.95593946000998        2.26267018094799
O           32.33598171952269        7.01290418828179        3.26373392398162
C           33.90390628249503        7.72412399083275        0.06907425005931
C           34.46974112759931        7.07320186302458       -1.01603720833167
C           34.53549307641394        5.68740584933586       -1.04582005859883
C           35.35857464403053        2.85122605811443       -0.07140175804383
C           36.58779836992905        3.57523997979460        0.04456733895387
C           37.58764013897247        2.66559695097082       -0.04720233271894
N           35.60550461698146        1.50596823844327       -0.21518429601863
C           36.96957099952130        1.39159009604314       -0.23408691261256
C           37.68390941881865        0.22939054681309       -0.53583425837999
C           37.05428159700159       -0.98471942287234       -0.82481224884671
C           37.75070084722634       -2.14058452828988       -1.29207626850718
C           36.82708708867595       -3.11991151353178       -1.44281180611696
C           35.57205867062824       -2.57068637373571       -1.02701132314355
N           35.71811681328046       -1.24379536268361       -0.68901287091833
C           34.40616372174689       -3.31311056952111       -0.89569697822037
C           34.43549492642484       -4.75957120361478       -1.22227895880495
C           35.26820953679795       -5.63272520215723       -0.51904363496281
C           35.29271849884429       -6.98620708319643       -0.82556475563294
C           34.48789360939156       -7.48407366445011       -1.83646193558549
C           33.64838890107119       -6.62198410771155       -2.54367386681212
C           32.79911100406817       -7.19517233460542       -3.61776360521941
O           32.02749543377996       -6.28809418021997       -4.23445743600826
O           32.78463330374710       -8.36010334696114       -3.92342237482942
C           33.62172885326314       -5.26353146436534       -2.23446343991610
C           33.21885938778103       -2.76703225154973       -0.42342339081156
C           32.04759705043413       -3.53732599737649       -0.12222644462924
C           31.10507338961158       -2.66633973756063        0.30825767654912
C           31.69443417058588       -1.36316413769750        0.25215133648493
N           33.00050545902505       -1.43826645335920       -0.16453514419007
H           29.94010964202591       -0.27443753218425        0.72239863252907
H           29.69032497815877        2.30587869981917        0.50906100877832
H           31.40561825216907        4.34666053821546        0.10904333372776
H           33.08665954580916        5.02056196171959        1.94797830811726
H           32.35171906343334        9.29598376225861        3.07149045139248
H           33.85099415997227        8.80577015334885        0.09440555914207
H           34.86203838655280        7.64808475262372       -1.84728350822500
H           34.97011545256077        5.18374371368039       -1.90205218125451
H           36.66574996991106        4.63982390200081        0.19362705644596
H           38.65185095067356        2.83205332727837       -0.00993878725565
H           38.80988157678032       -2.18262058333639       -1.48567986416001
H           36.97571656237013       -4.12678501046223       -1.79689028505376
H           35.88766085221357       -5.24772751186628        0.28314608912542
H           35.94232545955934       -7.65243563794128       -0.26957658211513
H           34.49561925742601       -8.53823825624514       -2.08951424085833
H           31.50697341505295       -6.74061118996284       -4.91792537501113
H           32.97685584886339       -4.59393908708824       -2.79122001060966
H           31.97434745467135       -4.60843072512921       -0.21860164265533
H           30.09379656135916       -2.86659593062158        0.62448257966414
Ni          55.93895500526904        0.15600573624944       -0.26100420044513
C           59.30956291153886        0.01890876649297        0.03743300791934
C           58.64942304131185       -1.11063172411885       -0.40157184400826
C           59.30626846636774       -2.32384345870380       -0.78299945823440
C           58.33334874247542       -3.23313576918230       -1.02632021379556
C           57.08185708263308       -2.57991055247831       -0.77348093761545
N           57.28616585647023       -1.26336576153584       -0.44392633283650
C           55.84994113459517       -3.22171447566793       -0.76428992253177
C           55.80138347323334       -4.68458526063686       -0.99476402558929
C           56.48458608930726       -5.55959289868222       -0.15496097268023
C           56.43152666531893       -6.93563356308430       -0.37350301610684
C           57.17844867059449       -7.81684947988553        0.55932224456377
O           57.05674217816669       -9.12185918888617        0.27675791777421
O           57.83865374369046       -7.42155420544604        1.48571732896019
C           55.69324838029164       -7.44649845081941       -1.44088631783137
C           55.01343713397755       -6.57725406693279       -2.27968983227904
C           55.06382645426804       -5.20815652662992       -2.05975902672310
C           54.65692205469739       -2.54638030316229       -0.53492585645355
C           53.38292191849104       -3.18681220970611       -0.41238175596277
C           52.45714208327019       -2.20103171800826       -0.32245322065037
N           54.51453917036252       -1.17993290791440       -0.46547348407192
C           53.16477876735370       -0.96295560769496       -0.39123272410141
C           52.54071320685356        0.28381456926003       -0.49384929188332
C           53.26543252894700        1.47910905094699       -0.51940341620157
C           52.67054398062469        2.76346619360816       -0.70449933534237
C           53.65160950822422        3.68022969903716       -0.52062341566344
C           54.84462801446418        2.95147989579411       -0.21378966417021
N           54.60689084202362        1.59738549347554       -0.27338107164326
C           56.04013101962582        3.54210083342063        0.17806859058043
C           56.07827111174457        5.01125695259815        0.36653486997566
C           55.22483933725668        5.62869023021672        1.28422605541575
C           55.25504358478481        7.00450071211565        1.46370366712499
C           56.13545620472480        7.78141936902578        0.72948125429085
C           56.99417562796724        7.17647058405995       -0.18957298729535
C           57.92324633326388        8.04367238577019       -0.95702825626527
O           58.72398313590782        7.36597172755471       -1.79228884471710
O           57.97470199369565        9.24245471645195       -0.85362968544585
C           56.96509736294369        5.79502239784788       -0.36888094881390
C           57.19707618423446        2.80656220035050        0.40436148247127
C           58.43381974243580        3.36500648589562        0.86796292193532
C           59.35304070764052        2.37189466183204        0.82534055315549
C           58.67594299375487        1.20501060184169        0.34735456689245
N           57.34524791123412        1.46872857647061        0.13757593357293
H           60.38761201589656       -0.02595933964051        0.13812160396536
H           60.37568488530138       -2.44481563114257       -0.85002915266343
H           58.44078249195614       -4.25689914798713       -1.34598106565563
H           57.05110074689991       -5.18204842910565        0.68925964284536
H           57.57045725909936       -9.62734423139650        0.92754911539871
H           55.65459895496327       -8.51577503713374       -1.60987297501763
H           54.43997754494806       -6.96713682483862       -3.11307798918071
H           54.53890126524586       -4.53295437066964       -2.72632145510351
H           53.22701896381177       -4.25300667676015       -0.38829986911121
H           51.38864148445438       -2.29194405626341       -0.21651842954681
H           51.63432028173547        2.92978680715152       -0.94885231742698
H           53.58326976340794        4.75349948456028       -0.59107044559040
H           54.54458684261569        5.02075493912494        1.87019639180668
H           54.58865114734571        7.46868009690076        2.18172449546796
H           56.17145396205285        8.85751397734250        0.85626686455741
H           59.29695895224744        8.00069514375431       -2.25241186861362
H           57.62159220779571        5.33021055215518       -1.09491457607128
H           58.56838405831040        4.38648382597112        1.18479226168607
H           60.39867676309641        2.40788558209084        1.08643308878730
C           39.08937329251926        0.29794099362230       -0.61550815392178
C           40.30191929348614        0.35722978076924       -0.69005667224762
C           49.92262575961938        0.37711840011113       -0.67428136548593
C           51.13543832849881        0.33587271517047       -0.58674196638309
Ni          45.11135462106229        0.48538195149347       -0.92189902679720
C           41.70644415754267        0.41488672622074       -0.78051279137695
C           42.36965202985958       -0.53302070684003       -1.56641596498451
C           41.70255633274157       -1.48537505551579       -2.39453822261367
C           42.66051312484537       -2.29035735183982       -2.91570143506703
C           43.91021613440402       -1.84225765987099       -2.38119006442392
N           43.72377845353134       -0.72080455596519       -1.60474991930534
C           45.11229119097711       -2.52429155474283       -2.52029760448448
C           45.11711389253150       -3.82168584945148       -3.23520212413137
C           44.30989008094732       -4.87022749404164       -2.80220720611490
C           44.31459956030922       -6.09141283605933       -3.47457861590022
C           43.42830528800761       -7.16824482594363       -2.96483825996976
O           43.51585353351586       -8.30934454515699       -3.66280103445548
O           42.69012711799189       -7.05035901721673       -2.02042094482624
C           45.13168508542064       -6.27178088602041       -4.59049837453076
C           45.93728494085026       -5.22997787184490       -5.02307682742990
C           45.93318379092594       -4.01501226729288       -4.35262897891193
C           46.30502633777008       -2.05798154221552       -1.97994467397601
C           47.53135063662767       -2.79465565055796       -1.98067876712081
C           48.47930506230299       -1.97576053863288       -1.46291863477988
N           46.49398348556650       -0.81380176257920       -1.42513546337886
C           47.83309450733114       -0.74155861770609       -1.14984852182642
C           48.51771670761124        0.41797658524544       -0.77252289675020
C           47.85568205606698        1.62644611012218       -0.53044502115654
C           48.52478927219066        2.86362588645127       -0.28619398428730
C           47.56684884961231        3.77910933495096       -0.00125461069438
C           46.31384563259186        3.08871387499932       -0.03837815872059
N           46.50082830176592        1.77889678069570       -0.42046359578766
C           45.10806001026339        3.63325738519299        0.38351070759593
C           45.08876011710494        5.01818436521411        0.91079053408762
C           44.28897848111558        5.98838938578216        0.30209495754030
C           44.26182791160952        7.28843823690990        0.78681463705403
C           45.02737234967590        7.63485792575704        1.88765082633961
C           45.82614164046143        6.67307698906433        2.50798152749901
C           46.62650871923134        7.08304642101626        3.68945047798322
O           47.36064151517329        6.09002057751578        4.21158701123076
O           46.63299245409691        8.19493367945383        4.15201960156054
C           45.85678546472781        5.36862164713884        2.01907910782943
C           43.91502787870839        2.91998174279833        0.36306770019442
C           42.68997623921356        3.38443519250728        0.93826423124481
C           41.74419864173338        2.45881192280760        0.64402179100568
C           42.38921287614139        1.44079226272224       -0.12178445978106
N           43.72775915939206        1.70148426786904       -0.24476762224720
H           40.63812535500711       -1.51530962231043       -2.56019722497478
H           42.53919423467514       -3.11457513048535       -3.59928542223167
H           43.68075015817731       -4.75428031546659       -1.92643467386898
H           42.90877473430852       -8.95836573074177       -3.27139549245289
H           45.13281954413385       -7.22068060458824       -5.11298314422294
H           46.57290714845307       -5.36253046981906       -5.89127637082393
H           46.55590901357248       -3.20016360289096       -4.70464307718230
H           47.64264710432301       -3.80973023000609       -2.32551698495981
H           49.52815349106481       -2.17414399298503       -1.31611714658352
H           49.59199086500289        3.00386643224637       -0.33470472928835
H           47.69042706175459        4.82634952552653        0.22116234182468
H           43.69634695796451        5.72030242802214       -0.56545557107046
H           43.64017221565953        8.03178136689823        0.30091889186290
H           45.01702728558344        8.64526530115288        2.28050213671453
H           47.84665439790579        6.43609252487274        4.97771486372166
H           46.46525471894462        4.62042134039769        2.51309210058655
H           42.58009988389555        4.29482751373882        1.50467010101101
H           40.69919821107358        2.45847408163975        0.90796831319406

          :  Hamiltonian                  GFN1-xTB          :
         :: total energy            -361.428164122846 Eh    ::
         :: gradient norm              0.000641503492 Eh/a0 ::
         :: HOMO-LUMO gap              1.032723803182 eV    ::
         :: SCC energy              -366.504207610361 Eh    ::
         :: repulsion energy           5.252976869914 Eh    ::

    * Orbital Energies and Occupations

         #    Occupation            Energy/Eh            Energy/eV
      -------------------------------------------------------------
         1        2.0000           -0.8365212             -22.7629
       ...           ...                  ...                  ...
       309        2.0000           -0.4051896             -11.0258
       310        2.0000           -0.4048737             -11.0172
       311        2.0000           -0.4046894             -11.0122
       312        2.0000           -0.4045030             -11.0071
       313        2.0000           -0.4043817             -11.0038
       314        2.0000           -0.4041632             -10.9978
       315        2.0000           -0.4036272             -10.9833
       316        2.0000           -0.4030189             -10.9667
       317        2.0000           -0.4029316             -10.9643
       318        2.0000           -0.4025782             -10.9547
       319        2.0000           -0.4024952             -10.9525
       320        2.0000           -0.3984102             -10.8413
       321        2.0000           -0.3891284             -10.5887 (HOMO)
       322                         -0.3511765              -9.5560 (LUMO)
       323                         -0.3395986              -9.2409
       324                         -0.3392250              -9.2308
       325                         -0.3378734              -9.1940
       326                         -0.3370382              -9.1713
       327                         -0.3343509              -9.0982
       328                         -0.3334355              -9.0732
       329                         -0.3333253              -9.0702
       330                         -0.3288383              -8.9481
       331                         -0.3153167              -8.5802
       332                         -0.3140073              -8.5446
       ...                                ...                  ...
       659                          1.3352247              36.3333
      -------------------------------------------------------------
                  HL-Gap            0.0379519 Eh            1.0327 eV

Wiberg/Mayer (AO) data.
largest (>0.10) Wiberg bond orders for each atom

     #   Z sym  total        # sym  WBO       # sym  WBO       # sym  WBO
 ---------------------------------------------------------------------------
     1  28 Ni   3.016 --    43 N    0.665     7 N    0.664    21 N    0.661
                            28 N    0.661
     2   6 C    3.935 --    42 C    1.366     3 C    1.361    44 H    0.970
     3   6 C    3.922 --     2 C    1.361     7 N    1.215     4 C    1.174
     4   6 C    3.960 --     5 C    1.650     3 C    1.174    45 H    0.975
     5   6 C    3.963 --     4 C    1.650     6 C    1.175    46 H    0.972
     6   6 C    3.921 --     8 C    1.326     7 N    1.219     5 C    1.175
     7   7 N    3.402 --     6 C    1.219     3 C    1.215     1 Ni   0.664
     8   6 C    3.938 --     6 C    1.326    18 C    1.323     9 C    1.027
     9   6 C    3.988 --    10 C    1.408    17 C    1.387     8 C    1.027
                            15 C    0.102
    10   6 C    3.984 --     9 C    1.408    11 C    1.396    47 H    0.967
                            16 C    0.104
    11   6 C    3.988 --    10 C    1.396    15 C    1.392    12 C    1.004
                            17 C    0.100
    12   6 C    3.836 --    14 O    1.693    13 O    1.090    11 C    1.004
    13   8 O    2.099 --    12 C    1.090    48 H    0.838    14 O    0.129
    14   8 O    1.962 --    12 C    1.693    13 O    0.129
    15   6 C    3.987 --    16 C    1.448    11 C    1.392    49 H    0.970
                             9 C    0.102
    16   6 C    3.994 --    15 C    1.448    17 C    1.442    50 H    0.972
                            10 C    0.104
    17   6 C    3.987 --    16 C    1.442     9 C    1.387    51 H    0.973
                            11 C    0.100
    18   6 C    3.916 --     8 C    1.323    21 N    1.210    19 C    1.184
    19   6 C    3.959 --    20 C    1.635    18 C    1.184    52 H    0.973
    20   6 C    3.961 --    19 C    1.635    22 C    1.191    53 H    0.970
    21   7 N    3.406 --    22 C    1.234    18 C    1.210     1 Ni   0.661
    22   6 C    3.909 --    23 C    1.270    21 N    1.234    20 C    1.191
    23   6 C    3.944 --    22 C    1.270    24 C    1.266   125 C    1.170
    24   6 C    3.909 --    23 C    1.266    28 N    1.239    25 C    1.191
    25   6 C    3.962 --    26 C    1.636    24 C    1.191    54 H    0.969
    26   6 C    3.959 --    25 C    1.636    27 C    1.182    55 H    0.972
    27   6 C    3.916 --    29 C    1.330    28 N    1.205    26 C    1.182
    28   7 N    3.406 --    24 C    1.239    27 C    1.205     1 Ni   0.661
    29   6 C    3.938 --    27 C    1.330    39 C    1.320    30 C    1.025
    30   6 C    3.988 --    38 C    1.407    31 C    1.389    29 C    1.025
                            33 C    0.102
    31   6 C    3.987 --    32 C    1.439    30 C    1.389    56 H    0.972
                            34 C    0.100
    32   6 C    3.994 --    33 C    1.451    31 C    1.439    57 H    0.972
                            38 C    0.104
    33   6 C    3.986 --    32 C    1.451    34 C    1.388    58 H    0.969
                            30 C    0.102
    34   6 C    3.988 --    38 C    1.399    33 C    1.388    35 C    1.005
                            31 C    0.100
    35   6 C    3.836 --    37 O    1.692    36 O    1.090    34 C    1.005
    36   8 O    2.098 --    35 C    1.090    59 H    0.838    37 O    0.129
    37   8 O    1.961 --    35 C    1.692    36 O    0.129
    38   6 C    3.986 --    30 C    1.407    34 C    1.399    60 H    0.970
                            32 C    0.104
    39   6 C    3.920 --    29 C    1.320    43 N    1.224    40 C    1.176
    40   6 C    3.963 --    41 C    1.650    39 C    1.176    61 H    0.973
    41   6 C    3.959 --    40 C    1.650    42 C    1.174    62 H    0.975
    42   6 C    3.922 --     2 C    1.366    43 N    1.211    41 C    1.174
    43   7 N    3.403 --    39 C    1.224    42 C    1.211     1 Ni   0.665
    44   1 H    1.000 --     2 C    0.970
    45   1 H    0.997 --     4 C    0.975
    46   1 H    1.004 --     5 C    0.972
    47   1 H    1.007 --    10 C    0.967
    48   1 H    0.872 --    13 O    0.838
    49   1 H    1.005 --    15 C    0.970
    50   1 H    1.002 --    16 C    0.972
    51   1 H    1.004 --    17 C    0.973
    52   1 H    1.004 --    19 C    0.973
    53   1 H    1.005 --    20 C    0.970
    54   1 H    1.005 --    25 C    0.969
    55   1 H    1.003 --    26 C    0.972
    56   1 H    1.004 --    31 C    0.972
    57   1 H    1.001 --    32 C    0.972
    58   1 H    1.005 --    33 C    0.969
    59   1 H    0.873 --    36 O    0.838
    60   1 H    1.007 --    38 C    0.970
    61   1 H    1.003 --    40 C    0.973
    62   1 H    0.997 --    41 C    0.975
    63  28 Ni   3.027 --   105 N    0.665    69 N    0.665    90 N    0.662
                            83 N    0.662
    64   6 C    3.935 --   104 C    1.364    65 C    1.364   106 H    0.970
    65   6 C    3.922 --    64 C    1.364    69 N    1.212    66 C    1.174
    66   6 C    3.960 --    67 C    1.651    65 C    1.174   107 H    0.975
    67   6 C    3.963 --    66 C    1.651    68 C    1.175   108 H    0.972
    68   6 C    3.921 --    70 C    1.325    69 N    1.220    67 C    1.175
    69   7 N    3.401 --    68 C    1.220    65 C    1.212    63 Ni   0.665
    70   6 C    3.938 --    68 C    1.325    80 C    1.323    71 C    1.029
    71   6 C    3.988 --    72 C    1.407    79 C    1.386    70 C    1.029
                            77 C    0.102
    72   6 C    3.984 --    71 C    1.407    73 C    1.397   109 H    0.967
                            78 C    0.104
    73   6 C    3.988 --    72 C    1.397    77 C    1.391    74 C    1.004
    74   6 C    3.836 --    76 O    1.693    75 O    1.090    73 C    1.004
    75   8 O    2.099 --    74 C    1.090   110 H    0.838    76 O    0.129
    76   8 O    1.962 --    74 C    1.693    75 O    0.129
    77   6 C    3.986 --    78 C    1.447    73 C    1.391   111 H    0.970
                            71 C    0.102
    78   6 C    3.994 --    77 C    1.447    79 C    1.442   112 H    0.972
                            72 C    0.104
    79   6 C    3.987 --    78 C    1.442    71 C    1.386   113 H    0.972
    80   6 C    3.916 --    70 C    1.323    83 N    1.209    81 C    1.185
    81   6 C    3.959 --    82 C    1.633    80 C    1.185   114 H    0.973
    82   6 C    3.962 --    81 C    1.633    84 C    1.193   115 H    0.969
    83   7 N    3.404 --    84 C    1.233    80 C    1.209    63 Ni   0.662
    84   6 C    3.908 --    85 C    1.268    83 N    1.233    82 C    1.193
    85   6 C    3.945 --    84 C    1.268    86 C    1.267   128 C    1.172
    86   6 C    3.908 --    85 C    1.267    90 N    1.234    87 C    1.193
    87   6 C    3.962 --    88 C    1.633    86 C    1.193   116 H    0.968
    88   6 C    3.959 --    87 C    1.633    89 C    1.185   117 H    0.973
    89   6 C    3.916 --    91 C    1.324    90 N    1.207    88 C    1.185
    90   7 N    3.404 --    86 C    1.234    89 C    1.207    63 Ni   0.662
    91   6 C    3.938 --    89 C    1.324   101 C    1.323    92 C    1.030
    92   6 C    3.988 --   100 C    1.405    93 C    1.387    91 C    1.030
                            95 C    0.102
    93   6 C    3.987 --    94 C    1.440    92 C    1.387   118 H    0.972
    94   6 C    3.994 --    95 C    1.450    93 C    1.440   119 H    0.972
                           100 C    0.104
    95   6 C    3.985 --    94 C    1.450    96 C    1.388   120 H    0.969
                            92 C    0.102
    96   6 C    3.988 --   100 C    1.400    95 C    1.388    97 C    1.005
    97   6 C    3.836 --    99 O    1.693    98 O    1.090    96 C    1.005
    98   8 O    2.099 --    97 C    1.090   121 H    0.838    99 O    0.129
    99   8 O    1.961 --    97 C    1.693    98 O    0.129
   100   6 C    3.985 --    92 C    1.405    96 C    1.400   122 H    0.969
                            94 C    0.104
   101   6 C    3.921 --    91 C    1.323   105 N    1.221   102 C    1.176
   102   6 C    3.963 --   103 C    1.650   101 C    1.176   123 H    0.973
   103   6 C    3.960 --   102 C    1.650   104 C    1.175   124 H    0.975
   104   6 C    3.922 --    64 C    1.364   105 N    1.212   103 C    1.175
   105   7 N    3.401 --   101 C    1.221   104 C    1.212    63 Ni   0.665
   106   1 H    1.000 --    64 C    0.970
   107   1 H    0.997 --    66 C    0.975
   108   1 H    1.003 --    67 C    0.972
   109   1 H    1.007 --    72 C    0.967
   110   1 H    0.872 --    75 O    0.838
   111   1 H    1.005 --    77 C    0.970
   112   1 H    1.002 --    78 C    0.972
   113   1 H    1.005 --    79 C    0.972
   114   1 H    1.003 --    81 C    0.973
   115   1 H    1.005 --    82 C    0.969
   116   1 H    1.005 --    87 C    0.968
   117   1 H    1.004 --    88 C    0.973
   118   1 H    1.005 --    93 C    0.972
   119   1 H    1.001 --    94 C    0.972
   120   1 H    1.005 --    95 C    0.969
   121   1 H    0.873 --    98 O    0.838
   122   1 H    1.008 --   100 C    0.969
   123   1 H    1.003 --   102 C    0.973
   124   1 H    0.997 --   103 C    0.975
   125   6 C    3.934 --   126 C    2.585    23 C    1.170
   126   6 C    3.937 --   125 C    2.585   130 C    1.172
   127   6 C    3.937 --   128 C    2.584   151 C    1.174
   128   6 C    3.935 --   127 C    2.584    85 C    1.172
   129  28 Ni   3.016 --   135 N    0.662   149 N    0.661   156 N    0.661
                           171 N    0.661
   130   6 C    3.935 --   170 C    1.269   131 C    1.263   126 C    1.172
   131   6 C    3.909 --   130 C    1.263   135 N    1.238   132 C    1.194
   132   6 C    3.959 --   133 C    1.632   131 C    1.194   172 H    0.969
   133   6 C    3.960 --   132 C    1.632   134 C    1.185   173 H    0.972
   134   6 C    3.915 --   136 C    1.326   135 N    1.203   133 C    1.185
   135   7 N    3.399 --   131 C    1.238   134 C    1.203   129 Ni   0.662
   136   6 C    3.934 --   134 C    1.326   146 C    1.321   137 C    1.031
   137   6 C    3.988 --   138 C    1.406   145 C    1.386   136 C    1.031
                           143 C    0.102
   138   6 C    3.983 --   137 C    1.406   139 C    1.397   174 H    0.967
                           144 C    0.104
   139   6 C    3.988 --   138 C    1.397   143 C    1.391   140 C    1.004
   140   6 C    3.836 --   142 O    1.692   141 O    1.091   139 C    1.004
   141   8 O    2.099 --   140 C    1.091   175 H    0.838   142 O    0.129
   142   8 O    1.961 --   140 C    1.692   141 O    0.129
   143   6 C    3.986 --   144 C    1.447   139 C    1.391   176 H    0.970
                           137 C    0.102
   144   6 C    3.994 --   143 C    1.447   145 C    1.442   177 H    0.972
                           138 C    0.104
   145   6 C    3.985 --   144 C    1.442   137 C    1.386   178 H    0.972
   146   6 C    3.915 --   136 C    1.321   149 N    1.208   147 C    1.187
   147   6 C    3.960 --   148 C    1.632   146 C    1.187   179 H    0.973
   148   6 C    3.960 --   147 C    1.632   150 C    1.193   180 H    0.969
   149   7 N    3.399 --   150 C    1.234   146 C    1.208   129 Ni   0.661
   150   6 C    3.909 --   151 C    1.267   149 N    1.234   148 C    1.193
   151   6 C    3.936 --   150 C    1.267   152 C    1.263   127 C    1.174
   152   6 C    3.909 --   151 C    1.263   156 N    1.239   153 C    1.193
   153   6 C    3.959 --   154 C    1.633   152 C    1.193   181 H    0.968
   154   6 C    3.960 --   153 C    1.633   155 C    1.185   182 H    0.972
   155   6 C    3.915 --   157 C    1.329   156 N    1.202   154 C    1.185
   156   7 N    3.399 --   152 C    1.239   155 C    1.202   129 Ni   0.661
   157   6 C    3.933 --   155 C    1.329   167 C    1.319   158 C    1.028
   158   6 C    3.988 --   166 C    1.405   159 C    1.388   157 C    1.028
                           161 C    0.102
   159   6 C    3.985 --   160 C    1.441   158 C    1.388   183 H    0.973
                           162 C    0.100
   160   6 C    3.994 --   161 C    1.450   159 C    1.441   184 H    0.972
                           166 C    0.104
   161   6 C    3.985 --   160 C    1.450   162 C    1.388   185 H    0.969
                           158 C    0.102
   162   6 C    3.988 --   166 C    1.400   161 C    1.388   163 C    1.004
                           159 C    0.100
   163   6 C    3.836 --   165 O    1.693   164 O    1.090   162 C    1.004
   164   8 O    2.099 --   163 C    1.090   186 H    0.838   165 O    0.129
   165   8 O    1.962 --   163 C    1.693   164 O    0.129
   166   6 C    3.985 --   158 C    1.405   162 C    1.400   187 H    0.969
                           160 C    0.104
   167   6 C    3.915 --   157 C    1.319   171 N    1.210   168 C    1.187
   168   6 C    3.960 --   169 C    1.632   167 C    1.187   188 H    0.973
   169   6 C    3.960 --   168 C    1.632   170 C    1.193   189 H    0.970
   170   6 C    3.908 --   130 C    1.269   171 N    1.232   169 C    1.193
   171   7 N    3.399 --   170 C    1.232   167 C    1.210   129 Ni   0.661
   172   1 H    1.004 --   132 C    0.969
   173   1 H    1.003 --   133 C    0.972
   174   1 H    1.008 --   138 C    0.967
   175   1 H    0.872 --   141 O    0.838
   176   1 H    1.005 --   143 C    0.970
   177   1 H    1.002 --   144 C    0.972
   178   1 H    1.005 --   145 C    0.972
   179   1 H    1.003 --   147 C    0.973
   180   1 H    1.006 --   148 C    0.969
   181   1 H    1.005 --   153 C    0.968
   182   1 H    1.004 --   154 C    0.972
   183   1 H    1.004 --   159 C    0.973
   184   1 H    1.002 --   160 C    0.972
   185   1 H    1.005 --   161 C    0.969
   186   1 H    0.873 --   164 O    0.838
   187   1 H    1.008 --   166 C    0.969
   188   1 H    1.003 --   168 C    0.973
   189   1 H    1.004 --   169 C    0.970
 ---------------------------------------------------------------------------

           -------------------------------------------------
          | TOTAL ENERGY             -361.428164122846 Eh   |
          | GRADIENT NORM               0.000641503492 Eh/α |
          | HOMO-LUMO GAP               1.032723803182 eV   |
           -------------------------------------------------

 * finished run on 2022/07/30 at 04:45:29.714
