   * xtb version 6.5.1 (b24c23e) compiled by 'conda@728c89f4b128' on 2022-07-12
          program call               : xtb C2Py_C8_3.xyz --gfn 1 --opt -T 48

   ID    Z sym.   atoms
    1    6 C      1-5, 7-12, 14-18, 20-25, 27-32, 34-39, 60-64, 66-71, 73-77,
                  79-84, 86-91, 93-98, 119-139, 141-146, 148-152, 154-159,
                  161-166, 168-173
    2    7 N      6, 13, 19, 26, 33, 40, 65, 72, 78, 85, 92, 99, 140, 147,
                  153, 160, 167, 174
    3    1 H      41-59, 100-118, 175-192

          :  Hamiltonian                  GFN1-xTB          :
 * total energy  :  -335.0437088 Eh     change        0.1921990E-07 Eh
 * total energy  :  -335.4895689 Eh     change       -0.4458600E+00 Eh
 * total energy  :  -335.6470037 Eh     change       -0.1574349E+00 Eh
 * total energy  :  -335.7201038 Eh     change       -0.7310003E-01 Eh
 * total energy  :  -335.7702440 Eh     change       -0.5014024E-01 Eh
 * total energy  :  -335.8263859 Eh     change       -0.5614187E-01 Eh
 * total energy  :  -335.8850117 Eh     change       -0.5862577E-01 Eh
 * total energy  :  -335.9258368 Eh     change       -0.4082511E-01 Eh
 * total energy  :  -335.9556092 Eh     change       -0.2977244E-01 Eh
 * total energy  :  -335.9788444 Eh     change       -0.2323517E-01 Eh
 * total energy  :  -336.1409070 Eh     change       -0.2131232E-05 Eh
 * total energy  :  -336.1409169 Eh     change       -0.9891177E-05 Eh
 * total energy  :  -336.1409147 Eh     change        0.2229193E-05 Eh
 * total energy  :  -336.1409220 Eh     change       -0.7293080E-05 Eh
 * total energy  :  -336.1409180 Eh     change        0.3942229E-05 Eh
 * total energy  :  -336.1409249 Eh     change       -0.6855923E-05 Eh
 * total energy  :  -336.1409214 Eh     change        0.3485768E-05 Eh
 * total energy  :  -336.1409278 Eh     change       -0.6458932E-05 Eh
 * total energy  :  -336.1409290 Eh     change       -0.1201208E-05 Eh
   *** GEOMETRY OPTIMIZATION CONVERGED AFTER 103 ITERATIONS ***

 final structure:
================
192
 xtb: 6.5.1 (b24c23e)
C           25.42715498586642       -0.01531863099600       -0.12844554311227
C           26.02902146097234        0.99373150010284       -0.87159529918629
C           25.37892741990909        1.99612562029335       -1.64287525994508
C           26.34459784961787        2.78149975351241       -2.21056866568620
C           27.60994090371436        2.28094781880448       -1.80185484163403
N           27.37412209464524        1.20697384391817       -0.99831414852971
C           28.87614783718764        2.78505702032883       -2.14921057056612
C           28.89608972020833        3.91242407099631       -3.00020191558794
C           28.91000861826131        4.87875548251701       -3.73411251484516
C           28.93746283395747        6.00546828588506       -4.58723517805602
C           27.75975935159936        6.54713171365963       -5.11524567145083
C           27.84316156714499        7.65032519445774       -5.94589130881131
N           28.99542836069582        8.23042491915719       -6.27171198324913
C           30.11942663660188        7.72158815755753       -5.77364613119028
C           30.14532923001202        6.62117516481955       -4.93571202732027
C           30.10662355341852        2.26039597527381       -1.72169425115657
C           31.38722934259902        2.81761689374318       -2.11077851408174
C           32.32934992566625        2.05604810452753       -1.51583322163315
N           30.28246874376562        1.18870143969867       -0.91068102225154
C           31.61828249770053        1.03817645096683       -0.76664397105097
C           32.27106529140418        0.04938453492594       -0.00652066021414
C           31.64326750070531       -0.96432824224242        0.74369271073090
C           32.28699510264441       -1.96776101976338        1.51324599732618
C           31.31703928222137       -2.75359427828821        2.07521522157974
C           30.05622289489633       -2.24919306301841        1.66344765134450
N           30.29991115290541       -1.16977320893026        0.86294347804476
C           28.79136485488494       -2.75728942248218        2.00775823530100
C           28.77240814511425       -3.89201112561272        2.84724443837329
C           28.76116927381475       -4.86974647832234        3.56632183570318
C           28.74397376699849       -6.00891137414443        4.40252928689091
C           29.93220252418825       -6.60912320825760        4.83610367883804
C           29.86104511632177       -7.72335429388657        5.65289856093507
N           28.71093877248202       -8.26015424106201        6.05260117236939
C           27.57702373752828       -7.69554500687898        5.64475976433982
C           27.53853930419063       -6.58021994530484        4.82726730188752
C           27.55974162301600       -2.22807429297631        1.58196351794757
C           26.27262106493583       -2.78270238698890        1.96363158172642
C           25.33702991460228       -2.01590863570735        1.36740687119259
C           26.05590942018663       -0.99638789020031        0.62320013627952
N           27.39706536617068       -1.15834610619905        0.77848025988463
H           24.34211567109206       -0.02927948975491       -0.14563698449053
H           24.30974212118424        2.09356440983583       -1.74304471777928
H           26.20353435989713        3.63361033331734       -2.85602207595621
H           28.09470272873085        0.64523422065354       -0.55742204134362
H           26.79970015152766        6.10615493084075       -4.87564719039453
H           26.94542486172422        8.09082059212501       -6.36994108984325
H           31.04156794704119        8.21930271335740       -6.05952340199443
H           31.08372618857249        6.23930945161540       -4.55251989692163
H           31.51797783606627        3.67435136552814       -2.75237207066409
H           33.40236557198755        2.15114298211528       -1.56227209336656
H           33.35521579694763       -2.06855106334662        1.61759704345992
H           31.45487715446794       -3.60770771761651        2.71846616402207
H           29.58215301624868       -0.60556670912822        0.42016973983412
H           30.89078479511885       -6.20463973998768        4.53420382215313
H           30.76709303119304       -8.20905221717321        6.00381677406769
H           26.65708529374778       -8.15882763528381        5.98964259784878
H           26.59228961959504       -6.15251494139996        4.51863367999747
H           26.13680589842822       -3.64133658785510        2.60192346711907
H           24.26277731880933       -2.10513144663084        1.40700520777002
C           69.51220718698740       -0.12796918001833        0.00098515694601
C           68.89986375774889       -0.96805966283105        0.92403398759570
C           69.53920523311957       -1.84280337091578        1.84508742650092
C           68.56536781939788       -2.48196277876592        2.56256544045319
C           67.30564887099797       -2.01527988086770        2.10008887742556
N           67.55276500813892       -1.10732294253939        1.11561354674594
C           66.03436606037097       -2.40220892616325        2.56059693008983
C           66.00190753170044       -3.36443541933911        3.59428964545807
C           65.97486198313143       -4.19366971735106        4.47981660406607
C           65.93078993571191       -5.15935970436871        5.51106597335856
C           67.09987173947692       -5.74526861363869        6.01001927632563
C           66.99975975609580       -6.68669109232087        7.01883692981772
N           65.83909757357047       -7.06763560000382        7.54605839512735
C           64.72320439127506       -6.51461500259356        7.07777657420325
C           64.71400561656793       -5.56583195616551        6.07109766635439
C           64.80986878123450       -1.91344727687024        2.07715190797750
C           63.52383982886715       -2.34408603984143        2.58934208775844
C           62.58988699634124       -1.66952058792364        1.88638840809612
N           64.64521636740169       -0.99936698619595        1.08984268233407
C           63.31134377037727       -0.83086776133448        0.94876812916201
C           62.66830587449588        0.02137450268012        0.03090673931217
C           63.30618530591295        0.85975531829521       -0.90435803382396
C           62.67310358965645        1.72466097141482       -1.83415018646139
C           63.65134871897860        2.35939201774967       -2.55140787478872
C           64.90677140736680        1.89811494690492       -2.07725733578960
N           64.65161307069727        0.99537049251932       -1.08463362418871
C           66.17703851557670        2.28982914753545       -2.53515215307332
C           66.20843206152394        3.24062551586615       -3.57807878606211
C           66.23089105321777        4.05739357786099       -4.47560518314151
C           66.26114281427465        5.00736085389986       -5.52150035921053
C           65.07989915207385        5.50866486523540       -6.08133564054449
C           65.16399503328778        6.43560126417731       -7.10482356268266
N           66.32029710468447        6.88061807324771       -7.59019810460011
C           67.44765658376937        6.40895476154460       -7.06345582695575
C           67.47319160787957        5.48053254929231       -6.03822109733886
C           67.40298390833642        1.80926250417694       -2.04067688788343
C           68.69582091897146        2.24137175709899       -2.54252717904622
C           69.62326185682407        1.56612845467542       -1.83351573275600
C           68.89376846846075        0.72375617470696       -0.90172113991832
N           67.55442965533909        0.89988969011899       -1.05757016092719
H           70.59724153254442       -0.14908740479778       -0.00736438221068
H           70.60714676129250       -1.95957334889075        1.93748274101140
H           68.69726538681579       -3.21272205785063        3.34436180745477
H           66.83824966940475       -0.60633547397967        0.59824293355876
H           68.06633497142418       -5.46410821246234        5.60943875648512
H           67.89059961100777       -7.15788693401743        7.42420838088252
H           63.79371557755900       -6.84854343735409        7.52987459314589
H           63.78163334791572       -5.14154292353870        5.71888767335009
H           63.38406796133628       -3.06516868732622        3.37877326124046
H           61.51618802235017       -1.71621439064542        1.97295033589523
H           61.60598675316198        1.84032251593982       -1.93441320327368
H           63.52269847510245        3.08372464086548       -3.33950239257957
H           65.36343678891141        0.49833985336832       -0.55944449328017
H           64.11662047223972        5.17321686083658       -5.71634746041479
H           64.26357076701356        6.84100113000365       -7.55741979580470
H           68.37295161272964        6.79346689498162       -7.48281464103231
H           68.41445221020919        5.12288124412741       -5.63864205624690
H           68.84076759525792        2.96393590841752       -3.32994036926764
H           70.69833394438039        1.61078340465274       -1.90948871913222
C           33.67660185271595        0.05900368829454        0.01372150661589
C           34.90097059787055        0.05780870804137        0.03075529984762
C           36.24366410279899        0.05358664624881        0.04570167884108
C           37.47405608744246        0.04275904594360        0.05858970811799
C           38.81192990885663        0.02806341341599        0.06860744764919
C           40.04241821945456        0.01186127359054        0.07725139123252
C           41.38494737178041       -0.00655275380503        0.08412079697390
C           42.60944239077285       -0.02567346094756        0.09036823754835
C           52.32994116263591       -0.00064688499764        0.07336736329921
C           53.55443083812249        0.01948810379329        0.06996562341829
C           54.89677457822295        0.03947108627830        0.06333119646280
C           56.12745607530727        0.05395778734714        0.05457982092485
C           57.46529204732172        0.06198181290521        0.04811319170544
C           58.69589462589146        0.06347093035235        0.04338316357638
C           60.03853545173157        0.05731518082212        0.03853128147848
C           61.26299493311155        0.04415246048568        0.03550819791188
C           44.01419326504771       -0.04350460295382        0.09138987691046
C           44.64129525249906       -0.27754859347235       -1.14868534018808
C           44.00087249627704       -0.51203834613522       -2.39176275248860
C           44.97475762737863       -0.70652616280156       -3.33505746608102
C           46.23295557968354       -0.59222332488890       -2.69066558749314
N           45.98576287212833       -0.33259175136889       -1.37342531828888
C           47.49971992331625       -0.71895627826697       -3.28997244864205
C           47.51246391895997       -1.00990662883106       -4.67246117689179
C           47.52186547884074       -1.27006597984992       -5.85776242566728
C           47.54321207694800       -1.57695653121686       -7.23736266052762
C           48.75034217958346       -1.78527249401097       -7.91464362165429
C           48.71800059282003       -2.08688947166649       -9.26436252384906
N           47.58845543356032       -2.18933258904841       -9.96003720357418
C           46.43688013307683       -1.99169662237662       -9.32369769900600
C           46.35970692954826       -1.68648204903306       -7.97652748927964
C           48.73574634397369       -0.58171796195130       -2.63915777645737
C           50.00970462946704       -0.70336839291872       -3.32063830727915
C           50.96167191778984       -0.50212197114360       -2.38534657289390
N           48.92483390254812       -0.31681850033399       -1.32361411693859
C           50.26308973421479       -0.26325787511009       -1.13781645540589
C           50.92547694437147       -0.02276796838237        0.08051364337411
C           50.29847190343458        0.19245802944864        1.32405661469981
C           50.93887773912389        0.42125324542883        2.56818668438517
C           49.96502057828070        0.57488314983271        3.51903304308632
C           48.70683974858646        0.44477074050709        2.87753229102880
N           48.95407590321940        0.21477195730462        1.55478708564297
C           47.44017393181470        0.53814377662579        3.48307377786029
C           47.42722514028445        0.77935449985210        4.87509410016509
C           47.41627409143345        0.98696778530957        6.07070483576064
C           47.39265383827551        1.22775066873702        7.46336016550681
C           46.18262610606783        1.33685365310662        8.15885797707266
C           46.21195959339142        1.57636532269081        9.52102931771199
N           47.34131179460972        1.70999260435864       10.21195800199100
C           48.49566606250463        1.60780924962951        9.55811054280636
C           48.57594361080720        1.36971468417235        8.19760795151005
C           46.20400567876627        0.42045960793915        2.82855336437140
C           44.93001749800307        0.53972979900877        3.51045155980860
C           43.97788057398044        0.38262721019246        2.56693214727159
C           44.67637723288317        0.16543491920050        1.31541847020163
N           46.01483840848802        0.19357172099630        1.50602170556349
H           42.93290136640675       -0.53033346281976       -2.53723121289212
H           44.83996840310905       -0.90999716975838       -4.38512575000716
H           46.69833741527795       -0.20172992540098       -0.66315570052110
H           49.69309702689092       -1.71176556773934       -7.38630417927731
H           49.63937807669551       -2.25443960167531       -9.81456189285396
H           45.53454423709132       -2.08315965548472       -9.92134586501836
H           45.40000869391571       -1.53409178728418       -7.49776596464767
H           50.12986499929115       -0.91211578354416       -4.37162850977237
H           52.03372024061684       -0.51119654340374       -2.50013666430930
H           52.00682066846220        0.46099800944773        2.70968238049364
H           50.09967542819167        0.76249529905293        4.57207265068119
H           48.24158244468812        0.08010560260262        0.84516198191837
H           45.24002789136760        1.23487959937978        7.63483478923409
H           45.28835064750798        1.66525493867790       10.08572426629788
H           49.39766296489398        1.72188312866189       10.15245287592020
H           49.53776299554329        1.29401757427066        7.70486524953288
H           44.80989251034594        0.72015766898834        4.56670057332306
H           42.90577730334302        0.40478904263319        2.67920643012606

          :  Hamiltonian                  GFN1-xTB          :
         :: total energy            -336.140929047168 Eh    ::
         :: gradient norm              0.000801287645 Eh/a0 ::
         :: HOMO-LUMO gap              0.933881679702 eV    ::
         :: SCC energy              -342.320859942660 Eh    ::
         :: repulsion energy           6.330182318520 Eh    ::

    * Orbital Energies and Occupations

         #    Occupation            Energy/Eh            Energy/eV
      -------------------------------------------------------------
         1        2.0000           -0.8143365             -22.1592
       ...           ...                  ...                  ...
       297        2.0000           -0.4208504             -11.4519
       298        2.0000           -0.4208227             -11.4512
       299        2.0000           -0.4207252             -11.4485
       300        2.0000           -0.4207126             -11.4482
       301        2.0000           -0.4183079             -11.3827
       302        2.0000           -0.4175146             -11.3612
       303        2.0000           -0.4152229             -11.2988
       304        2.0000           -0.4078439             -11.0980
       305        2.0000           -0.4068375             -11.0706
       306        2.0000           -0.4068045             -11.0697
       307        2.0000           -0.3913320             -10.6487
       308        2.0000           -0.3894984             -10.5988
       309        2.0000           -0.3865814             -10.5194 (HOMO)
       310                         -0.3522619              -9.5855 (LUMO)
       311                         -0.3485072              -9.4834
       312                         -0.3482036              -9.4751
       313                         -0.3465667              -9.4306
       314                         -0.3438189              -9.3558
       315                         -0.3423361              -9.3154
       316                         -0.3254575              -8.8562
       317                         -0.3185018              -8.6669
       318                         -0.3181990              -8.6586
       319                         -0.3031662              -8.2496
       320                         -0.3017016              -8.2097
       ...                                ...                  ...
       656                          1.5983610              43.4936
      -------------------------------------------------------------
                  HL-Gap            0.0343195 Eh            0.9339 eV

Wiberg/Mayer (AO) data.
largest (>0.10) Wiberg bond orders for each atom

     #   Z sym  total        # sym  WBO       # sym  WBO       # sym  WBO
 ---------------------------------------------------------------------------
     1   6 C    3.926 --    39 C    1.379     2 C    1.340    41 H    0.971
     2   6 C    3.895 --     1 C    1.340     3 C    1.236     6 N    1.165
     3   6 C    3.953 --     4 C    1.586     2 C    1.236    42 H    0.976
     4   6 C    3.958 --     3 C    1.586     5 C    1.246    43 H    0.975
     5   6 C    3.890 --     7 C    1.256     4 C    1.246     6 N    1.191
     6   7 N    3.472 --     5 C    1.191     2 C    1.165    44 H    0.874
     7   6 C    3.935 --    16 C    1.282     5 C    1.256     8 C    1.161
     8   6 C    3.958 --     9 C    2.624     7 C    1.161
     9   6 C    3.932 --     8 C    2.624    10 C    1.142
    10   6 C    3.987 --    11 C    1.350    15 C    1.350     9 C    1.142
    11   6 C    3.973 --    12 C    1.457    10 C    1.350    45 H    0.974
                            14 C    0.104
    12   6 C    3.973 --    11 C    1.457    13 N    1.407    46 H    0.972
                            15 C    0.104
    13   7 N    2.994 --    12 C    1.407    14 C    1.407
    14   6 C    3.972 --    15 C    1.457    13 N    1.407    47 H    0.972
                            11 C    0.104
    15   6 C    3.973 --    14 C    1.457    10 C    1.350    48 H    0.974
                            12 C    0.104
    16   6 C    3.903 --    19 N    1.310     7 C    1.282    17 C    1.129
    17   6 C    3.965 --    18 C    1.708    16 C    1.129    49 H    0.974
    18   6 C    3.964 --    17 C    1.708    20 C    1.129    50 H    0.974
    19   7 N    3.016 --    20 C    1.326    16 C    1.310
    20   6 C    3.896 --    19 N    1.326    21 C    1.264    18 C    1.129
    21   6 C    3.935 --    20 C    1.264    22 C    1.247   119 C    1.189
    22   6 C    3.878 --    23 C    1.255    21 C    1.247    26 N    1.184
    23   6 C    3.958 --    24 C    1.574    22 C    1.255    51 H    0.975
    24   6 C    3.955 --    23 C    1.574    25 C    1.253    52 H    0.975
    25   6 C    3.890 --    27 C    1.262    24 C    1.253    26 N    1.178
    26   7 N    3.475 --    22 C    1.184    25 C    1.178    53 H    0.873
    27   6 C    3.923 --    36 C    1.268    25 C    1.262    28 C    1.164
    28   6 C    3.958 --    29 C    2.620    27 C    1.164
    29   6 C    3.928 --    28 C    2.620    30 C    1.143
    30   6 C    3.987 --    35 C    1.349    31 C    1.349    29 C    1.143
    31   6 C    3.972 --    32 C    1.457    30 C    1.349    54 H    0.974
                            34 C    0.104
    32   6 C    3.973 --    31 C    1.457    33 N    1.407    55 H    0.972
                            35 C    0.104
    33   7 N    2.993 --    32 C    1.407    34 C    1.407
    34   6 C    3.972 --    35 C    1.457    33 N    1.407    56 H    0.972
                            31 C    0.104
    35   6 C    3.972 --    34 C    1.457    30 C    1.349    57 H    0.974
                            32 C    0.104
    36   6 C    3.919 --    40 N    1.344    27 C    1.268    37 C    1.121
    37   6 C    3.966 --    38 C    1.721    36 C    1.121    58 H    0.975
    38   6 C    3.967 --    37 C    1.721    39 C    1.117    59 H    0.976
    39   6 C    3.919 --     1 C    1.379    40 N    1.281    38 C    1.117
    40   7 N    3.009 --    36 C    1.344    39 C    1.281
    41   1 H    1.002 --     1 C    0.971
    42   1 H    0.997 --     3 C    0.976
    43   1 H    1.002 --     4 C    0.975
    44   1 H    0.986 --     6 N    0.874
    45   1 H    1.002 --    11 C    0.974
    46   1 H    1.013 --    12 C    0.972
    47   1 H    1.013 --    14 C    0.972
    48   1 H    1.002 --    15 C    0.974
    49   1 H    1.003 --    17 C    0.974
    50   1 H    1.002 --    18 C    0.974
    51   1 H    1.001 --    23 C    0.975
    52   1 H    1.002 --    24 C    0.975
    53   1 H    0.987 --    26 N    0.873
    54   1 H    1.002 --    31 C    0.974
    55   1 H    1.013 --    32 C    0.972
    56   1 H    1.013 --    34 C    0.972
    57   1 H    1.002 --    35 C    0.974
    58   1 H    1.003 --    37 C    0.975
    59   1 H    0.998 --    38 C    0.976
    60   6 C    3.926 --    98 C    1.379    61 C    1.340   100 H    0.971
    61   6 C    3.895 --    60 C    1.340    62 C    1.236    65 N    1.165
    62   6 C    3.953 --    63 C    1.586    61 C    1.236   101 H    0.977
    63   6 C    3.958 --    62 C    1.586    64 C    1.246   102 H    0.975
    64   6 C    3.890 --    66 C    1.256    63 C    1.246    65 N    1.191
    65   7 N    3.472 --    64 C    1.191    61 C    1.165   103 H    0.874
    66   6 C    3.935 --    75 C    1.283    64 C    1.256    67 C    1.161
    67   6 C    3.958 --    68 C    2.624    66 C    1.161
    68   6 C    3.932 --    67 C    2.624    69 C    1.142
    69   6 C    3.987 --    70 C    1.350    74 C    1.350    68 C    1.142
    70   6 C    3.973 --    71 C    1.457    69 C    1.350   104 H    0.974
                            73 C    0.104
    71   6 C    3.973 --    70 C    1.457    72 N    1.407   105 H    0.972
                            74 C    0.104
    72   7 N    2.994 --    71 C    1.407    73 C    1.407
    73   6 C    3.972 --    74 C    1.457    72 N    1.407   106 H    0.972
                            70 C    0.104
    74   6 C    3.973 --    73 C    1.457    69 C    1.350   107 H    0.974
                            71 C    0.104
    75   6 C    3.903 --    78 N    1.310    66 C    1.283    76 C    1.129
    76   6 C    3.965 --    77 C    1.708    75 C    1.129   108 H    0.974
    77   6 C    3.964 --    76 C    1.708    79 C    1.129   109 H    0.974
    78   7 N    3.016 --    79 C    1.326    75 C    1.310
    79   6 C    3.895 --    78 N    1.326    80 C    1.263    77 C    1.129
    80   6 C    3.934 --    79 C    1.263    81 C    1.247   134 C    1.190
    81   6 C    3.878 --    82 C    1.255    80 C    1.247    85 N    1.184
    82   6 C    3.958 --    83 C    1.574    81 C    1.255   110 H    0.975
    83   6 C    3.955 --    82 C    1.574    84 C    1.253   111 H    0.975
    84   6 C    3.890 --    86 C    1.262    83 C    1.253    85 N    1.178
    85   7 N    3.475 --    81 C    1.184    84 C    1.178   112 H    0.873
    86   6 C    3.923 --    95 C    1.268    84 C    1.262    87 C    1.164
    87   6 C    3.958 --    88 C    2.620    86 C    1.164
    88   6 C    3.927 --    87 C    2.620    89 C    1.143
    89   6 C    3.987 --    94 C    1.349    90 C    1.349    88 C    1.143
    90   6 C    3.972 --    91 C    1.457    89 C    1.349   113 H    0.974
                            93 C    0.103
    91   6 C    3.973 --    90 C    1.457    92 N    1.407   114 H    0.972
                            94 C    0.104
    92   7 N    2.993 --    91 C    1.407    93 C    1.407
    93   6 C    3.972 --    94 C    1.457    92 N    1.407   115 H    0.972
                            90 C    0.103
    94   6 C    3.972 --    93 C    1.457    89 C    1.349   116 H    0.974
                            91 C    0.104
    95   6 C    3.919 --    99 N    1.344    86 C    1.268    96 C    1.121
    96   6 C    3.966 --    97 C    1.721    95 C    1.121   117 H    0.975
    97   6 C    3.967 --    96 C    1.721    98 C    1.117   118 H    0.976
    98   6 C    3.919 --    60 C    1.379    99 N    1.281    97 C    1.117
    99   7 N    3.009 --    95 C    1.344    98 C    1.281
   100   1 H    1.002 --    60 C    0.971
   101   1 H    0.997 --    62 C    0.977
   102   1 H    1.002 --    63 C    0.975
   103   1 H    0.986 --    65 N    0.874
   104   1 H    1.002 --    70 C    0.974
   105   1 H    1.013 --    71 C    0.972
   106   1 H    1.013 --    73 C    0.972
   107   1 H    1.002 --    74 C    0.974
   108   1 H    1.003 --    76 C    0.974
   109   1 H    1.002 --    77 C    0.974
   110   1 H    1.001 --    82 C    0.975
   111   1 H    1.002 --    83 C    0.975
   112   1 H    0.987 --    85 N    0.873
   113   1 H    1.002 --    90 C    0.974
   114   1 H    1.013 --    91 C    0.972
   115   1 H    1.013 --    93 C    0.972
   116   1 H    1.002 --    94 C    0.974
   117   1 H    1.003 --    96 C    0.975
   118   1 H    0.998 --    97 C    0.976
   119   6 C    3.876 --   120 C    2.441    21 C    1.189   122 C    0.186
   120   6 C    3.933 --   119 C    2.441   121 C    1.342
   121   6 C    3.891 --   122 C    2.337   120 C    1.342   124 C    0.182
   122   6 C    3.924 --   121 C    2.337   123 C    1.368   119 C    0.186
   123   6 C    3.923 --   124 C    2.336   122 C    1.368   126 C    0.186
   124   6 C    3.892 --   123 C    2.336   125 C    1.343   121 C    0.182
   125   6 C    3.930 --   126 C    2.439   124 C    1.343
   126   6 C    3.877 --   125 C    2.439   135 C    1.192   123 C    0.186
   127   6 C    3.877 --   128 C    2.438   155 C    1.193   130 C    0.186
   128   6 C    3.930 --   127 C    2.438   129 C    1.344
   129   6 C    3.892 --   130 C    2.335   128 C    1.344   132 C    0.182
   130   6 C    3.923 --   129 C    2.335   131 C    1.369   127 C    0.186
   131   6 C    3.924 --   132 C    2.336   130 C    1.369   134 C    0.186
   132   6 C    3.891 --   131 C    2.336   133 C    1.343   129 C    0.182
   133   6 C    3.933 --   134 C    2.440   132 C    1.343
   134   6 C    3.876 --   133 C    2.440    80 C    1.190   131 C    0.186
   135   6 C    3.925 --   173 C    1.264   136 C    1.243   126 C    1.192
   136   6 C    3.879 --   137 C    1.259   135 C    1.243   140 N    1.184
   137   6 C    3.955 --   138 C    1.569   136 C    1.259   175 H    0.975
   138   6 C    3.955 --   137 C    1.569   139 C    1.258   176 H    0.975
   139   6 C    3.886 --   138 C    1.258   141 C    1.254   140 N    1.180
   140   7 N    3.473 --   136 C    1.184   139 C    1.180   177 H    0.874
   141   6 C    3.926 --   150 C    1.284   139 C    1.254   142 C    1.161
   142   6 C    3.958 --   143 C    2.623   141 C    1.161
   143   6 C    3.930 --   142 C    2.623   144 C    1.142
   144   6 C    3.987 --   149 C    1.350   145 C    1.350   143 C    1.142
   145   6 C    3.973 --   146 C    1.457   144 C    1.350   178 H    0.974
                           148 C    0.104
   146   6 C    3.972 --   145 C    1.457   147 N    1.407   179 H    0.972
                           149 C    0.104
   147   7 N    2.994 --   148 C    1.407   146 C    1.407
   148   6 C    3.973 --   149 C    1.457   147 N    1.407   180 H    0.972
                           145 C    0.104
   149   6 C    3.973 --   148 C    1.457   144 C    1.350   181 H    0.974
                           146 C    0.104
   150   6 C    3.904 --   153 N    1.309   141 C    1.284   151 C    1.129
   151   6 C    3.965 --   152 C    1.707   150 C    1.129   182 H    0.974
   152   6 C    3.964 --   151 C    1.707   154 C    1.130   183 H    0.974
   153   7 N    3.007 --   154 C    1.325   150 C    1.309
   154   6 C    3.896 --   153 N    1.325   155 C    1.263   152 C    1.130
   155   6 C    3.925 --   154 C    1.263   156 C    1.243   127 C    1.193
   156   6 C    3.879 --   157 C    1.259   155 C    1.243   160 N    1.184
   157   6 C    3.955 --   158 C    1.569   156 C    1.259   184 H    0.975
   158   6 C    3.955 --   157 C    1.569   159 C    1.258   185 H    0.975
   159   6 C    3.886 --   158 C    1.258   161 C    1.254   160 N    1.180
   160   7 N    3.473 --   156 C    1.184   159 C    1.180   186 H    0.874
   161   6 C    3.926 --   170 C    1.283   159 C    1.254   162 C    1.161
   162   6 C    3.958 --   163 C    2.623   161 C    1.161
   163   6 C    3.930 --   162 C    2.623   164 C    1.142
   164   6 C    3.987 --   169 C    1.350   165 C    1.350   163 C    1.142
   165   6 C    3.973 --   166 C    1.457   164 C    1.350   187 H    0.974
                           168 C    0.104
   166   6 C    3.972 --   165 C    1.457   167 N    1.407   188 H    0.972
                           169 C    0.104
   167   7 N    2.994 --   168 C    1.407   166 C    1.407
   168   6 C    3.973 --   169 C    1.457   167 N    1.407   189 H    0.972
                           165 C    0.104
   169   6 C    3.973 --   168 C    1.457   164 C    1.350   190 H    0.974
                           166 C    0.104
   170   6 C    3.904 --   174 N    1.310   161 C    1.283   171 C    1.129
   171   6 C    3.965 --   172 C    1.707   170 C    1.129   191 H    0.974
   172   6 C    3.964 --   171 C    1.707   173 C    1.130   192 H    0.974
   173   6 C    3.896 --   174 N    1.324   135 C    1.264   172 C    1.130
   174   7 N    3.007 --   173 C    1.324   170 C    1.310
   175   1 H    1.001 --   137 C    0.975
   176   1 H    1.002 --   138 C    0.975
   177   1 H    0.987 --   140 N    0.874
   178   1 H    1.002 --   145 C    0.974
   179   1 H    1.013 --   146 C    0.972
   180   1 H    1.013 --   148 C    0.972
   181   1 H    1.002 --   149 C    0.974
   182   1 H    1.003 --   151 C    0.974
   183   1 H    1.002 --   152 C    0.974
   184   1 H    1.001 --   157 C    0.975
   185   1 H    1.002 --   158 C    0.975
   186   1 H    0.987 --   160 N    0.874
   187   1 H    1.002 --   165 C    0.974
   188   1 H    1.013 --   166 C    0.972
   189   1 H    1.013 --   168 C    0.972
   190   1 H    1.002 --   169 C    0.974
   191   1 H    1.003 --   171 C    0.974
   192   1 H    1.002 --   172 C    0.974
 ---------------------------------------------------------------------------

           -------------------------------------------------
          | TOTAL ENERGY             -336.140929047168 Eh   |
          | GRADIENT NORM               0.000801287645 Eh/α |
          | HOMO-LUMO GAP               0.933881679702 eV   |
           -------------------------------------------------

 * finished run on 2022/07/29 at 05:54:40.544
