   * xtb version 6.5.1 (b24c23e) compiled by 'conda@728c89f4b128' on 2022-07-12
          program call               : xtb Ph3Me_C6_2.xyz --gfn 1 --opt -T 48

   ID    Z sym.   atoms
    1    6 C      1-5, 7-19, 21-26, 28-41, 76-80, 82-94, 96-101, 103-116,
                  151-156
    2    7 N      6, 20, 27, 42, 81, 95, 102, 117
    3    1 H      43-75, 118-150
########################################################################
[WARNING] Please study the warnings concerning your input carefully
-1- prog_main_parseArguments: Unknown option '-T' provided
########################################################################

          :  Hamiltonian                  GFN1-xTB          :
 * total energy  :  -233.9904345 Eh     change       -0.2991669E-09 Eh
 * total energy  :  -234.2424822 Eh     change       -0.2520477E+00 Eh
 * total energy  :  -234.3196740 Eh     change       -0.7719174E-01 Eh
 * total energy  :  -234.3457719 Eh     change       -0.2609796E-01 Eh
 * total energy  :  -234.3551373 Eh     change       -0.9365380E-02 Eh
 * total energy  :  -234.3605129 Eh     change       -0.5375566E-02 Eh
 * total energy  :  -234.3630282 Eh     change       -0.2515341E-02 Eh
 * total energy  :  -234.3646939 Eh     change       -0.1665645E-02 Eh
 * total energy  :  -234.3660065 Eh     change       -0.1312598E-02 Eh
 * total energy  :  -234.3669338 Eh     change       -0.9273520E-03 Eh
 * total energy  :  -234.3696938 Eh     change       -0.2913284E-04 Eh
 * total energy  :  -234.3697122 Eh     change       -0.1837843E-04 Eh
 * total energy  :  -234.3697242 Eh     change       -0.1192964E-04 Eh
 * total energy  :  -234.3697348 Eh     change       -0.1061983E-04 Eh
 * total energy  :  -234.3697463 Eh     change       -0.1148909E-04 Eh
 * total energy  :  -234.3697594 Eh     change       -0.1312761E-04 Eh
 * total energy  :  -234.3697735 Eh     change       -0.1412559E-04 Eh
 * total energy  :  -234.3697871 Eh     change       -0.1358213E-04 Eh
 * total energy  :  -234.3697919 Eh     change       -0.4819151E-05 Eh
   *** GEOMETRY OPTIMIZATION CONVERGED AFTER 44 ITERATIONS ***

 final structure:
================
156
 xtb: 6.5.1 (b24c23e)
C           11.94733915269143       -0.14400999127976       -0.04363712429959
C           12.56966740504840       -1.38471425334990       -0.09526949358683
C           11.94238904109018       -2.66058805603365       -0.16841001439923
C           12.92413229562599       -3.61081328904231       -0.20197691369475
C           14.18237500918256       -2.94536101297957       -0.15016088307233
N           13.91785652978218       -1.60668764971854       -0.08611037589673
C           15.44947430077380       -3.53310617587303       -0.16112724327017
C           15.48585639631627       -5.02316940812597       -0.24258298703864
C           15.49688240107555       -5.65210667442896       -1.49074764169578
C           15.47764717562121       -4.82638833726553       -2.74954809172014
C           15.52569153429158       -7.04030751153424       -1.55630051825711
C           15.54536198753140       -7.81012325803695       -0.39804624667038
C           15.55522069880433       -9.31270566748442       -0.48069344208727
C           15.53612497725881       -7.17342782561506        0.83884956005817
C           15.50723992555590       -5.78671676719311        0.92805338205904
C           15.50393504363971       -5.10493773401766        2.27035430718363
C           16.66414366305133       -2.85155305468054       -0.10650152411157
C           17.95469110897441       -3.51652929831432       -0.12063747898191
C           18.88656686597189       -2.54264304287876       -0.05654863701370
N           16.83299350505034       -1.50200781796158       -0.03593475118046
C           18.16308935464157       -1.28661049854863       -0.00528646940212
C           18.80537159658194       -0.03257402550444        0.06325695991822
C           18.15667510270839        1.21617239307299        0.11166731034371
C           18.77788026776308        2.49161684791231        0.18037012745138
C           17.79210826337000        3.43921625044156        0.21202215222345
C           16.53816073643746        2.76898049928611        0.16304285901667
N           16.81060610233896        1.42755813769339        0.10325884451967
C           15.27232314389543        3.35742319974238        0.17355779665567
C           15.23062861265098        4.84769725289864        0.24140596584654
C           15.24817544227795        5.59979656578859       -0.93670554392624
C           15.31673254614375        4.90589487155520       -2.27105481305500
C           15.20408139197152        6.98705890987530       -0.86269113094961
C           15.14356856361673        7.63567204093598        0.36637045010955
C           15.07336717563968        9.13743427892656        0.43273649212395
C           15.12651511000300        6.87723967781538        1.53232477077217
C           15.16976727940493        5.48885677435882        1.48198961364968
C           15.15144995185462        4.67544246532256        2.74874574560592
C           14.05651416836453        2.67302400400188        0.12387863714214
C           12.75947690310450        3.33144375380209        0.13485377653804
C           11.83402267569965        2.35255164728329        0.07429861968098
C           12.56539145884821        1.09826411411783        0.02602024252930
N           13.90063035732595        1.32934625804497        0.05778780288715
H           10.86245454959327       -0.15569829664521       -0.06094364763875
H           10.87557249956464       -2.81652899976342       -0.19173132319898
H           12.80030795084260       -4.68048856054472       -0.25666061984849
H           14.62453277049179       -0.88050987925052       -0.04002004055728
H           14.54323223127554       -4.26582019465615       -2.81994772281674
H           15.57104202199083       -5.45921905792579       -3.63161398817541
H           16.29851658894746       -4.10718290894331       -2.74464767469144
H           15.53531868401960       -7.52812640371724       -2.52554938230757
H           14.53093501931668       -9.69245472652819       -0.46210524472698
H           16.02465792352185       -9.64825837258180       -1.40567243468159
H           16.09162002477922       -9.74455546600052        0.36462284133200
H           15.55365741461863       -7.76610963770648        1.74765394172854
H           14.61963857997457       -4.47326453383610        2.37368345237712
H           15.50793632393783       -5.83591011991135        3.07834779092339
H           16.38356729401886       -4.46644609944053        2.37191949135310
H           18.09850400568557       -4.58383761561319       -0.17340623529671
H           19.96067059756454       -2.63729324329925       -0.04490707021317
H           19.84382702666355        2.65185012314569        0.20221645629401
H           17.91253056860820        4.50919775421479        0.26523295701748
H           16.10653083989763        0.69841080666996        0.05919327113421
H           15.25207967829607        5.62467561579715       -3.08736864232079
H           16.25585543574741        4.35663593403640       -2.36360246228740
H           14.49990232743690        4.18872827550777       -2.36892346685887
H           15.21749166825737        7.57049581580579       -1.77752926951309
H           15.52404461855343        9.50734335622426        1.35399260105759
H           14.03023785340744        9.46163979905155        0.41107604790206
H           15.58593796015375        9.58840173763597       -0.41731388808741
H           15.07945566663333        7.37463619050777        2.49559775707856
H           15.09617206201920        5.32074355078199        3.62495077026758
H           14.29186410042525        4.00265064855714        2.75455880057026
H           16.05351727020577        4.06471923228308        2.82034689088410
H           12.61014072449810        4.39844932623982        0.18199474137959
H           10.75866886427278        2.43842579738405        0.06135255819488
C           34.83655505180125        0.14169030301314       -0.05489756018840
C           34.21414767755272        1.37815657836778       -0.16923705673121
C           34.84128643388444        2.64856627431110       -0.30869262560152
C           33.85947613366978        3.59592200820056       -0.38910035545915
C           32.60135154450243        2.93407589623649       -0.30116746744238
N           32.86598320622231        1.60041398446878       -0.16921545421098
C           31.33414799164408        3.52044854859109       -0.33995530500170
C           31.29736770052097        5.00446924162432       -0.49675715610600
C           31.28547362594616        5.56961752862261       -1.77505414634951
C           31.30436700014959        4.68145909586219       -2.99060780629080
C           31.25615838337432        6.95273903687773       -1.91057069298371
C           31.23695847183249        7.78004821976996       -0.79265117391600
C           31.22655378847824        9.27654619038620       -0.95099824035840
C           31.24729978713698        7.20659737788950        0.47479657364313
C           31.27664749324552        5.82616522116398        0.63385605829582
C           31.28154079028826        5.21306459717771        2.00887929197413
C           30.11981103869259        2.84228379015456       -0.24856774217190
C           28.82898210722203        3.50522869788926       -0.29478241802071
C           27.89761083321152        2.53551766086426       -0.18015705082008
N           29.95160889597062        1.49803806878167       -0.10849401730701
C           28.62169503188222        1.28401612446488       -0.06521545943627
C           27.97934284862828        0.03512480339565        0.06739901874516
C           28.62779312753798       -1.20975751053498        0.17796720252286
C           28.00687992931180       -2.48027423623475        0.31067812299054
C           28.99286855385202       -3.42494653816812        0.38894788106996
C           30.24665290918349       -2.75781158342408        0.30559750931255
N           29.97391934950653       -1.42109563116138        0.17918395795846
C           31.51262917327418       -3.34476427984153        0.34464685677985
C           31.55458922665716       -4.82965179902022        0.48828650351157
C           31.53549848433484       -5.64109597042628       -0.64973606461922
C           31.46485876090010       -5.01649061435951       -2.01778678470757
C           31.57980300400301       -7.02275464269242       -0.50482652815468
C           31.64195647856573       -7.60759625599695        0.75575229419213
C           31.71229723909083       -9.10399050473501        0.89887340029018
C           31.66030782372022       -6.79045806057277        1.88131967558310
C           31.61685977966503       -5.40648012639862        1.76000070431771
C           31.63601142405603       -4.52927883953198        2.98343766684698
C           32.72820623723718       -2.66347855831972        0.25921521917449
C           34.02544913362925       -3.32015864892880        0.30252318108657
C           34.95055193388781       -2.34541942060405        0.19104262150364
C           34.21877267609995       -1.09541738756218        0.07930158892980
N           32.88363825583337       -1.32487860669970        0.12442594650413
H           35.92141719208801        0.15246707450132       -0.07430311117934
H           35.90805545993420        2.80304611646695       -0.34186911780619
H           33.98318938783927        4.66139291247888       -0.49863914494068
H           32.15932233500179        0.87766722211453       -0.08477180021497
H           32.23862368682867        4.11780061069665       -3.03267970849800
H           31.21112972928090        5.26904450856628       -3.90345249618808
H           30.48329584636567        3.96364798295230       -2.94943791900432
H           31.24577649598711        7.39100670806846       -2.90320274107007
H           32.25072895327921        9.65704732456267       -0.95225704721257
H           30.75641477644227        9.56488740490343       -1.89141393992709
H           30.69056236169799        9.75033309770586       -0.12818617509845
H           31.23030928518317        7.84439297672954        1.35254212807743
H           32.16640995932608        4.58804256325443        2.14316916690374
H           31.27771266746171        5.98391279387878        2.77892582870881
H           30.40248593255364        4.57989577665198        2.14336646985678
H           28.68466794353381        4.56838002067758       -0.40199574807590
H           26.82346624419115        2.63011976137666       -0.17208873742538
H           26.94100108878522       -2.63948692323682        0.34130622783138
H           28.87268225040737       -4.49096747610165        0.49550508777760
H           30.67784500454492       -0.69499243724703        0.09801998537518
H           31.52678768105530       -5.77631203809143       -2.79626550872347
H           30.52621770197109       -4.47143888791277       -2.13637321680225
H           32.28235875231541       -4.30640506640162       -2.15411720079581
H           31.56517195374837       -7.65227857937004       -1.38856528622161
H           31.26314300207344       -9.42615725619612        1.83862220359143
H           32.75538815163451       -9.42897097015106        0.89213634888702
H           31.19831992963196       -9.59789734366435        0.07390607341062
H           31.70849049282795       -7.23786706579010        2.86874925915086
H           31.69334635070367       -5.12881333979954        3.89144228495608
H           32.49466845099892       -3.85594959316488        2.95355675229829
H           30.73319296110040       -3.91686551038035        3.02498791037299
H           34.17515052086789       -4.38331684624568        0.40405420236560
H           36.02592026409663       -2.43155326559047        0.18142962324739
C           24.00676272301913       -0.00426364451882        0.11008934298906
C           22.77800994293255       -0.00007899499256        0.11231821124997
C           21.43396071170753       -0.00666207422836        0.09934993269040
C           20.20976629895851       -0.01427180601748        0.08398105360632
C           25.35086968517394        0.00379010852901        0.10873740224539
C           26.57490212055414        0.01839868155253        0.08601088602433

          :  Hamiltonian                  GFN1-xTB          :
         :: total energy            -234.369791918538 Eh    ::
         :: gradient norm              0.000952650507 Eh/a0 ::
         :: HOMO-LUMO gap              1.003674840434 eV    ::
         :: SCC energy              -238.279443822642 Eh    ::
         :: repulsion energy           4.041845619142 Eh    ::

    * Orbital Energies and Occupations

         #    Occupation            Energy/Eh            Energy/eV
      -------------------------------------------------------------
         1        2.0000           -0.8019969             -21.8234
       ...           ...                  ...                  ...
       205        2.0000           -0.4195860             -11.4175
       206        2.0000           -0.4185902             -11.3904
       207        2.0000           -0.4185753             -11.3900
       208        2.0000           -0.4146156             -11.2823
       209        2.0000           -0.4142847             -11.2733
       210        2.0000           -0.4140046             -11.2656
       211        2.0000           -0.4135874             -11.2543
       212        2.0000           -0.4131417             -11.2422
       213        2.0000           -0.4107167             -11.1762
       214        2.0000           -0.3968843             -10.7998
       215        2.0000           -0.3965848             -10.7916
       216        2.0000           -0.3852538             -10.4833
       217        2.0000           -0.3758426             -10.2272 (HOMO)
       218                         -0.3389583              -9.2235 (LUMO)
       219                         -0.3280429              -8.9265
       220                         -0.3271642              -8.9026
       221                         -0.3270442              -8.8993
       222                         -0.2974593              -8.0943
       223                         -0.2895660              -7.8795
       224                         -0.2824108              -7.6848
       225                         -0.2592624              -7.0549
       226                         -0.2555195              -6.9530
       227                         -0.2555155              -6.9529
       228                         -0.2554774              -6.9519
       ...                                ...                  ...
       492                          1.5804841              43.0072
      -------------------------------------------------------------
                  HL-Gap            0.0368844 Eh            1.0037 eV

Wiberg/Mayer (AO) data.
largest (>0.10) Wiberg bond orders for each atom

     #   Z sym  total        # sym  WBO       # sym  WBO       # sym  WBO
 ---------------------------------------------------------------------------
     1   6 C    3.924 --    41 C    1.364     2 C    1.347    43 H    0.971
     2   6 C    3.903 --     1 C    1.347     3 C    1.229     6 N    1.170
     3   6 C    3.953 --     4 C    1.596     2 C    1.229    44 H    0.977
     4   6 C    3.959 --     3 C    1.596     5 C    1.232    45 H    0.975
     5   6 C    3.895 --     7 C    1.309     4 C    1.232     6 N    1.173
     6   7 N    3.468 --     5 C    1.173     2 C    1.170    46 H    0.874
     7   6 C    3.940 --    17 C    1.344     5 C    1.309     8 C    1.003
     8   6 C    3.987 --     9 C    1.382    15 C    1.381     7 C    1.003
                            12 C    0.104
     9   6 C    3.984 --    11 C    1.420     8 C    1.382    10 C    1.020
                            14 C    0.103
    10   6 C    3.996 --     9 C    1.020    48 H    0.986    49 H    0.975
                            47 H    0.973
    11   6 C    3.993 --     9 C    1.420    12 C    1.415    50 H    0.970
                            15 C    0.103
    12   6 C    3.988 --    11 C    1.415    14 C    1.413    13 C    1.020
                             8 C    0.104
    13   6 C    3.996 --    12 C    1.020    52 H    0.983    53 H    0.982
                            51 H    0.971
    14   6 C    3.993 --    15 C    1.421    12 C    1.413    54 H    0.970
                             9 C    0.103
    15   6 C    3.984 --    14 C    1.421     8 C    1.381    16 C    1.020
                            11 C    0.103
    16   6 C    3.996 --    15 C    1.020    56 H    0.986    55 H    0.975
                            57 H    0.973
    17   6 C    3.915 --     7 C    1.344    20 N    1.280    18 C    1.124
    18   6 C    3.966 --    19 C    1.710    17 C    1.124    58 H    0.975
    19   6 C    3.964 --    18 C    1.710    21 C    1.129    59 H    0.974
    20   7 N    3.023 --    21 C    1.349    17 C    1.280
    21   6 C    3.909 --    20 N    1.349    22 C    1.250    19 C    1.129
    22   6 C    3.937 --    23 C    1.251    21 C    1.250   154 C    1.194
    23   6 C    3.885 --    22 C    1.251    24 C    1.249    27 N    1.191
    24   6 C    3.959 --    25 C    1.584    23 C    1.249    60 H    0.975
    25   6 C    3.955 --    24 C    1.584    26 C    1.238    61 H    0.975
    26   6 C    3.898 --    28 C    1.317    25 C    1.238    27 N    1.161
    27   7 N    3.473 --    23 C    1.191    26 C    1.161    62 H    0.873
    28   6 C    3.925 --    38 C    1.328    26 C    1.317    29 C    1.003
    29   6 C    3.987 --    36 C    1.381    30 C    1.381    28 C    1.003
                            33 C    0.104
    30   6 C    3.984 --    32 C    1.421    29 C    1.381    31 C    1.020
                            35 C    0.103
    31   6 C    3.996 --    30 C    1.020    63 H    0.986    65 H    0.975
                            64 H    0.973
    32   6 C    3.993 --    30 C    1.421    33 C    1.414    66 H    0.970
                            36 C    0.103
    33   6 C    3.988 --    35 C    1.414    32 C    1.414    34 C    1.020
                            29 C    0.104
    34   6 C    3.996 --    33 C    1.020    67 H    0.983    69 H    0.983
                            68 H    0.971
    35   6 C    3.993 --    36 C    1.420    33 C    1.414    70 H    0.970
                            30 C    0.103
    36   6 C    3.984 --    35 C    1.420    29 C    1.381    37 C    1.020
                            32 C    0.103
    37   6 C    3.996 --    36 C    1.020    71 H    0.986    73 H    0.974
                            72 H    0.974
    38   6 C    3.929 --    28 C    1.328    42 N    1.312    39 C    1.117
    39   6 C    3.967 --    40 C    1.723    38 C    1.117    74 H    0.975
    40   6 C    3.966 --    39 C    1.723    41 C    1.117    75 H    0.976
    41   6 C    3.930 --     1 C    1.364    42 N    1.303    40 C    1.117
    42   7 N    3.012 --    38 C    1.312    41 C    1.303
    43   1 H    1.002 --     1 C    0.971
    44   1 H    0.998 --     3 C    0.977
    45   1 H    1.002 --     4 C    0.975
    46   1 H    0.987 --     6 N    0.874
    47   1 H    1.008 --    10 C    0.973
    48   1 H    1.004 --    10 C    0.986
    49   1 H    1.008 --    10 C    0.975
    50   1 H    1.000 --    11 C    0.970
    51   1 H    1.006 --    13 C    0.971
    52   1 H    1.004 --    13 C    0.983
    53   1 H    1.004 --    13 C    0.982
    54   1 H    1.000 --    14 C    0.970
    55   1 H    1.008 --    16 C    0.975
    56   1 H    1.004 --    16 C    0.986
    57   1 H    1.008 --    16 C    0.973
    58   1 H    1.002 --    18 C    0.975
    59   1 H    1.003 --    19 C    0.974
    60   1 H    1.002 --    24 C    0.975
    61   1 H    1.002 --    25 C    0.975
    62   1 H    0.988 --    27 N    0.873
    63   1 H    1.004 --    31 C    0.986
    64   1 H    1.008 --    31 C    0.973
    65   1 H    1.007 --    31 C    0.975
    66   1 H    1.000 --    32 C    0.970
    67   1 H    1.004 --    34 C    0.983
    68   1 H    1.006 --    34 C    0.971
    69   1 H    1.004 --    34 C    0.983
    70   1 H    1.000 --    35 C    0.970
    71   1 H    1.004 --    37 C    0.986
    72   1 H    1.008 --    37 C    0.974
    73   1 H    1.008 --    37 C    0.974
    74   1 H    1.002 --    39 C    0.975
    75   1 H    0.998 --    40 C    0.976
    76   6 C    3.924 --   116 C    1.364    77 C    1.347   118 H    0.971
    77   6 C    3.903 --    76 C    1.347    78 C    1.229    81 N    1.170
    78   6 C    3.953 --    79 C    1.596    77 C    1.229   119 H    0.977
    79   6 C    3.959 --    78 C    1.596    80 C    1.232   120 H    0.975
    80   6 C    3.895 --    82 C    1.308    79 C    1.232    81 N    1.173
    81   7 N    3.468 --    80 C    1.173    77 C    1.170   121 H    0.874
    82   6 C    3.940 --    92 C    1.344    80 C    1.308    83 C    1.003
    83   6 C    3.987 --    84 C    1.382    90 C    1.381    82 C    1.003
                            87 C    0.104
    84   6 C    3.984 --    86 C    1.420    83 C    1.382    85 C    1.020
                            89 C    0.103
    85   6 C    3.996 --    84 C    1.020   123 H    0.986   124 H    0.975
                           122 H    0.973
    86   6 C    3.993 --    84 C    1.420    87 C    1.415   125 H    0.970
                            90 C    0.103
    87   6 C    3.988 --    86 C    1.415    89 C    1.413    88 C    1.020
                            83 C    0.104
    88   6 C    3.996 --    87 C    1.020   127 H    0.983   128 H    0.982
                           126 H    0.971
    89   6 C    3.993 --    90 C    1.421    87 C    1.413   129 H    0.970
                            84 C    0.103
    90   6 C    3.984 --    89 C    1.421    83 C    1.381    91 C    1.020
                            86 C    0.103
    91   6 C    3.996 --    90 C    1.020   131 H    0.986   130 H    0.975
                           132 H    0.973
    92   6 C    3.915 --    82 C    1.344    95 N    1.279    93 C    1.124
    93   6 C    3.966 --    94 C    1.710    92 C    1.124   133 H    0.975
    94   6 C    3.964 --    93 C    1.710    96 C    1.129   134 H    0.974
    95   7 N    3.023 --    96 C    1.349    92 C    1.279
    96   6 C    3.909 --    95 N    1.349    97 C    1.250    94 C    1.129
    97   6 C    3.937 --    98 C    1.251    96 C    1.250   156 C    1.194
    98   6 C    3.885 --    97 C    1.251    99 C    1.249   102 N    1.191
    99   6 C    3.959 --   100 C    1.584    98 C    1.249   135 H    0.975
   100   6 C    3.955 --    99 C    1.584   101 C    1.238   136 H    0.975
   101   6 C    3.898 --   103 C    1.317   100 C    1.238   102 N    1.161
   102   7 N    3.473 --    98 C    1.191   101 C    1.161   137 H    0.873
   103   6 C    3.925 --   113 C    1.328   101 C    1.317   104 C    1.003
   104   6 C    3.987 --   105 C    1.381   111 C    1.381   103 C    1.003
                           108 C    0.104
   105   6 C    3.984 --   107 C    1.420   104 C    1.381   106 C    1.020
                           110 C    0.103
   106   6 C    3.996 --   105 C    1.020   138 H    0.986   140 H    0.975
                           139 H    0.973
   107   6 C    3.993 --   105 C    1.420   108 C    1.414   141 H    0.970
                           111 C    0.103
   108   6 C    3.988 --   110 C    1.414   107 C    1.414   109 C    1.020
                           104 C    0.104
   109   6 C    3.996 --   108 C    1.020   142 H    0.983   144 H    0.983
                           143 H    0.971
   110   6 C    3.993 --   111 C    1.420   108 C    1.414   145 H    0.970
                           105 C    0.103
   111   6 C    3.984 --   110 C    1.420   104 C    1.381   112 C    1.020
                           107 C    0.103
   112   6 C    3.996 --   111 C    1.020   146 H    0.986   148 H    0.974
                           147 H    0.974
   113   6 C    3.929 --   103 C    1.328   117 N    1.312   114 C    1.117
   114   6 C    3.967 --   115 C    1.723   113 C    1.117   149 H    0.975
   115   6 C    3.966 --   114 C    1.723   116 C    1.117   150 H    0.976
   116   6 C    3.930 --    76 C    1.364   117 N    1.303   115 C    1.117
   117   7 N    3.012 --   113 C    1.312   116 C    1.303
   118   1 H    1.002 --    76 C    0.971
   119   1 H    0.998 --    78 C    0.977
   120   1 H    1.002 --    79 C    0.975
   121   1 H    0.987 --    81 N    0.874
   122   1 H    1.008 --    85 C    0.973
   123   1 H    1.004 --    85 C    0.986
   124   1 H    1.008 --    85 C    0.975
   125   1 H    1.000 --    86 C    0.970
   126   1 H    1.006 --    88 C    0.971
   127   1 H    1.004 --    88 C    0.983
   128   1 H    1.004 --    88 C    0.982
   129   1 H    1.000 --    89 C    0.970
   130   1 H    1.008 --    91 C    0.975
   131   1 H    1.004 --    91 C    0.986
   132   1 H    1.008 --    91 C    0.973
   133   1 H    1.002 --    93 C    0.975
   134   1 H    1.003 --    94 C    0.974
   135   1 H    1.002 --    99 C    0.975
   136   1 H    1.002 --   100 C    0.975
   137   1 H    0.988 --   102 N    0.873
   138   1 H    1.004 --   106 C    0.986
   139   1 H    1.008 --   106 C    0.973
   140   1 H    1.007 --   106 C    0.975
   141   1 H    1.000 --   107 C    0.970
   142   1 H    1.004 --   109 C    0.983
   143   1 H    1.006 --   109 C    0.971
   144   1 H    1.004 --   109 C    0.983
   145   1 H    1.000 --   110 C    0.970
   146   1 H    1.004 --   112 C    0.986
   147   1 H    1.008 --   112 C    0.974
   148   1 H    1.008 --   112 C    0.974
   149   1 H    1.002 --   114 C    0.975
   150   1 H    0.998 --   115 C    0.976
   151   6 C    3.925 --   152 C    2.365   155 C    1.337   154 C    0.190
   152   6 C    3.924 --   151 C    2.365   153 C    1.337   156 C    0.190
   153   6 C    3.931 --   154 C    2.445   152 C    1.337
   154   6 C    3.890 --   153 C    2.445    22 C    1.194   151 C    0.190
   155   6 C    3.931 --   156 C    2.445   151 C    1.337
   156   6 C    3.890 --   155 C    2.445    97 C    1.194   152 C    0.190
 ---------------------------------------------------------------------------

           -------------------------------------------------
          | TOTAL ENERGY             -234.369791918538 Eh   |
          | GRADIENT NORM               0.000952650507 Eh/α |
          | HOMO-LUMO GAP               1.003674840434 eV   |
           -------------------------------------------------

 * finished run on 2022/07/29 at 00:13:50.268
