   * xtb version 6.5.1 (b24c23e) compiled by 'conda@728c89f4b128' on 2022-07-12
          program call               : xtb PhNH2_C6_3.xyz --gfn 1 --opt -T 48

   ID    Z sym.   atoms
    1    6 C      1-5, 7-11, 13-17, 19-24, 26-30, 32-37, 62-66, 68-72, 74-78,
                  80-85, 87-91, 93-98, 123-139, 141-145, 147-151, 153-158,
                  160-164, 166-171
    2    7 N      6, 12, 18, 25, 31, 38, 67, 73, 79, 86, 92, 99, 140, 146,
                  152, 159, 165, 172
    3    1 H      39-61, 100-122, 173-194

          :  Hamiltonian                  GFN1-xTB          :
 * total energy  :  -321.1122219 Eh     change       -0.7162782E-08 Eh
 * total energy  :  -321.5888330 Eh     change       -0.4766111E+00 Eh
 * total energy  :  -321.7348773 Eh     change       -0.1460443E+00 Eh
 * total energy  :  -321.8273756 Eh     change       -0.9249829E-01 Eh
 * total energy  :  -321.8960075 Eh     change       -0.6863194E-01 Eh
 * total energy  :  -321.9564277 Eh     change       -0.6042018E-01 Eh
 * total energy  :  -321.9897977 Eh     change       -0.3336994E-01 Eh
 * total energy  :  -322.0162451 Eh     change       -0.2644746E-01 Eh
 * total energy  :  -322.0366018 Eh     change       -0.2035672E-01 Eh
 * total energy  :  -322.0530653 Eh     change       -0.1646350E-01 Eh
 * total energy  :  -322.1414541 Eh     change       -0.8487283E-04 Eh
 * total energy  :  -322.1414873 Eh     change       -0.3326486E-04 Eh
 * total energy  :  -322.1415087 Eh     change       -0.2137830E-04 Eh
 * total energy  :  -322.1415257 Eh     change       -0.1704236E-04 Eh
 * total energy  :  -322.1415361 Eh     change       -0.1031226E-04 Eh
 * total energy  :  -322.1415487 Eh     change       -0.1267236E-04 Eh
 * total energy  :  -322.1415567 Eh     change       -0.7940068E-05 Eh
 * total energy  :  -322.1415626 Eh     change       -0.5914835E-05 Eh
 * total energy  :  -322.1415670 Eh     change       -0.4374244E-05 Eh
   *** GEOMETRY OPTIMIZATION CONVERGED AFTER 67 ITERATIONS ***

 final structure:
================
194
 xtb: 6.5.1 (b24c23e)
C           25.66182895599208       -0.11572036587878        0.05613602183965
C           26.27546882331906       -0.98640692774028        0.94785417961158
C           25.62805722100675       -1.90486384749692        1.82059019887755
C           26.59261292611136       -2.55731039320624        2.53642450281534
C           27.86004855493163       -2.04998955478957        2.13236037024961
N           27.61830235814319       -1.11540732729264        1.16547274965379
C           29.12391509679441       -2.42494504909861        2.60502301230629
C           29.16089892068411       -3.43144413617603        3.69163141224865
C           29.83732349546900       -4.64181274604271        3.51838900899296
C           29.87334860316741       -5.58578683514795        4.52894922758534
C           29.24194071074018       -5.33145773242561        5.74930780905850
N           29.24385060699830       -6.28858873201877        6.74899629112400
C           28.55843807536346       -4.12612148092193        5.92893568936907
C           28.51935927420999       -3.19150831499970        4.90939599787840
C           30.33494026927594       -1.91763682307285        2.12621976877666
C           31.63277706427404       -2.26299477297979        2.67693654611505
C           32.54878651017493       -1.58901228805988        1.95041972281558
N           30.48372295421743       -1.03105497281855        1.10311130020273
C           31.80881042660434       -0.82443602915809        0.96593403623327
C           32.44136865604894       -0.00346939220255        0.00951328939294
C           31.80166231026655        0.81566665374682       -0.94068226021906
C           32.44283061802022        1.62141801789148       -1.91801670235404
C           31.47382976380601        2.28090107945185       -2.62291310114835
C           30.21008550757287        1.90413177909103       -2.09051220178300
N           30.46025638354016        1.00814526358570       -1.08410171973551
C           28.94723326681062        2.33651631648636       -2.51184014751354
C           28.91195105463952        3.35599521911015       -3.58538347166496
C           28.24820185709326        3.10431777307698       -4.78897586145592
C           28.21457189060430        4.05494041650448       -5.79351930628744
C           28.83552293209882        5.29307682929722       -5.60908729573184
N           28.83664868219117        6.23185434654939       -6.62577482791406
C           29.50598728292840        5.55117855152059       -4.41067290947510
C           29.54296429054505        4.59122087925111       -3.41515317048293
C           27.73376721739476        1.87484173729307       -1.98818692202810
C           26.42670026814688        2.36913695822863       -2.39091804049740
C           25.51777462643986        1.67488408532673       -1.67617325310090
C           26.26868465158302        0.76883159321295       -0.82597759886991
N           27.59956101765197        0.92399149795993       -1.03336861408065
H           24.57646877629076       -0.13341195556472        0.05811750877909
H           24.56022290891062       -2.04418090220695        1.87866520889878
H           26.44464845399928       -3.33053303436467        3.27274200487975
H           28.34148248979903       -0.59768940902253        0.67737629593697
H           30.32209261274408       -4.85070566639856        2.57103688230162
H           30.39291972202934       -6.52580912464485        4.37844388356260
H           29.07468421604006       -5.93541212707738        7.67726179080637
H           29.99710230722244       -6.95583287983143        6.69836709934765
H           28.06353402765783       -3.92402410598858        6.87264876503843
H           28.00468753992028       -2.24954722171281        5.06530189068976
H           31.79937220617764       -2.91879402898886        3.51614919814291
H           33.62175725075878       -1.58486915661086        2.05772860675833
H           33.51003173607687        1.67843287856747       -2.06004297083110
H           31.61913313500491        2.95912183804747       -3.44785566606645
H           29.73908000887870        0.55185047702814       -0.53515230958713
H           27.77254393447957        2.14202655298564       -4.94471054375701
H           27.70513608512367        3.84313092568171       -6.72729481328273
H           28.09058998076460        6.13580867496652       -7.29590410924081
H           28.99853521046762        7.18083291212100       -6.32969820850252
H           29.99276828488079        6.50907697650380       -4.26245572874618
H           30.04786524466423        4.80822464899384       -2.48004539730484
H           26.25174006546634        3.15164381217703       -3.11177112373219
H           24.44189851076451        1.75454231258089       -1.69253752190554
C           64.41922851266592        0.03241426438533       -0.12379759941197
C           63.80088130811545        0.68910551580172       -1.18030205074712
C           64.44417401138409        1.33204510424343       -2.27443624518228
C           63.47569946921499        1.86414729198680       -3.07905682084503
C           62.20975450304897        1.57258375490108       -2.49656418316590
N           62.45648299910545        0.85341118466471       -1.36140899209684
C           60.94302828533452        1.92593959641173       -2.97818994757317
C           60.90121140329489        2.75166059747885       -4.20768877257186
C           60.23913178372224        2.29687669925521       -5.35100079241978
C           60.19725632893639        3.06607060149962       -6.50008286010445
C           60.80828583603945        4.32248001268835       -6.52597314933518
N           60.79999758502208        5.07907894996708       -7.68489244931336
C           61.47845398165286        4.78191793519733       -5.38932776992990
C           61.52334876426332        4.00208731169768       -4.24729688831598
C           59.73409712634346        1.55965664481578       -2.38043592704047
C           58.43173263887270        1.99019926116758       -2.85518683116289
C           57.52007833097745        1.43150634664322       -2.03193595468904
N           59.59174580747156        0.77581732873351       -1.27568948809460
C           58.26703145260014        0.67234441215776       -1.04842412212303
C           57.64046921588678       -0.05576775676228       -0.01573059689493
C           58.28542930995162       -0.76541562847507        1.01542147562514
C           57.64942537883410       -1.52111002341388        2.03518176290223
C           58.62215776245559       -2.04110364234654        2.84395960711900
C           59.88316249435058       -1.60970509053401        2.34764714601550
N           59.62752457482501       -0.85029728538070        1.23571927703192
C           61.14855508342298       -1.91004925487633        2.86521845902306
C           61.19081111332854       -2.71279924131783        4.10894721482054
C           61.86254137214652       -3.93760190247677        4.14596521802412
C           61.90266537326240       -4.69072694678872        5.30567888238555
C           61.27964511438464       -4.22511178872447        6.46662643304871
N           61.28423442119263       -4.99344201594145        7.61754991844362
C           60.60130705310659       -3.00388017566963        6.43715339730143
C           60.55853272107176       -2.26139716741527        5.27057003867525
C           62.35896841355373       -1.50383691848399        2.29078993654450
C           63.66822910206410       -1.76949958623867        2.86549256387528
C           64.57296466632816       -1.23113914625410        2.02252955012890
C           63.81728327355701       -0.62366972049785        0.94201958787600
N           62.48769798967789       -0.79921640022084        1.14158669596506
H           65.50458957008173        0.04161155183235       -0.13931938829147
H           65.51215486024421        1.36970773236076       -2.41948456883402
H           63.62009957360662        2.40212109539250       -4.00191252710114
H           61.73556453130340        0.49054290234060       -0.74669390803199
H           59.77027799283819        1.31901744305127       -5.34218435196876
H           59.68862465602044        2.69765806767632       -7.38428452424666
H           60.95329001805120        6.06571664963883       -7.55039762276525
H           60.05248540116629        4.86723970030111       -8.32634569002709
H           61.95807394495789        5.75459357580864       -5.40417424449912
H           62.02712586739987        4.37599399597240       -3.36249736030804
H           58.25893600923805        2.64477199170065       -3.69407119007965
H           56.44572361773329        1.51946657024063       -2.05975289325679
H           56.58299003763746       -1.65078184051986        2.12603602079249
H           58.48103155756412       -2.67862355791353        3.70144783475155
H           60.34589852256907       -0.42502458008988        0.65888356143892
H           62.33909399299374       -4.31188863566334        3.24644389720040
H           62.41804109462486       -5.64490688460111        5.31824958953497
H           62.03490079142216       -5.66236362533721        7.68112654950652
H           61.11798698872665       -4.48471042390717        8.47112925352768
H           60.11297694166836       -2.63830485712084        7.33409030152668
H           60.04788906241669       -1.30451494191583        5.26292566947400
H           63.84735111814289       -2.28463811522774        3.79560342231425
H           65.64879961457892       -1.22013143973293        2.10368677495522
C           37.64317911867960        0.03816062047310       -0.03556077760225
C           36.41450654386745        0.02965097702060       -0.02887139449989
C           35.07066076105119        0.02055973035299       -0.02007842966355
C           33.84651745892466        0.01056377632117       -0.00497032293912
C           38.98693237535728        0.04476311384335       -0.03509693460382
C           40.21136200572369        0.05217252380888       -0.03488226112904
C           53.66728475862809       -0.09261658522059        0.01033307906954
C           52.43855938997361       -0.08620481992239        0.00961433791570
C           51.09487925627445       -0.07176149036462        0.00661732023014
C           49.87058510378034       -0.05206620762617        0.00667156186595
C           55.01118647334510       -0.08930344858371        0.00744552231915
C           56.23536518959542       -0.07613225419119       -0.00005738279586
C           41.61565946187235        0.05491949211126       -0.02574357138693
C           42.23271165035113       -0.26048266148375        1.20076357496103
C           41.57298954668900       -0.60034080055270        2.40955981180496
C           42.52863995608804       -0.79873948656020        3.36888983570656
C           43.80009455483800       -0.57790434086328        2.77391186007715
N           43.57064561081258       -0.26732365919596        1.45990959435229
C           45.05295597612677       -0.67166468238692        3.39408709355485
C           45.05159876013889       -0.95576828471406        4.84863106342183
C           45.68458883825080       -2.09353053582449        5.35547855311685
C           45.68594357182717       -2.35899239186183        6.71315283666884
C           45.06351653581244       -1.47753241332910        7.60102327655746
N           45.03180097890588       -1.75812178714438        8.95582151371701
C           44.42236352606747       -0.34090108054857        7.10171633316467
C           44.41682217395158       -0.08845494133624        5.74145451831533
C           46.28316014096200       -0.51709742328113        2.75144408539568
C           47.56445107557358       -0.56569844651777        3.43187848559773
C           48.50885804503045       -0.39553432598117        2.48300495855663
N           46.46968009884846       -0.29390846553850        1.42095626435645
C           47.80255994455440       -0.22753135892958        1.22906731732984
C           48.46651287073733       -0.02532671432166        0.00198550405023
C           47.84915612146479        0.21232763177710       -1.24168364868513
C           48.50701269006883        0.38518574634859       -2.48637674336332
C           47.55145234399200        0.61395551094559       -3.43899324072546
C           46.28204408684694        0.59680872003829       -2.80034939081809
N           46.51239031668416        0.33855242838434       -1.47512189629919
C           45.02989958749603        0.79017217243155       -3.39844898257811
C           45.02940755754400        1.11366668194154       -4.84472671815265
C           45.68878573600222        2.24932043239419       -5.32183979149178
C           45.68325088734321        2.55940938166570       -6.67018189584530
C           45.01717844484325        1.73126316688121       -7.57734335536640
N           45.04903890183858        2.01193413910903       -8.93199599283028
C           44.36878900935672        0.58489861246070       -7.11027406810348
C           44.37052686356134        0.28788521155273       -5.75922669107443
C           43.80077087203336        0.69979035951516       -2.74131905931228
C           42.52231406583271        0.96731548243194       -3.37471854948887
C           41.57726165725985        0.75572383564598       -2.43478511422185
C           42.28064696893511        0.37388293581984       -1.22704019781101
N           43.61275965874359        0.36134016727211       -1.43576339430885
H           40.50408311484025       -0.68457612564836        2.52152392608285
H           42.36859966422472       -1.08524847407774        4.39543242638183
H           44.29834141043183       -0.07851252230553        0.77870970841021
H           46.16216408645619       -2.78699045565786        4.67204966953514
H           46.17154680276000       -3.25100743590255        7.09353796424861
H           45.76198973071467       -2.37143019715177        9.28094341501560
H           44.87346434865427       -0.96162996800893        9.55211515751677
H           43.93390161791405        0.34505419985881        7.78521895821356
H           43.93418468644454        0.80655555717011        5.36401183657694
H           47.70259609699843       -0.69670081064407        4.49290845828502
H           49.58087464546869       -0.37038447859067        2.59689032046373
H           49.57449222909979        0.33281873418984       -2.62767216349536
H           47.71025414089885        0.76846623118451       -4.49368935813845
H           45.78567349612010        0.24502009521320       -0.77345572691739
H           46.19117904546621        2.90837309005927       -4.62206681703733
H           46.19148895785196        3.44867625968279       -7.02684144222758
H           44.30657126223320        1.59590797285155       -9.47112009001681
H           45.23039020923000        2.97545735385855       -9.16365095591184
H           43.86311295322621       -0.06986520416091       -7.81152778173811
H           43.87272512331681       -0.60837840372346       -5.40571865118911
H           42.38691308206458        1.28809871528666       -4.39493294061735
H           40.50681961378432        0.85243845366998       -2.52228621191521

          :  Hamiltonian                  GFN1-xTB          :
         :: total energy            -322.141566959970 Eh    ::
         :: gradient norm              0.000665309404 Eh/a0 ::
         :: HOMO-LUMO gap              0.837195659272 eV    ::
         :: SCC energy              -327.620222054578 Eh    ::
         :: repulsion energy           5.639978903507 Eh    ::

    * Orbital Energies and Occupations

         #    Occupation            Energy/Eh            Energy/eV
      -------------------------------------------------------------
         1        2.0000           -0.7966994             -21.6793
       ...           ...                  ...                  ...
       283        2.0000           -0.4050730             -11.0226
       284        2.0000           -0.3988631             -10.8536
       285        2.0000           -0.3984286             -10.8418
       286        2.0000           -0.3979997             -10.8301
       287        2.0000           -0.3963577             -10.7854
       288        2.0000           -0.3963044             -10.7840
       289        2.0000           -0.3961038             -10.7785
       290        2.0000           -0.3909155             -10.6374
       291        2.0000           -0.3903075             -10.6208
       292        2.0000           -0.3902357             -10.6189
       293        2.0000           -0.3773950             -10.2694
       294        2.0000           -0.3729713             -10.1491
       295        2.0000           -0.3670328              -9.9875 (HOMO)
       296        0.0000           -0.3362664              -9.1503 (LUMO)
       297                         -0.3280385              -8.9264
       298                         -0.3229229              -8.7872
       299                         -0.3221358              -8.7658
       300                         -0.3220833              -8.7643
       301                         -0.3217409              -8.7550
       302                         -0.2979037              -8.1064
       303                         -0.2897704              -7.8851
       304                         -0.2874723              -7.8225
       305                         -0.2760061              -7.5105
       306                         -0.2749702              -7.4823
       ...                                ...                  ...
       640                          1.5861763              43.1621
      -------------------------------------------------------------
                  HL-Gap            0.0307664 Eh            0.8372 eV

Wiberg/Mayer (AO) data.
largest (>0.10) Wiberg bond orders for each atom

     #   Z sym  total        # sym  WBO       # sym  WBO       # sym  WBO
 ---------------------------------------------------------------------------
     1   6 C    3.922 --    37 C    1.366     2 C    1.345    39 H    0.971
     2   6 C    3.904 --     1 C    1.345     3 C    1.232     6 N    1.169
     3   6 C    3.951 --     4 C    1.592     2 C    1.232    40 H    0.977
     4   6 C    3.959 --     3 C    1.592     5 C    1.237    41 H    0.974
     5   6 C    3.894 --     7 C    1.299     4 C    1.237     6 N    1.177
     6   7 N    3.469 --     5 C    1.177     2 C    1.169    42 H    0.873
     7   6 C    3.939 --    15 C    1.334     5 C    1.299     8 C    1.035
     8   6 C    3.988 --    14 C    1.381     9 C    1.379     7 C    1.035
     9   6 C    3.987 --    10 C    1.470     8 C    1.379    43 H    0.972
    10   6 C    3.990 --     9 C    1.470    11 C    1.353    44 H    0.972
    11   6 C    3.951 --    13 C    1.354    10 C    1.353    12 N    1.116
    12   7 N    3.134 --    11 C    1.116    45 H    0.933    46 H    0.933
    13   6 C    3.989 --    14 C    1.468    11 C    1.354    47 H    0.972
    14   6 C    3.987 --    13 C    1.468     8 C    1.381    48 H    0.973
    15   6 C    3.914 --     7 C    1.334    18 N    1.285    16 C    1.127
    16   6 C    3.966 --    17 C    1.707    15 C    1.127    49 H    0.974
    17   6 C    3.963 --    16 C    1.707    19 C    1.130    50 H    0.974
    18   7 N    3.020 --    19 C    1.345    15 C    1.285
    19   6 C    3.909 --    18 N    1.345    20 C    1.252    17 C    1.130
    20   6 C    3.935 --    19 C    1.252    21 C    1.250   126 C    1.193
    21   6 C    3.886 --    22 C    1.251    20 C    1.250    25 N    1.190
    22   6 C    3.957 --    23 C    1.580    21 C    1.251    51 H    0.975
    23   6 C    3.955 --    22 C    1.580    24 C    1.243    52 H    0.974
    24   6 C    3.897 --    26 C    1.307    23 C    1.243    25 N    1.164
    25   7 N    3.473 --    21 C    1.190    24 C    1.164    53 H    0.873
    26   6 C    3.925 --    34 C    1.317    24 C    1.307    27 C    1.037
    27   6 C    3.988 --    33 C    1.379    28 C    1.379    26 C    1.037
    28   6 C    3.985 --    29 C    1.470    27 C    1.379    54 H    0.972
    29   6 C    3.989 --    28 C    1.470    30 C    1.353    55 H    0.972
    30   6 C    3.951 --    32 C    1.353    29 C    1.353    31 N    1.116
    31   7 N    3.134 --    30 C    1.116    57 H    0.933    56 H    0.933
    32   6 C    3.989 --    33 C    1.469    30 C    1.353    58 H    0.972
    33   6 C    3.986 --    32 C    1.469    27 C    1.379    59 H    0.973
    34   6 C    3.927 --    38 N    1.319    26 C    1.317    35 C    1.120
    35   6 C    3.967 --    36 C    1.719    34 C    1.120    60 H    0.974
    36   6 C    3.966 --    35 C    1.719    37 C    1.119    61 H    0.976
    37   6 C    3.930 --     1 C    1.366    38 N    1.299    36 C    1.119
    38   7 N    3.011 --    34 C    1.319    37 C    1.299
    39   1 H    1.002 --     1 C    0.971
    40   1 H    0.998 --     3 C    0.977
    41   1 H    1.005 --     4 C    0.974
    42   1 H    0.986 --     6 N    0.873
    43   1 H    1.005 --     9 C    0.972
    44   1 H    0.999 --    10 C    0.972
    45   1 H    0.961 --    12 N    0.933
    46   1 H    0.960 --    12 N    0.933
    47   1 H    0.999 --    13 C    0.972
    48   1 H    1.005 --    14 C    0.973
    49   1 H    1.006 --    16 C    0.974
    50   1 H    1.003 --    17 C    0.974
    51   1 H    1.002 --    22 C    0.975
    52   1 H    1.005 --    23 C    0.974
    53   1 H    0.987 --    25 N    0.873
    54   1 H    1.005 --    28 C    0.972
    55   1 H    0.999 --    29 C    0.972
    56   1 H    0.960 --    31 N    0.933
    57   1 H    0.960 --    31 N    0.933
    58   1 H    0.998 --    32 C    0.972
    59   1 H    1.005 --    33 C    0.973
    60   1 H    1.006 --    35 C    0.974
    61   1 H    0.999 --    36 C    0.976
    62   6 C    3.922 --    98 C    1.366    63 C    1.345   100 H    0.971
    63   6 C    3.904 --    62 C    1.345    64 C    1.232    67 N    1.169
    64   6 C    3.951 --    65 C    1.592    63 C    1.232   101 H    0.977
    65   6 C    3.959 --    64 C    1.592    66 C    1.238   102 H    0.974
    66   6 C    3.894 --    68 C    1.299    65 C    1.238    67 N    1.177
    67   7 N    3.469 --    66 C    1.177    63 C    1.169   103 H    0.873
    68   6 C    3.939 --    76 C    1.334    66 C    1.299    69 C    1.035
    69   6 C    3.988 --    75 C    1.381    70 C    1.379    68 C    1.035
    70   6 C    3.987 --    71 C    1.469    69 C    1.379   104 H    0.972
    71   6 C    3.990 --    70 C    1.469    72 C    1.353   105 H    0.972
    72   6 C    3.951 --    74 C    1.354    71 C    1.353    73 N    1.116
    73   7 N    3.134 --    72 C    1.116   106 H    0.933   107 H    0.933
    74   6 C    3.989 --    75 C    1.468    72 C    1.354   108 H    0.972
    75   6 C    3.987 --    74 C    1.468    69 C    1.381   109 H    0.973
    76   6 C    3.914 --    68 C    1.334    79 N    1.285    77 C    1.127
    77   6 C    3.966 --    78 C    1.707    76 C    1.127   110 H    0.973
    78   6 C    3.963 --    77 C    1.707    80 C    1.130   111 H    0.974
    79   7 N    3.020 --    80 C    1.345    76 C    1.285
    80   6 C    3.909 --    79 N    1.345    81 C    1.251    78 C    1.130
    81   6 C    3.935 --    80 C    1.251    82 C    1.250   134 C    1.193
    82   6 C    3.886 --    83 C    1.251    81 C    1.250    86 N    1.190
    83   6 C    3.957 --    84 C    1.580    82 C    1.251   112 H    0.975
    84   6 C    3.955 --    83 C    1.580    85 C    1.243   113 H    0.974
    85   6 C    3.897 --    87 C    1.307    84 C    1.243    86 N    1.164
    86   7 N    3.473 --    82 C    1.190    85 C    1.164   114 H    0.873
    87   6 C    3.925 --    95 C    1.317    85 C    1.307    88 C    1.038
    88   6 C    3.988 --    94 C    1.379    89 C    1.379    87 C    1.038
    89   6 C    3.985 --    90 C    1.470    88 C    1.379   115 H    0.972
    90   6 C    3.989 --    89 C    1.470    91 C    1.353   116 H    0.972
    91   6 C    3.951 --    93 C    1.353    90 C    1.353    92 N    1.116
    92   7 N    3.134 --    91 C    1.116   118 H    0.933   117 H    0.933
    93   6 C    3.989 --    94 C    1.469    91 C    1.353   119 H    0.972
    94   6 C    3.986 --    93 C    1.469    88 C    1.379   120 H    0.973
    95   6 C    3.927 --    99 N    1.319    87 C    1.317    96 C    1.120
    96   6 C    3.967 --    97 C    1.719    95 C    1.120   121 H    0.973
    97   6 C    3.966 --    96 C    1.719    98 C    1.119   122 H    0.976
    98   6 C    3.930 --    62 C    1.366    99 N    1.299    97 C    1.119
    99   7 N    3.011 --    95 C    1.319    98 C    1.299
   100   1 H    1.002 --    62 C    0.971
   101   1 H    0.998 --    64 C    0.977
   102   1 H    1.005 --    65 C    0.974
   103   1 H    0.986 --    67 N    0.873
   104   1 H    1.005 --    70 C    0.972
   105   1 H    0.999 --    71 C    0.972
   106   1 H    0.961 --    73 N    0.933
   107   1 H    0.960 --    73 N    0.933
   108   1 H    0.999 --    74 C    0.972
   109   1 H    1.005 --    75 C    0.973
   110   1 H    1.006 --    77 C    0.973
   111   1 H    1.003 --    78 C    0.974
   112   1 H    1.002 --    83 C    0.975
   113   1 H    1.005 --    84 C    0.974
   114   1 H    0.987 --    86 N    0.873
   115   1 H    1.005 --    89 C    0.972
   116   1 H    0.999 --    90 C    0.972
   117   1 H    0.960 --    92 N    0.933
   118   1 H    0.960 --    92 N    0.933
   119   1 H    0.999 --    93 C    0.972
   120   1 H    1.005 --    94 C    0.973
   121   1 H    1.006 --    96 C    0.973
   122   1 H    0.999 --    97 C    0.976
   123   6 C    3.924 --   124 C    2.363   127 C    1.338   126 C    0.189
   124   6 C    3.922 --   123 C    2.363   125 C    1.337   128 C    0.189
   125   6 C    3.931 --   126 C    2.445   124 C    1.337
   126   6 C    3.888 --   125 C    2.445    20 C    1.193   123 C    0.189
   127   6 C    3.928 --   128 C    2.442   123 C    1.338
   128   6 C    3.889 --   127 C    2.442   135 C    1.196   124 C    0.189
   129   6 C    3.922 --   130 C    2.363   133 C    1.337   132 C    0.189
   130   6 C    3.924 --   129 C    2.363   131 C    1.338   134 C    0.189
   131   6 C    3.928 --   132 C    2.442   130 C    1.338
   132   6 C    3.889 --   131 C    2.442   154 C    1.196   129 C    0.189
   133   6 C    3.931 --   134 C    2.445   129 C    1.337
   134   6 C    3.888 --   133 C    2.445    81 C    1.193   130 C    0.189
   135   6 C    3.922 --   171 C    1.252   136 C    1.245   128 C    1.196
   136   6 C    3.886 --   137 C    1.255   135 C    1.245   140 N    1.190
   137   6 C    3.955 --   138 C    1.574   136 C    1.255   173 H    0.975
   138   6 C    3.956 --   137 C    1.574   139 C    1.249   174 H    0.974
   139   6 C    3.892 --   141 C    1.296   138 C    1.249   140 N    1.166
   140   7 N    3.470 --   136 C    1.190   139 C    1.166   175 H    0.874
   141   6 C    3.927 --   149 C    1.336   139 C    1.296   142 C    1.035
   142   6 C    3.988 --   148 C    1.380   143 C    1.380   141 C    1.035
   143   6 C    3.988 --   144 C    1.469   142 C    1.380   176 H    0.972
   144   6 C    3.989 --   143 C    1.469   145 C    1.353   177 H    0.972
   145   6 C    3.951 --   147 C    1.354   144 C    1.353   146 N    1.116
   146   7 N    3.134 --   145 C    1.116   179 H    0.933   178 H    0.933
   147   6 C    3.989 --   148 C    1.469   145 C    1.354   180 H    0.972
   148   6 C    3.987 --   147 C    1.469   142 C    1.380   181 H    0.973
   149   6 C    3.915 --   141 C    1.336   152 N    1.284   150 C    1.127
   150   6 C    3.966 --   151 C    1.706   149 C    1.127   182 H    0.973
   151   6 C    3.963 --   150 C    1.706   153 C    1.131   183 H    0.974
   152   7 N    3.008 --   153 C    1.344   149 C    1.284
   153   6 C    3.909 --   152 N    1.344   154 C    1.252   151 C    1.131
   154   6 C    3.922 --   153 C    1.252   155 C    1.245   132 C    1.196
   155   6 C    3.886 --   156 C    1.255   154 C    1.245   159 N    1.190
   156   6 C    3.955 --   157 C    1.574   155 C    1.255   184 H    0.975
   157   6 C    3.956 --   156 C    1.574   158 C    1.249   185 H    0.974
   158   6 C    3.892 --   160 C    1.297   157 C    1.249   159 N    1.166
   159   7 N    3.470 --   155 C    1.190   158 C    1.166   186 H    0.874
   160   6 C    3.927 --   168 C    1.335   158 C    1.297   161 C    1.035
   161   6 C    3.988 --   162 C    1.380   167 C    1.379   160 C    1.035
   162   6 C    3.987 --   163 C    1.469   161 C    1.380   187 H    0.973
   163   6 C    3.989 --   162 C    1.469   164 C    1.353   188 H    0.972
   164   6 C    3.951 --   163 C    1.353   166 C    1.353   165 N    1.117
   165   7 N    3.135 --   164 C    1.117   190 H    0.933   189 H    0.933
   166   6 C    3.989 --   167 C    1.470   164 C    1.353   191 H    0.972
   167   6 C    3.988 --   166 C    1.470   161 C    1.379   192 H    0.972
   168   6 C    3.915 --   160 C    1.335   172 N    1.285   169 C    1.127
   169   6 C    3.966 --   170 C    1.706   168 C    1.127   193 H    0.974
   170   6 C    3.963 --   169 C    1.706   171 C    1.132   194 H    0.974
   171   6 C    3.909 --   172 N    1.344   135 C    1.252   170 C    1.132
   172   7 N    3.008 --   171 C    1.344   168 C    1.285
   173   1 H    1.002 --   137 C    0.975
   174   1 H    1.005 --   138 C    0.974
   175   1 H    0.988 --   140 N    0.874
   176   1 H    1.005 --   143 C    0.972
   177   1 H    0.998 --   144 C    0.972
   178   1 H    0.960 --   146 N    0.933
   179   1 H    0.960 --   146 N    0.933
   180   1 H    0.998 --   147 C    0.972
   181   1 H    1.005 --   148 C    0.973
   182   1 H    1.006 --   150 C    0.973
   183   1 H    1.003 --   151 C    0.974
   184   1 H    1.002 --   156 C    0.975
   185   1 H    1.005 --   157 C    0.974
   186   1 H    0.987 --   159 N    0.874
   187   1 H    1.005 --   162 C    0.973
   188   1 H    0.998 --   163 C    0.972
   189   1 H    0.960 --   165 N    0.933
   190   1 H    0.960 --   165 N    0.933
   191   1 H    0.998 --   166 C    0.972
   192   1 H    1.005 --   167 C    0.972
   193   1 H    1.006 --   169 C    0.974
   194   1 H    1.003 --   170 C    0.974
 ---------------------------------------------------------------------------

           -------------------------------------------------
          | TOTAL ENERGY             -322.141566959970 Eh   |
          | GRADIENT NORM               0.000665309404 Eh/α |
          | HOMO-LUMO GAP               0.837195659272 eV   |
           -------------------------------------------------

 * finished run on 2022/07/29 at 18:48:30.180
