   * xtb version 6.5.1 (b24c23e) compiled by 'conda@728c89f4b128' on 2022-07-12
          program call               : xtb Ph3Me_C4_3.xyz --gfn 1 --opt -T 48

   ID    Z sym.   atoms
    1    6 C      1-5, 7-19, 21-26, 28-41, 76-80, 82-94, 96-101, 103-116,
                  151-163, 165-177, 179-184, 186-199
    2    7 N      6, 20, 27, 42, 81, 95, 102, 117, 164, 178, 185, 200
    3    1 H      43-75, 118-150, 201-232

          :  Hamiltonian                  GFN1-xTB          :
 * total energy  :  -347.7212236 Eh     change        0.1200590E-08 Eh
 * total energy  :  -348.4097504 Eh     change       -0.6885268E+00 Eh
 * total energy  :  -348.5983480 Eh     change       -0.1885975E+00 Eh
 * total energy  :  -348.7022143 Eh     change       -0.1038663E+00 Eh
 * total energy  :  -348.7608096 Eh     change       -0.5859536E-01 Eh
 * total energy  :  -348.7996984 Eh     change       -0.3888883E-01 Eh
 * total energy  :  -348.8227457 Eh     change       -0.2304724E-01 Eh
 * total energy  :  -348.8405782 Eh     change       -0.1783249E-01 Eh
 * total energy  :  -348.8568989 Eh     change       -0.1632075E-01 Eh
 * total energy  :  -348.8700359 Eh     change       -0.1313701E-01 Eh
 * total energy  :  -348.9386758 Eh     change       -0.2410837E-04 Eh
 * total energy  :  -348.9386921 Eh     change       -0.1632533E-04 Eh
 * total energy  :  -348.9387018 Eh     change       -0.9669778E-05 Eh
 * total energy  :  -348.9387091 Eh     change       -0.7282947E-05 Eh
 * total energy  :  -348.9387167 Eh     change       -0.7618134E-05 Eh
 * total energy  :  -348.9387256 Eh     change       -0.8950394E-05 Eh
 * total energy  :  -348.9387363 Eh     change       -0.1067361E-04 Eh
 * total energy  :  -348.9387492 Eh     change       -0.1286585E-04 Eh
 * total energy  :  -348.9387520 Eh     change       -0.2837467E-05 Eh
   *** GEOMETRY OPTIMIZATION CONVERGED AFTER 68 ITERATIONS ***

 final structure:
================
232
 xtb: 6.5.1 (b24c23e)
C           29.88392392963625       -0.13937172429312       -0.00534169016490
C           30.50911827051716       -1.37894069198162       -0.05064788828517
C           29.88379505834906       -2.65661810642693       -0.11297120472814
C           30.86679537874360       -3.60556260080283       -0.14562861719184
C           32.12407627162888       -2.93779257683727       -0.10255362682373
N           31.85760548276280       -1.59895931611082       -0.04600401481839
C           33.39264844604589       -3.52157645477206       -0.11094836622164
C           33.44208841013484       -5.01150765742483       -0.18626249064422
C           33.47783273787074       -5.64414201919392       -1.43220578400587
C           33.46226500318991       -4.82242347337866       -2.69363264006046
C           33.53344257767198       -7.03168900543169       -1.49290484845619
C           33.55571706578143       -7.79750996800965       -0.33197584034042
C           33.60012990184475       -9.29973831313071       -0.41014527009896
C           33.51855342613083       -7.15739700412188        0.90258022421571
C           33.46292342235616       -5.77113048106575        0.98687125202867
C           33.43120422728111       -5.08527245360366        2.32672599692765
C           34.60353556475840       -2.83258805324941       -0.05897240344436
C           35.89814981004767       -3.48986335889583       -0.06101556216490
C           36.82371844824489       -2.50959366882009       -0.00709189021367
N           34.76336647740059       -1.48175008023508       -0.00398355197332
C           36.09230179065383       -1.25720943335132        0.02471481073969
C           36.72743430028653        0.00049459736772        0.05964945393829
C           36.07790697686438        1.24805495922697        0.08268149572169
C           36.69765656930068        2.52564846530212        0.12491257266771
C           35.71068934199148        3.47193148689259        0.15108758258188
C           34.45736489074728        2.79889128842930        0.12435567426181
N           34.73126442088829        1.45746284899478        0.08252628735843
C           33.18990787689218        3.38408103232095        0.14036298095599
C           33.14822510648160        4.87493249645398        0.19418747484747
C           33.16905651504715        5.61764661002897       -0.98981130456542
C           33.22479915143263        4.91244216548091       -2.31882359035541
C           33.13824740742075        7.00584639928523       -0.92665944951835
C           33.08841753204977        7.66479407252105        0.29739280895277
C           33.03858673029089        9.16786546262638        0.35251719272884
C           33.06464094172038        6.91566729794159        1.46922516426402
C           33.09444944720047        5.52659675054363        1.42970085449199
C           33.06996999524762        4.72354831114778        2.70293825781627
C           31.97758311274185        2.69268344242412        0.11155117835312
C           30.67663877729790        3.34292160547823        0.12674150236384
C           29.75707158498380        2.35737804592695        0.08689204905456
C           30.49599063768558        1.10695748514315        0.04668122597303
N           31.82971768590676        1.34710982475747        0.06332701663560
H           28.79893318664730       -0.15531835413090       -0.01469752929953
H           28.81716421180131       -2.81459334334417       -0.13065289994646
H           30.74486607618057       -4.67578983282009       -0.19406783414522
H           32.56400662421195       -0.87205151944332       -0.00735546853998
H           32.54662726316968       -4.23049501652192       -2.74953585719157
H           33.51945424024514       -5.46073478051383       -3.57481584270738
H           34.30727991849735       -4.13155157278325       -2.70590996682273
H           33.56401676261825       -7.52227276244619       -2.46033644989583
H           32.58437515254252       -9.70207461656465       -0.41485164695817
H           34.09862120612083       -9.62680956720438       -1.32292557027867
H           34.12595360189419       -9.71784344314972        0.44861250759988
H           33.53729193014099       -7.74684400522776        1.81347386559805
H           32.52050767479035       -4.49172809704911        2.42762668703769
H           33.46587353065778       -5.81246387576160        3.13739171660171
H           34.28255389535471       -4.40928520913631        2.42594042596227
H           36.04903912468614       -4.55679654428890       -0.09923091885896
H           37.89832809841359       -2.59773992150635        0.00852760113324
H           37.76347003375034        2.68800930518449        0.13561326282104
H           35.82989433067133        4.54276647006869        0.18715586999104
H           34.02802503779336        0.72661823687624        0.05759473094306
H           33.20145127908786        5.62778505439059       -3.14037232643639
H           34.13945125823677        4.32138322098452       -2.39631291381698
H           32.37793063154683        4.23158583857655       -2.42223128661335
H           33.15593817851628        7.58201951619868       -1.84602953660664
H           33.49690910852357        9.53843029669727        1.26976170989829
H           32.00002726853738        9.50637042942943        0.33115995590814
H           33.55514423287069        9.60537105949160       -0.50215829296074
H           33.02497400000767        7.42108354682527        2.42866001696280
H           33.03873723929963        5.37662509890734        3.57455629171125
H           32.19433641419307        4.07196839946073        2.72240118350123
H           33.95753143202263        4.09157666772030        2.77042976206541
H           30.52121717280076        4.40956183603840        0.16171234825450
H           28.68110622058252        2.43630059199890        0.08303136738099
C           63.68736152043419        0.13883856333974       -0.02632551412997
C           63.06568982541256        1.37376507213690       -0.16045003607237
C           63.69485592906938        2.64457506311705       -0.28858762777818
C           62.71474050736440        3.59025713137015       -0.40234706953470
C           61.45547698251368        2.92710214782295       -0.34794763188473
N           61.71784368694014        1.59451593825310       -0.19967542161888
C           60.18889034560181        3.50943894866817       -0.43366545321874
C           60.14827074432844        4.99208628898103       -0.60188926822100
C           60.16813536717943        5.55025262079349       -1.88319366481431
C           60.23100008345367        4.65530655290566       -3.09224667593506
C           60.12586642383592        6.93209761513492       -2.02764718071889
C           60.06307631514314        7.76537413664416       -0.91562951751792
C           60.03584623170220        9.26063304011854       -1.08369115675188
C           60.04511496565083        7.19909100748128        0.35483692712916
C           60.08634779495418        5.81995226634562        0.52274681301121
C           60.06142522373735        5.21509589582698        1.90119144914831
C           58.97546240892414        2.82576869357349       -0.37369333981876
C           57.68277337346950        3.47908324288029       -0.47361239838315
C           56.75408608010024        2.50625724274207       -0.36379204963799
N           58.81128856192088        1.48398785136746       -0.20998371327672
C           57.48180344926106        1.26265077876925       -0.19647535260124
C           56.84308161264801        0.01725217194181       -0.02854772445236
C           57.48992355117204       -1.22142581532143        0.13753792866460
C           56.86648067061240       -2.48735850383440        0.30061466123196
C           57.85060856367868       -3.43130472706601        0.40454085205210
C           59.10564597930706       -2.76812568544596        0.30860190887447
N           58.83577807601297       -1.43440715243606        0.15166593069723
C           60.37095547502800       -3.35613860440244        0.35846349705930
C           60.40539270623526       -4.84008407433203        0.51284267071685
C           60.37178960330317       -5.65780645363946       -0.62051654014690
C           60.31005386428215       -5.03978892813389       -1.99201129731126
C           60.39390701449902       -7.03908377852673       -0.46786868448891
C           60.44680530733758       -7.61771434633517        0.79603848814156
C           60.48630175101983       -9.11444896167645        0.94753785425655
C           60.48230524368256       -6.79450571110611        1.91673432903772
C           60.46159810123608       -5.41062495013651        1.78757444806368
C           60.49660194361608       -4.52686010070321        3.00588835815775
C           61.58551826482122       -2.67369800468055        0.27252955684101
C           62.88446683609542       -3.32510447476961        0.33330200954245
C           63.80696232218177       -2.34703046791286        0.22869366950190
C           63.07174135940102       -1.10025273336509        0.10153687372601
N           61.73734129192933       -1.33515724497447        0.13039706618191
H           64.77241370201028        0.15255792293852       -0.02280761666486
H           64.76190652055055        2.80061967758604       -0.29151934651075
H           62.84007282422059        4.65533018624017       -0.51412690464324
H           61.00921070517170        0.87208646621067       -0.13040298610720
H           61.14954369242607        4.06529337745809       -3.07955537909188
H           60.20491693889220        5.24007206831404       -4.01124981758783
H           59.38868286876140        3.96110285974023       -3.09418327775950
H           60.13902983534559        7.36488867013545       -3.02266051413186
H           61.05532106242526        9.65352095620572       -1.08195417513543
H           59.56768265664687        9.53707758051044       -2.02870820388296
H           59.48936661141111        9.73335253857922       -0.26721868791835
H           59.99526120135921        7.84138141913151        1.22805526544381
H           60.96053882767304        4.61941140492076        2.07030886180460
H           60.00683176176503        5.98984805978646        2.66537425438525
H           59.19878634787410        4.55503566901878        2.00948566182577
H           57.53530129226692        4.53855197685418       -0.60929392543603
H           55.67957766591653        2.59405479662482       -0.38875597601320
H           55.80032534512358       -2.64465688840700        0.33139721799537
H           57.72821171842042       -4.49419896668248        0.53663308169117
H           59.54110308560337       -0.71163092704488        0.05473891085574
H           60.32142305974950       -5.80698760799857       -2.76562296648463
H           59.39880901493623       -4.44827095689135       -2.10025700573036
H           61.16058463232073       -4.37328129014055       -2.14620121591003
H           60.36623008961067       -7.67339775756423       -1.34787222299077
H           60.03228455842492       -9.42184028140632        1.88991066637005
H           61.52219295299423       -9.46159452384633        0.94047645484943
H           59.96011736859913       -9.60193263115920        0.12641948853162
H           60.52353774779075       -7.23706761554068        2.90667062153580
H           60.52910007506591       -5.12216722524107        3.91789575516252
H           61.37524433817421       -3.87965154360207        2.97885364068842
H           59.61223642543335       -3.88755577742502        3.03638835557113
H           63.03662974697608       -4.38727413526409        0.44171949214409
H           64.88271127128797       -2.42885271301949        0.23265645651231
C           39.35574635112124        0.02553944638480        0.06109840601793
C           38.13397837519175        0.02061769447616        0.06489488588651
C           40.70591450245930        0.01797041374871        0.05290498032646
C           41.92759691706616        0.00482768570944        0.03621258943902
C           52.86608898884867       -0.04201617931260       -0.01970242777469
C           51.64418846011422       -0.06635901596166       -0.01787946553599
C           54.21561002088651       -0.03003395705697       -0.02483557886941
C           55.43736913553820       -0.00400574807999       -0.02693196262155
C           43.33327858141042       -0.01633662166192        0.02004034349337
C           43.95955330126731       -0.97989426187613        0.83255889339316
C           43.32000260202643       -1.92800739187416        1.67343504887874
C           44.29293026153704       -2.66705485128344        2.28944357234330
C           45.55518249018012       -2.19045588212476        1.84078519309146
N           45.30277546276255       -1.17106597647908        0.96242284080700
C           46.81280587338223       -2.66848659651604        2.21901939623295
C           46.81925386296867       -3.79830673381628        3.19500287469867
C           46.75445904318759       -5.11739575201407        2.73668367415576
C           46.68460772368846       -5.39729616440974        1.25905046424517
C           46.75512083247217       -6.16064748205477        3.65486014601942
C           46.81755166668400       -5.90989522329763        5.02197596626014
C           46.83506490574062       -7.05043338549392        6.00357889239032
C           46.88350797696160       -4.59379580519218        5.46654226568568
C           46.88463248624764       -3.53466399878655        4.56608137139158
C           46.95420505603154       -2.11305863405221        5.05672301976248
C           48.04137504722734       -2.18569721241320        1.77360956803982
C           49.31760251125340       -2.72977654611581        2.20170274957188
C           50.27003203861391       -2.00559173873680        1.57755563874039
N           48.23832964877236       -1.15687762898978        0.90357874163557
C           49.57302169221909       -1.02336587964475        0.77003588005259
C           50.23907607036656       -0.06828063129564       -0.02391282578315
C           49.61207879686851        0.89439782645226       -0.83762916315335
C           50.25165801185459        1.84999421051007       -1.66984445182944
C           49.27848416054788        2.56688019148593       -2.31122054525546
C           48.01621716493258        2.07075126959468       -1.88470274307698
N           48.26871531778973        1.06329772143400       -0.99266227605051
C           46.75846323606969        2.52191016923580       -2.29372300798781
C           46.75116667092647        3.61834244824123       -3.30691398256932
C           46.77556096250906        3.30362923376703       -4.66862799650359
C           46.80860043531714        1.86392726329534       -5.10779759224657
C           46.76768973120418        4.32877312057166       -5.60735842878144
C           46.73605908317568        5.66121236834896       -5.21009639586239
C           46.74727993089455        6.76420356134414       -6.23378796603402
C           46.71407761514146        5.96281214506547       -3.85206217216070
C           46.72065244887241        4.95402511471014       -2.89601161648355
C           46.69372488342241        5.28861173959629       -1.42842748796660
C           45.52982791172798        2.04034129443972       -1.84718743393630
C           44.25330091664376        2.56500945995914       -2.29809511824339
C           43.30131593838448        1.86570731958319       -1.64575571879549
C           43.99875413802238        0.91271886790951       -0.80412483054071
N           45.33353771299542        1.04073787123087       -0.94390074249601
H           42.25217652477376       -2.02413312683997        1.78658484753660
H           44.15714148591032       -3.47109096835556        2.99455815459391
H           46.01350464879949       -0.63279420837863        0.47845755304934
H           45.77980372805671       -4.95942405753771        0.83290834625794
H           47.54183619586525       -4.95473932817841        0.74846563879027
H           46.67700268251756       -6.46960996773312        1.06600211457047
H           46.70411985662692       -7.18450925098770        3.29902922768525
H           46.46016706681751       -6.73255746684385        6.97664151389412
H           46.22579204640032       -7.88033360750885        5.64430944437849
H           47.85740613189085       -7.41283351849648        6.13425477753923
H           46.93262947513634       -4.38832607545512        6.53090711281028
H           46.08125103674407       -1.55159300422434        4.71840355553903
H           46.99167834534487       -2.07845158898003        6.14511371721844
H           47.84302491634898       -1.61877824602636        4.66015810976743
H           49.43876770737990       -3.55424950431261        2.88595022948237
H           51.34207372117687       -2.10521140604977        1.63879227226351
H           51.31964268178340        1.96452605042900       -1.76232358857818
H           49.41411710631682        3.37016231332008       -3.01722382616633
H           47.55786359720098        0.51620303470178       -0.51885066501675
H           46.78828899972479        1.78802156244302       -6.19454552072685
H           45.95139213999444        1.32354766104777       -4.70215307748045
H           47.71418205681521        1.37688897069135       -4.74075483108944
H           46.78457238974416        4.08366161642212       -6.66429753882998
H           46.33812027782126        6.41829129222379       -7.18319892236985
H           47.77233299636943        7.10022647545300       -6.40697912853930
H           46.16508633249007        7.61921268615443       -5.88888238473741
H           46.68946748291376        6.99974689546774       -3.53320307582451
H           47.57300241598268        4.87679154016919       -0.92939224554770
H           46.67813307578565        6.36726666343060       -1.27534450733270
H           45.80933079719711        4.85537160041575       -0.95751774044497
H           44.13157897521115        3.36051709342800       -3.01570748807325
H           42.22925281001169        1.96139507530629       -1.71201247070755

          :  Hamiltonian                  GFN1-xTB          :
         :: total energy            -348.938752019520 Eh    ::
         :: gradient norm              0.000972292274 Eh/a0 ::
         :: HOMO-LUMO gap              0.888639135592 eV    ::
         :: SCC energy              -354.723718445426 Eh    ::
         :: repulsion energy           5.985455483370 Eh    ::

    * Orbital Energies and Occupations

         #    Occupation            Energy/Eh            Energy/eV
      -------------------------------------------------------------
         1        2.0000           -0.8026401             -21.8409
       ...           ...                  ...                  ...
       311        2.0000           -0.4162155             -11.3258
       312        2.0000           -0.4148400             -11.2884
       313        2.0000           -0.4141111             -11.2685
       314        2.0000           -0.4140577             -11.2671
       315        2.0000           -0.4135301             -11.2527
       316        2.0000           -0.4134820             -11.2514
       317        2.0000           -0.4131639             -11.2428
       318        2.0000           -0.3972584             -10.8100
       319        2.0000           -0.3966645             -10.7938
       320        2.0000           -0.3965880             -10.7917
       321        2.0000           -0.3861363             -10.5073
       322        2.0000           -0.3808519             -10.3635
       323        2.0000           -0.3740018             -10.1771 (HOMO)
       324                         -0.3413450              -9.2885 (LUMO)
       325                         -0.3327866              -9.0556
       326                         -0.3274140              -8.9094
       327                         -0.3271431              -8.9020
       328                         -0.3270529              -8.8996
       329                         -0.3264948              -8.8844
       330                         -0.2994030              -8.1472
       331                         -0.2921304              -7.9493
       332                         -0.2896277              -7.8812
       333                         -0.2565540              -6.9812
       334                         -0.2556907              -6.9577
       ...                                ...                  ...
       732                          1.5190119              41.3344
      -------------------------------------------------------------
                  HL-Gap            0.0326569 Eh            0.8886 eV

Wiberg/Mayer (AO) data.
largest (>0.10) Wiberg bond orders for each atom

     #   Z sym  total        # sym  WBO       # sym  WBO       # sym  WBO
 ---------------------------------------------------------------------------
     1   6 C    3.925 --    41 C    1.364     2 C    1.347    43 H    0.971
     2   6 C    3.903 --     1 C    1.347     3 C    1.229     6 N    1.170
     3   6 C    3.954 --     4 C    1.597     2 C    1.229    44 H    0.977
     4   6 C    3.959 --     3 C    1.597     5 C    1.232    45 H    0.976
     5   6 C    3.896 --     7 C    1.310     4 C    1.232     6 N    1.173
     6   7 N    3.469 --     5 C    1.173     2 C    1.170    46 H    0.874
     7   6 C    3.940 --    17 C    1.342     5 C    1.310     8 C    1.003
     8   6 C    3.987 --     9 C    1.381    15 C    1.381     7 C    1.003
                            12 C    0.104
     9   6 C    3.984 --    11 C    1.420     8 C    1.381    10 C    1.020
                            14 C    0.103
    10   6 C    3.996 --     9 C    1.020    48 H    0.986    47 H    0.974
                            49 H    0.974
    11   6 C    3.993 --     9 C    1.420    12 C    1.414    50 H    0.970
                            15 C    0.103
    12   6 C    3.988 --    11 C    1.414    14 C    1.414    13 C    1.020
                             8 C    0.104
    13   6 C    3.996 --    12 C    1.020    52 H    0.983    53 H    0.983
                            51 H    0.971
    14   6 C    3.993 --    15 C    1.421    12 C    1.414    54 H    0.970
                             9 C    0.103
    15   6 C    3.984 --    14 C    1.421     8 C    1.381    16 C    1.020
                            11 C    0.103
    16   6 C    3.996 --    15 C    1.020    56 H    0.986    55 H    0.974
                            57 H    0.974
    17   6 C    3.916 --     7 C    1.342    20 N    1.282    18 C    1.124
    18   6 C    3.966 --    19 C    1.711    17 C    1.124    58 H    0.975
    19   6 C    3.964 --    18 C    1.711    21 C    1.128    59 H    0.974
    20   7 N    3.023 --    21 C    1.345    17 C    1.282
    21   6 C    3.911 --    20 N    1.345    22 C    1.255    19 C    1.128
    22   6 C    3.937 --    23 C    1.255    21 C    1.255   152 C    1.184
    23   6 C    3.888 --    22 C    1.255    24 C    1.247    27 N    1.189
    24   6 C    3.959 --    25 C    1.585    23 C    1.247    60 H    0.975
    25   6 C    3.956 --    24 C    1.585    26 C    1.238    61 H    0.975
    26   6 C    3.898 --    28 C    1.316    25 C    1.238    27 N    1.162
    27   7 N    3.473 --    23 C    1.189    26 C    1.162    62 H    0.873
    28   6 C    3.926 --    38 C    1.329    26 C    1.316    29 C    1.004
    29   6 C    3.987 --    30 C    1.381    36 C    1.381    28 C    1.004
                            33 C    0.104
    30   6 C    3.984 --    32 C    1.420    29 C    1.381    31 C    1.020
                            35 C    0.103
    31   6 C    3.996 --    30 C    1.020    63 H    0.986    65 H    0.974
                            64 H    0.974
    32   6 C    3.993 --    30 C    1.420    33 C    1.414    66 H    0.970
                            36 C    0.103
    33   6 C    3.988 --    32 C    1.414    35 C    1.414    34 C    1.020
                            29 C    0.104
    34   6 C    3.996 --    33 C    1.020    67 H    0.983    69 H    0.983
                            68 H    0.971
    35   6 C    3.993 --    36 C    1.421    33 C    1.414    70 H    0.970
                            30 C    0.103
    36   6 C    3.984 --    35 C    1.421    29 C    1.381    37 C    1.020
                            32 C    0.103
    37   6 C    3.996 --    36 C    1.020    71 H    0.986    73 H    0.974
                            72 H    0.973
    38   6 C    3.929 --    28 C    1.329    42 N    1.311    39 C    1.117
    39   6 C    3.967 --    40 C    1.723    38 C    1.117    74 H    0.975
    40   6 C    3.966 --    39 C    1.723    41 C    1.117    75 H    0.976
    41   6 C    3.930 --     1 C    1.364    42 N    1.304    40 C    1.117
    42   7 N    3.013 --    38 C    1.311    41 C    1.304
    43   1 H    1.002 --     1 C    0.971
    44   1 H    0.998 --     3 C    0.977
    45   1 H    1.002 --     4 C    0.976
    46   1 H    0.987 --     6 N    0.874
    47   1 H    1.008 --    10 C    0.974
    48   1 H    1.004 --    10 C    0.986
    49   1 H    1.007 --    10 C    0.974
    50   1 H    1.000 --    11 C    0.970
    51   1 H    1.006 --    13 C    0.971
    52   1 H    1.004 --    13 C    0.983
    53   1 H    1.004 --    13 C    0.983
    54   1 H    1.000 --    14 C    0.970
    55   1 H    1.008 --    16 C    0.974
    56   1 H    1.004 --    16 C    0.986
    57   1 H    1.008 --    16 C    0.974
    58   1 H    1.002 --    18 C    0.975
    59   1 H    1.003 --    19 C    0.974
    60   1 H    1.002 --    24 C    0.975
    61   1 H    1.002 --    25 C    0.975
    62   1 H    0.988 --    27 N    0.873
    63   1 H    1.004 --    31 C    0.986
    64   1 H    1.008 --    31 C    0.974
    65   1 H    1.007 --    31 C    0.974
    66   1 H    1.000 --    32 C    0.970
    67   1 H    1.004 --    34 C    0.983
    68   1 H    1.006 --    34 C    0.971
    69   1 H    1.004 --    34 C    0.983
    70   1 H    1.000 --    35 C    0.970
    71   1 H    1.004 --    37 C    0.986
    72   1 H    1.008 --    37 C    0.973
    73   1 H    1.008 --    37 C    0.974
    74   1 H    1.002 --    39 C    0.975
    75   1 H    0.998 --    40 C    0.976
    76   6 C    3.925 --   116 C    1.363    77 C    1.347   118 H    0.971
    77   6 C    3.903 --    76 C    1.347    78 C    1.229    81 N    1.170
    78   6 C    3.953 --    79 C    1.596    77 C    1.229   119 H    0.977
    79   6 C    3.959 --    78 C    1.596    80 C    1.232   120 H    0.976
    80   6 C    3.896 --    82 C    1.309    79 C    1.232    81 N    1.173
    81   7 N    3.468 --    80 C    1.173    77 C    1.170   121 H    0.874
    82   6 C    3.940 --    92 C    1.343    80 C    1.309    83 C    1.003
    83   6 C    3.987 --    84 C    1.382    90 C    1.381    82 C    1.003
                            87 C    0.104
    84   6 C    3.984 --    86 C    1.420    83 C    1.382    85 C    1.020
                            89 C    0.103
    85   6 C    3.996 --    84 C    1.020   123 H    0.986   124 H    0.974
                           122 H    0.974
    86   6 C    3.993 --    84 C    1.420    87 C    1.414   125 H    0.970
                            90 C    0.103
    87   6 C    3.988 --    86 C    1.414    89 C    1.414    88 C    1.020
                            83 C    0.104
    88   6 C    3.996 --    87 C    1.020   127 H    0.983   128 H    0.983
                           126 H    0.971
    89   6 C    3.993 --    90 C    1.421    87 C    1.414   129 H    0.970
                            84 C    0.103
    90   6 C    3.984 --    89 C    1.421    83 C    1.381    91 C    1.020
                            86 C    0.103
    91   6 C    3.996 --    90 C    1.020   131 H    0.986   130 H    0.974
                           132 H    0.974
    92   6 C    3.916 --    82 C    1.343    95 N    1.281    93 C    1.124
    93   6 C    3.966 --    94 C    1.710    92 C    1.124   133 H    0.975
    94   6 C    3.964 --    93 C    1.710    96 C    1.128   134 H    0.975
    95   7 N    3.023 --    96 C    1.347    92 C    1.281
    96   6 C    3.911 --    95 N    1.347    97 C    1.254    94 C    1.128
    97   6 C    3.937 --    96 C    1.254    98 C    1.253   158 C    1.188
    98   6 C    3.887 --    97 C    1.253    99 C    1.248   102 N    1.190
    99   6 C    3.959 --   100 C    1.585    98 C    1.248   135 H    0.975
   100   6 C    3.955 --    99 C    1.585   101 C    1.238   136 H    0.975
   101   6 C    3.898 --   103 C    1.316   100 C    1.238   102 N    1.161
   102   7 N    3.473 --    98 C    1.190   101 C    1.161   137 H    0.873
   103   6 C    3.926 --   113 C    1.329   101 C    1.316   104 C    1.004
   104   6 C    3.987 --   111 C    1.381   105 C    1.381   103 C    1.004
                           108 C    0.104
   105   6 C    3.983 --   107 C    1.421   104 C    1.381   106 C    1.020
                           110 C    0.103
   106   6 C    3.996 --   105 C    1.020   138 H    0.986   140 H    0.974
                           139 H    0.974
   107   6 C    3.993 --   105 C    1.421   108 C    1.414   141 H    0.970
                           111 C    0.103
   108   6 C    3.988 --   110 C    1.414   107 C    1.414   109 C    1.020
                           104 C    0.104
   109   6 C    3.996 --   108 C    1.020   142 H    0.983   144 H    0.983
                           143 H    0.971
   110   6 C    3.993 --   111 C    1.420   108 C    1.414   145 H    0.970
                           105 C    0.103
   111   6 C    3.984 --   110 C    1.420   104 C    1.381   112 C    1.020
                           107 C    0.103
   112   6 C    3.996 --   111 C    1.020   146 H    0.986   148 H    0.974
                           147 H    0.974
   113   6 C    3.929 --   103 C    1.329   117 N    1.311   114 C    1.117
   114   6 C    3.968 --   115 C    1.723   113 C    1.117   149 H    0.975
   115   6 C    3.966 --   114 C    1.723   116 C    1.117   150 H    0.976
   116   6 C    3.930 --    76 C    1.363   117 N    1.304   115 C    1.117
   117   7 N    3.012 --   113 C    1.311   116 C    1.304
   118   1 H    1.002 --    76 C    0.971
   119   1 H    0.998 --    78 C    0.977
   120   1 H    1.002 --    79 C    0.976
   121   1 H    0.987 --    81 N    0.874
   122   1 H    1.008 --    85 C    0.974
   123   1 H    1.004 --    85 C    0.986
   124   1 H    1.007 --    85 C    0.974
   125   1 H    1.000 --    86 C    0.970
   126   1 H    1.006 --    88 C    0.971
   127   1 H    1.004 --    88 C    0.983
   128   1 H    1.004 --    88 C    0.983
   129   1 H    1.000 --    89 C    0.970
   130   1 H    1.008 --    91 C    0.974
   131   1 H    1.004 --    91 C    0.986
   132   1 H    1.008 --    91 C    0.974
   133   1 H    1.002 --    93 C    0.975
   134   1 H    1.003 --    94 C    0.975
   135   1 H    1.002 --    99 C    0.975
   136   1 H    1.002 --   100 C    0.975
   137   1 H    0.988 --   102 N    0.873
   138   1 H    1.004 --   106 C    0.986
   139   1 H    1.008 --   106 C    0.974
   140   1 H    1.007 --   106 C    0.974
   141   1 H    1.000 --   107 C    0.970
   142   1 H    1.004 --   109 C    0.983
   143   1 H    1.006 --   109 C    0.971
   144   1 H    1.004 --   109 C    0.983
   145   1 H    1.000 --   110 C    0.970
   146   1 H    1.004 --   112 C    0.986
   147   1 H    1.008 --   112 C    0.974
   148   1 H    1.008 --   112 C    0.974
   149   1 H    1.002 --   114 C    0.975
   150   1 H    0.998 --   115 C    0.976
   151   6 C    3.931 --   152 C    2.478   153 C    1.304
   152   6 C    3.920 --   151 C    2.478    22 C    1.184   154 C    0.197
   153   6 C    3.928 --   154 C    2.477   151 C    1.304
   154   6 C    3.922 --   153 C    2.477   159 C    1.187   152 C    0.197
   155   6 C    3.928 --   156 C    2.473   157 C    1.307
   156   6 C    3.923 --   155 C    2.473   180 C    1.190   158 C    0.198
   157   6 C    3.931 --   158 C    2.475   155 C    1.307
   158   6 C    3.921 --   157 C    2.475    97 C    1.188   156 C    0.198
   159   6 C    3.924 --   199 C    1.255   160 C    1.251   154 C    1.187
   160   6 C    3.888 --   161 C    1.252   159 C    1.251   164 N    1.189
   161   6 C    3.956 --   162 C    1.579   160 C    1.252   201 H    0.975
   162   6 C    3.956 --   161 C    1.579   163 C    1.243   202 H    0.975
   163   6 C    3.893 --   165 C    1.306   162 C    1.243   164 N    1.163
   164   7 N    3.470 --   160 C    1.189   163 C    1.163   203 H    0.874
   165   6 C    3.928 --   175 C    1.345   163 C    1.306   166 C    1.003
   166   6 C    3.987 --   173 C    1.382   167 C    1.380   165 C    1.003
                           170 C    0.104
   167   6 C    3.984 --   169 C    1.422   166 C    1.380   168 C    1.020
                           172 C    0.103
   168   6 C    3.996 --   167 C    1.020   206 H    0.986   205 H    0.974
                           204 H    0.974
   169   6 C    3.993 --   167 C    1.422   170 C    1.413   207 H    0.970
                           173 C    0.103
   170   6 C    3.988 --   172 C    1.415   169 C    1.413   171 C    1.020
                           166 C    0.104
   171   6 C    3.996 --   170 C    1.020   208 H    0.984   209 H    0.982
                           210 H    0.971
   172   6 C    3.993 --   173 C    1.419   170 C    1.415   211 H    0.970
                           167 C    0.103
   173   6 C    3.985 --   172 C    1.419   166 C    1.382   174 C    1.020
                           169 C    0.103
   174   6 C    3.996 --   173 C    1.020   213 H    0.986   212 H    0.974
                           214 H    0.973
   175   6 C    3.917 --   165 C    1.345   178 N    1.279   176 C    1.124
   176   6 C    3.967 --   177 C    1.710   175 C    1.124   215 H    0.975
   177   6 C    3.964 --   176 C    1.710   179 C    1.129   216 H    0.975
   178   7 N    3.011 --   179 C    1.346   175 C    1.279
   179   6 C    3.912 --   178 N    1.346   180 C    1.254   177 C    1.129
   180   6 C    3.925 --   179 C    1.254   181 C    1.249   156 C    1.190
   181   6 C    3.887 --   182 C    1.252   180 C    1.249   185 N    1.190
   182   6 C    3.956 --   183 C    1.579   181 C    1.252   217 H    0.975
   183   6 C    3.956 --   182 C    1.579   184 C    1.243   218 H    0.975
   184   6 C    3.894 --   186 C    1.306   183 C    1.243   185 N    1.163
   185   7 N    3.470 --   181 C    1.190   184 C    1.163   219 H    0.874
   186   6 C    3.928 --   196 C    1.344   184 C    1.306   187 C    1.003
   187   6 C    3.987 --   188 C    1.382   194 C    1.381   186 C    1.003
                           191 C    0.104
   188   6 C    3.984 --   190 C    1.420   187 C    1.382   189 C    1.020
                           193 C    0.103
   189   6 C    3.996 --   188 C    1.020   220 H    0.986   221 H    0.974
                           222 H    0.974
   190   6 C    3.993 --   188 C    1.420   191 C    1.415   223 H    0.970
                           194 C    0.103
   191   6 C    3.988 --   190 C    1.415   193 C    1.413   192 C    1.020
                           187 C    0.104
   192   6 C    3.996 --   191 C    1.020   224 H    0.984   226 H    0.982
                           225 H    0.971
   193   6 C    3.993 --   194 C    1.421   191 C    1.413   227 H    0.970
                           188 C    0.103
   194   6 C    3.984 --   193 C    1.421   187 C    1.381   195 C    1.020
                           190 C    0.103
   195   6 C    3.996 --   194 C    1.020   229 H    0.986   228 H    0.974
                           230 H    0.973
   196   6 C    3.917 --   186 C    1.344   200 N    1.280   197 C    1.124
   197   6 C    3.967 --   198 C    1.710   196 C    1.124   231 H    0.975
   198   6 C    3.964 --   197 C    1.710   199 C    1.129   232 H    0.975
   199   6 C    3.912 --   200 N    1.345   159 C    1.255   198 C    1.129
   200   7 N    3.011 --   199 C    1.345   196 C    1.280
   201   1 H    1.002 --   161 C    0.975
   202   1 H    1.002 --   162 C    0.975
   203   1 H    0.988 --   164 N    0.874
   204   1 H    1.008 --   168 C    0.974
   205   1 H    1.007 --   168 C    0.974
   206   1 H    1.004 --   168 C    0.986
   207   1 H    1.000 --   169 C    0.970
   208   1 H    1.004 --   171 C    0.984
   209   1 H    1.005 --   171 C    0.982
   210   1 H    1.006 --   171 C    0.971
   211   1 H    1.000 --   172 C    0.970
   212   1 H    1.008 --   174 C    0.974
   213   1 H    1.004 --   174 C    0.986
   214   1 H    1.008 --   174 C    0.973
   215   1 H    1.002 --   176 C    0.975
   216   1 H    1.003 --   177 C    0.975
   217   1 H    1.002 --   182 C    0.975
   218   1 H    1.002 --   183 C    0.975
   219   1 H    0.988 --   185 N    0.874
   220   1 H    1.004 --   189 C    0.986
   221   1 H    1.007 --   189 C    0.974
   222   1 H    1.008 --   189 C    0.974
   223   1 H    1.000 --   190 C    0.970
   224   1 H    1.004 --   192 C    0.984
   225   1 H    1.006 --   192 C    0.971
   226   1 H    1.005 --   192 C    0.982
   227   1 H    1.000 --   193 C    0.970
   228   1 H    1.008 --   195 C    0.974
   229   1 H    1.004 --   195 C    0.986
   230   1 H    1.008 --   195 C    0.973
   231   1 H    1.002 --   197 C    0.975
   232   1 H    1.003 --   198 C    0.975
 ---------------------------------------------------------------------------

           -------------------------------------------------
          | TOTAL ENERGY             -348.938752019520 Eh   |
          | GRADIENT NORM               0.000972292274 Eh/α |
          | HOMO-LUMO GAP               0.888639135592 eV   |
           -------------------------------------------------

 * finished run on 2022/07/28 at 19:02:02.874
