   * xtb version 6.5.1 (b24c23e) compiled by 'conda@728c89f4b128' on 2022-07-12
          program call               : xtb Fe_H_C8_4.xyz --gfn 1 --opt -T 48

   ID    Z sym.   atoms
    1   26 Fe     1, 37, 97, 132
    2    6 C      2-6, 8-11, 13-18, 20-24, 38-42, 44-47, 49-54, 56-60, 73-96,
                  98-102, 104-107, 109-114, 116-120, 133-137, 139-142,
                  144-149, 151-155
    3    7 N      7, 12, 19, 25, 43, 48, 55, 61, 103, 108, 115, 121, 138,
                  143, 150, 156
    4    1 H      26-36, 62-72, 122-131, 157-166

          :  Hamiltonian                  GFN1-xTB          :
 * total energy  :  -299.7971137 Eh     change       -0.2243780E-08 Eh
 * total energy  :  -303.3095220 Eh     change       -0.3512408E+01 Eh
 * total energy  :  -303.9127746 Eh     change       -0.6032525E+00 Eh
 * total energy  :  -304.1661303 Eh     change       -0.2533557E+00 Eh
 * total energy  :  -304.3024581 Eh     change       -0.1363279E+00 Eh
 * total energy  :  -304.3857229 Eh     change       -0.8326479E-01 Eh
 * total energy  :  -304.4487780 Eh     change       -0.6305510E-01 Eh
 * total energy  :  -304.5063536 Eh     change       -0.5757563E-01 Eh
 * total energy  :  -304.5698381 Eh     change       -0.6348449E-01 Eh
 * total energy  :  -304.6384838 Eh     change       -0.6864562E-01 Eh
 * total energy  :  -304.9499675 Eh     change       -0.1213430E-03 Eh
 * total energy  :  -304.9500263 Eh     change       -0.5886746E-04 Eh
 * total energy  :  -304.9500657 Eh     change       -0.3934473E-04 Eh
 * total energy  :  -304.9500827 Eh     change       -0.1697485E-04 Eh
 * total energy  :  -304.9500853 Eh     change       -0.2662919E-05 Eh
 * total energy  :  -304.9500946 Eh     change       -0.9247363E-05 Eh
 * total energy  :  -304.9500920 Eh     change        0.2616615E-05 Eh
 * total energy  :  -304.9501008 Eh     change       -0.8801068E-05 Eh
 * total energy  :  -304.9501035 Eh     change       -0.2703272E-05 Eh
   *** GEOMETRY OPTIMIZATION CONVERGED AFTER 42 ITERATIONS ***

 final structure:
================
166
 xtb: 6.5.1 (b24c23e)
Fe          16.55852120553454       -0.01765916980599       -0.01579425260026
C           13.14556393777677       -0.05634977801071       -0.05442882411420
C           13.81309399082557       -0.90798026974646       -0.91062627254701
C           13.15532894300652       -1.80643004489846       -1.81405556852169
C           14.12925666641489       -2.46949270199039       -2.48058846785400
C           15.37910049878533       -1.97441438435685       -1.98241207176925
N           15.17325161045967       -1.02058273895428       -1.02353368705440
C           16.60984934462894       -2.41703421936397       -2.42594403876202
C           17.81860358211523       -1.95142241002185       -1.95636606367297
C           19.08658639320611       -2.42236135195809       -2.42694049193759
C           20.03312550529205       -1.73944951289598       -1.73983457675085
N           17.99055725451021       -0.98926790525517       -0.99008831355417
C           19.33923705137690       -0.85473893625946       -0.85357331494683
C           19.99160452552897        0.02106502642595        0.02326561634897
C           19.30038267042280        0.88154324603946        0.88510339256196
C           19.95378389583445        1.78099365052580        1.78708408649792
C           18.97659486975792        2.44307471782730        2.45145748623009
C           17.73052930079524        1.94425892059003        1.95180874293089
N           17.94614997741984        0.98587430397231        0.99061356591116
C           16.50105863621647        2.38305251766109        2.39283430042035
C           15.29094287597093        1.91271039880263        1.92187830368490
C           14.01918309392971        2.37935805152325        2.39124794131735
C           13.07588030719053        1.69381191398801        1.70372676288581
C           13.77414674179636        0.81028000089665        0.81615239648624
N           15.12842949753556        0.95383504893583        0.95963098045042
H           12.06157005022698       -0.06873098175870       -0.06657105689594
H           12.08506803873950       -1.90068605071700       -1.90903230282814
H           14.03330154336596       -3.22707454319244       -3.24231830829617
H           16.62609403849562       -3.18183265652904       -3.19435678774012
H           19.21466348291148       -3.17817697845104       -3.18545671627753
H           21.10626426988937       -1.81412204653991       -1.81300631412928
H           21.02310272349470        1.87896489604567        1.88506525625398
H           19.07031405449659        3.20169471010895        3.21221923753934
H           16.48252324109899        3.14838917635659        3.16067559037149
H           13.88866062588120        3.13494837326386        3.14980861921865
H           12.00187621523461        1.76363399426410        1.77449411858391
Fe          72.38450258065311        0.00055711887375       -0.00094410584209
C           75.79756020559128        0.05910093824643       -0.01366651938347
C           75.12827083143243        1.26408798881498       -0.07517490804107
C           75.78427112338859        2.53748140049123       -0.13945082944784
C           74.80920860576664        3.47549847188434       -0.18147679960723
C           73.56013741843451        2.77285940236288       -0.14289738540282
N           73.76785934628556        1.42177829111887       -0.08060627378264
C           72.32894600590797        3.39748441424184       -0.16430582338056
C           71.12112005854843        2.73514059901800       -0.12653633562470
C           69.85234741299084        3.39890449420157       -0.14616450050675
C           68.90698524054230        2.43008716439226       -0.09996075731632
N           70.95112277673749        1.37267456930558       -0.06900267253807
C           69.60210658703379        1.17943015794421       -0.05322153084137
C           68.95187843760398       -0.05950299652026       -0.01337849227369
C           69.64426540831673       -1.27498201554668        0.03063860084670
C           68.99285388813179       -2.54871601144261        0.08160349960211
C           69.97125124752182       -3.48398875265897        0.13287674479634
C           71.21632395408828       -2.77676304459979        0.11161043961328
N           70.99925609865019       -1.42135687200582        0.04624176817364
C           72.44647409829656       -3.39664638025250        0.15220940362620
C           73.65538324014820       -2.73003126160906        0.12753354979689
C           74.92809490768538       -3.38887032694817        0.16674695269977
C           75.87008512965383       -2.41792195885561        0.11844796833614
C           75.17035082577848       -1.16822980118994        0.05075500742678
N           73.81629063519524       -1.37293408152285        0.05691624458632
H           76.88150869409078        0.07781713621106       -0.01458513138262
H           76.85436475824734        2.67236559994147       -0.14898918185155
H           74.90389029620330        4.54869024692606       -0.23330542496889
H           72.31096470559616        4.48048376966940       -0.21312854066399
H           69.72294043581755        4.46865836879909       -0.18994303740809
H           67.83372786443971        2.53351047778985       -0.09816047954712
H           67.92374468102160       -2.68895182753875        0.07980938997663
H           69.87892788175151       -4.55737599005609        0.18164965170356
H           72.46602984625012       -4.47942367131729        0.20541362712912
H           75.06009179831214       -4.45787609310232        0.22326056469020
H           76.94421965735498       -2.51567561091059        0.12681082038488
C           21.39208190498475        0.03391379456356        0.03737967332992
C           22.61852550685399        0.04032223381376        0.04190119269394
C           23.95806934519538        0.04223979391225        0.04382252793274
C           25.19087811758978        0.03602514334172        0.03884198913225
C           26.52536123370545        0.02755615206898        0.03138168455967
C           27.75826518161564        0.01701993293090        0.02170435509575
C           29.09731670718695        0.00570522979734        0.01142826161637
C           30.32397024709310       -0.00446855191227        0.00134530446184
C           40.00455702370122       -0.05718060085832       -0.04303571305061
C           41.23151971287232       -0.05488650217554       -0.04037346730545
C           42.57006788009901       -0.04865804117974       -0.03576259149119
C           43.80316837337095       -0.03457221846278       -0.02713952265231
C           45.13699270008531       -0.02484822283908       -0.01841014947131
C           46.37025933579706       -0.01872831142232       -0.01232997864224
C           47.70886555729869       -0.01407083409371       -0.00905193837953
C           48.93587454930671       -0.00979449946931       -0.01039348418202
C           58.61725436376437       -0.06150267324911       -0.03580707336893
C           59.84339247219027       -0.07215027791743       -0.03587260617631
C           61.18360117534353       -0.08202241108520       -0.03519021515957
C           62.41590023842421       -0.09018519130027       -0.03256708257539
C           63.75151718056071       -0.09513391426369       -0.02966827584108
C           64.98370596961226       -0.09720879987314       -0.02522654889376
C           66.32432766032920       -0.09098131998341       -0.02121486112471
C           67.55004848802137       -0.08111792632618       -0.01678944938907
Fe          35.16463225662947       -0.03033104525454       -0.02584837455819
C           31.72343927054877       -0.01327324951334       -0.00681169205412
C           32.40590501889943        0.90079694373578        0.80706542794294
C           31.74257524122520        1.84796057614351        1.65028702961272
C           32.71332213024563        2.55598068722420        2.27654104419606
C           33.96290010289916        2.03548813481131        1.81127549242316
N           33.75857262380588        1.02023074062754        0.90988133660946
C           35.18943766335919        2.50808041766664        2.22962879069133
C           36.40631595789713        2.02267670350544        1.79929208873145
C           37.66609689712536        2.52996775320460        2.25181298085181
C           38.62286496384274        1.81148337225178        1.61618842961731
N           36.59103550812301        1.00488072058263        0.89610661504226
C           37.94097474606382        0.87118155096751        0.77996472825975
C           38.60557555748399       -0.05157972080987       -0.03942506978433
C           37.92356684449987       -0.96503324138471       -0.85442800039383
C           38.58692921314901       -1.91206730817548       -1.69781399802074
C           37.61617444034805       -2.61593816427108       -2.32869813076312
C           36.36636090497966       -2.09364360804618       -1.86550748407695
N           36.57096670855447       -1.08091635423947       -0.96098303626173
C           35.13996212199466       -2.56307564786270       -2.28682423072984
C           33.92263513999240       -2.07878966214375       -1.85494128361188
C           32.66288934917516       -2.58607839500339       -2.30739198524274
C           31.70602229996577       -1.87128731828721       -1.66755981769852
C           32.38773174879808       -0.93276830920368       -0.82939271145203
N           33.73809299323613       -1.06430665684387       -0.94838422640468
H           30.67237504410885        1.94434904399993        1.73866830130491
H           32.61237725362378        3.35856454620030        2.98967064429603
H           35.19727691223846        3.31907015316171        2.94955103696201
H           37.78283279487278        3.33157711758933        2.96361592087403
H           39.69484508440411        1.89661946504659        1.69397348455559
H           39.65718285598567       -2.01090072283825       -1.78330690358694
H           37.71724345241952       -3.41704113933041       -3.04348918098501
H           35.13197613417553       -3.37184965072405       -3.00926363508137
H           32.54616581613713       -3.38553550938246       -3.02164288140780
H           30.63397946650000       -1.95759916022608       -1.74342789949475
Fe          53.77583231316057       -0.03128748638393       -0.02611724710680
C           50.33493318834358       -0.01399820050686       -0.01435905396698
C           51.01541538191238        0.89930643570008        0.80198505190938
C           50.35023776451468        1.84420372908487        1.64654973281668
C           51.31958174973605        2.55285183482290        2.27404027168676
C           52.57050853257172        2.03562400482473        1.80793352567144
N           52.36766042626696        1.02012959268062        0.90578841736966
C           53.79582060828132        2.51361075786955        2.22167300113987
C           55.01387350465324        2.03330142891539        1.78666181898711
C           56.27268014359845        2.55011231547865        2.23076470143587
C           57.23081035063390        1.83301331296548        1.59549309483527
N           55.19994232509709        1.01201811961141        0.88849833167002
C           56.55096339337224        0.88308764405939        0.76871883974309
C           57.21650325457825       -0.05183041489138       -0.03421411858797
C           56.53628220893681       -0.97752889705398       -0.83544645286823
C           57.20088400571524       -1.93400325156907       -1.66704111910221
C           56.23128994632750       -2.63834851697147       -2.29918545243768
C           54.98088002563776       -2.10760584446134       -1.84795222919440
N           55.18325382590837       -1.09004242256973       -0.94915716247655
C           53.75517009226750       -2.57395051499265       -2.27656346325142
C           52.53769669051058       -2.08372138679037       -1.85436351961642
C           51.27853126539556       -2.58781545567910       -2.31244087013066
C           50.32073476702067       -1.87043820948161       -1.67726808894148
C           51.00114496739648       -0.93311373627911       -0.83632433128495
N           52.35126011029142       -1.06725542354810       -0.94965720351108
H           49.27978391795359        1.93877873237115        1.73437232827445
H           51.21709970482288        3.35440958452252        2.98812060981679
H           53.80297916683760        3.32593088567423        2.94010645222785
H           56.38798282191972        3.35638735414756        2.93754802664633
H           58.30266350106189        1.92370705747852        1.66881537625343
H           58.27121855815749       -2.03719918014577       -1.74581572150082
H           56.33357462448087       -3.44459198874327       -3.00800087117895
H           53.74919785242415       -3.38541707419816       -2.99595810521483
H           51.16296610516981       -3.38745983400242       -3.02666264263389
H           49.24886411915175       -1.95439217989549       -1.75801623984465

          :  Hamiltonian                  GFN1-xTB          :
         :: total energy            -304.950103461778 Eh    ::
         :: gradient norm              0.000649033770 Eh/a0 ::
         :: HOMO-LUMO gap              0.049170105546 eV    ::
         :: SCC energy              -310.325112331465 Eh    ::
         :: repulsion energy           5.516982892240 Eh    ::

    * Orbital Energies and Occupations

         #    Occupation            Energy/Eh            Energy/eV
      -------------------------------------------------------------
         1        2.0000           -0.7749273             -21.0868
       ...           ...                  ...                  ...
       273        1.9917           -0.3929200             -10.6919
       274        1.9915           -0.3928972             -10.6913
       275        1.9914           -0.3928850             -10.6909
       276        1.9688           -0.3916516             -10.6574
       277        1.9667           -0.3915894             -10.6557
       278        1.9650           -0.3915397             -10.6543
       279        1.9485           -0.3911645             -10.6441
       280        1.9424           -0.3910554             -10.6412
       281        1.9416           -0.3910426             -10.6408
       282        1.9350           -0.3909376             -10.6380
       283        1.9282           -0.3908397             -10.6353
       284        1.9195           -0.3907263             -10.6322
       285        1.1795           -0.3880580             -10.5596 (HOMO)
       286        0.3533           -0.3862511             -10.5104 (LUMO)
       287        0.3491           -0.3862373             -10.5101
       288        0.3217           -0.3861440             -10.5075
       289        0.3148           -0.3861193             -10.5068
       290                         -0.3505090              -9.5378
       291                         -0.3435159              -9.3475
       292                         -0.3361343              -9.1467
       293                         -0.3334361              -9.0733
       294                         -0.3329447              -9.0599
       295                         -0.3324646              -9.0468
       296                         -0.3291548              -8.9568
       ...                                ...                  ...
       600                          1.5962780              43.4369
      -------------------------------------------------------------
                  HL-Gap            0.0018070 Eh            0.0492 eV

Wiberg/Mayer (AO) data.
largest (>0.10) Wiberg bond orders for each atom

     #   Z sym  total        # sym  WBO       # sym  WBO       # sym  WBO
 ---------------------------------------------------------------------------
     1  26 Fe   3.104 --    25 N    0.670     7 N    0.670    12 N    0.663
                            19 N    0.663
     2   6 C    3.924 --     3 C    1.364    24 C    1.364    26 H    0.971
     3   6 C    3.924 --     2 C    1.364     7 N    1.213     4 C    1.169
     4   6 C    3.958 --     5 C    1.655     3 C    1.169    27 H    0.975
     5   6 C    3.960 --     4 C    1.655     6 C    1.170    28 H    0.975
     6   6 C    3.920 --     8 C    1.355     7 N    1.218     5 C    1.170
     7   7 N    3.386 --     6 C    1.218     3 C    1.213     1 Fe   0.670
     8   6 C    3.930 --     9 C    1.377     6 C    1.355    29 H    0.970
     9   6 C    3.917 --     8 C    1.377    12 N    1.193    10 C    1.173
    10   6 C    3.955 --    11 C    1.645     9 C    1.173    30 H    0.975
    11   6 C    3.959 --    10 C    1.645    13 C    1.183    31 H    0.973
    12   7 N    3.385 --    13 C    1.250     9 C    1.193     1 Fe   0.663
    13   6 C    3.902 --    14 C    1.251    12 N    1.250    11 C    1.183
    14   6 C    3.927 --    15 C    1.252    13 C    1.251    73 C    1.204
    15   6 C    3.902 --    14 C    1.252    19 N    1.250    16 C    1.183
    16   6 C    3.959 --    17 C    1.645    15 C    1.183    32 H    0.973
    17   6 C    3.955 --    16 C    1.645    18 C    1.173    33 H    0.975
    18   6 C    3.917 --    20 C    1.377    19 N    1.193    17 C    1.173
    19   7 N    3.385 --    15 C    1.250    18 C    1.193     1 Fe   0.663
    20   6 C    3.930 --    18 C    1.377    21 C    1.355    34 H    0.970
    21   6 C    3.920 --    20 C    1.355    25 N    1.218    22 C    1.170
    22   6 C    3.960 --    23 C    1.655    21 C    1.170    35 H    0.975
    23   6 C    3.958 --    22 C    1.655    24 C    1.169    36 H    0.975
    24   6 C    3.924 --     2 C    1.364    25 N    1.213    23 C    1.169
    25   7 N    3.386 --    21 C    1.218    24 C    1.213     1 Fe   0.670
    26   1 H    1.000 --     2 C    0.971
    27   1 H    0.998 --     4 C    0.975
    28   1 H    0.997 --     5 C    0.975
    29   1 H    1.000 --     8 C    0.970
    30   1 H    0.997 --    10 C    0.975
    31   1 H    1.001 --    11 C    0.973
    32   1 H    1.001 --    16 C    0.973
    33   1 H    0.997 --    17 C    0.975
    34   1 H    1.000 --    20 C    0.970
    35   1 H    0.997 --    22 C    0.975
    36   1 H    0.998 --    23 C    0.975
    37  26 Fe   3.115 --    43 N    0.673    61 N    0.673    55 N    0.666
                            48 N    0.666
    38   6 C    3.927 --    39 C    1.365    60 C    1.365    62 H    0.971
    39   6 C    3.924 --    38 C    1.365    43 N    1.213    40 C    1.169
    40   6 C    3.958 --    41 C    1.655    39 C    1.169    63 H    0.975
    41   6 C    3.960 --    40 C    1.655    42 C    1.170    64 H    0.975
    42   6 C    3.920 --    44 C    1.357    43 N    1.217    41 C    1.170
    43   7 N    3.388 --    42 C    1.217    39 C    1.213    37 Fe   0.673
    44   6 C    3.933 --    45 C    1.376    42 C    1.357    65 H    0.970
    45   6 C    3.916 --    44 C    1.376    48 N    1.194    46 C    1.174
    46   6 C    3.955 --    47 C    1.645    45 C    1.174    66 H    0.975
    47   6 C    3.959 --    46 C    1.645    49 C    1.183    67 H    0.973
    48   7 N    3.388 --    49 C    1.247    45 C    1.194    37 Fe   0.666
    49   6 C    3.903 --    50 C    1.255    48 N    1.247    47 C    1.183
    50   6 C    3.931 --    51 C    1.255    49 C    1.255    96 C    1.198
    51   6 C    3.903 --    50 C    1.255    55 N    1.247    52 C    1.183
    52   6 C    3.959 --    53 C    1.645    51 C    1.183    68 H    0.973
    53   6 C    3.955 --    52 C    1.645    54 C    1.174    69 H    0.975
    54   6 C    3.916 --    56 C    1.376    55 N    1.194    53 C    1.174
    55   7 N    3.388 --    51 C    1.247    54 C    1.194    37 Fe   0.666
    56   6 C    3.933 --    54 C    1.376    57 C    1.357    70 H    0.970
    57   6 C    3.920 --    56 C    1.357    61 N    1.217    58 C    1.170
    58   6 C    3.960 --    59 C    1.655    57 C    1.170    71 H    0.975
    59   6 C    3.958 --    58 C    1.655    60 C    1.169    72 H    0.975
    60   6 C    3.924 --    38 C    1.365    61 N    1.213    59 C    1.169
    61   7 N    3.388 --    57 C    1.217    60 C    1.213    37 Fe   0.673
    62   1 H    1.000 --    38 C    0.971
    63   1 H    0.998 --    40 C    0.975
    64   1 H    0.998 --    41 C    0.975
    65   1 H    1.000 --    44 C    0.970
    66   1 H    0.997 --    46 C    0.975
    67   1 H    1.001 --    47 C    0.973
    68   1 H    1.001 --    52 C    0.973
    69   1 H    0.997 --    53 C    0.975
    70   1 H    1.000 --    56 C    0.970
    71   1 H    0.998 --    58 C    0.975
    72   1 H    0.998 --    59 C    0.975
    73   6 C    3.863 --    74 C    2.414    14 C    1.204    76 C    0.183
    74   6 C    3.926 --    73 C    2.414    75 C    1.362
    75   6 C    3.880 --    76 C    2.307    74 C    1.362    78 C    0.178
    76   6 C    3.916 --    75 C    2.307    77 C    1.389    73 C    0.183
    77   6 C    3.913 --    78 C    2.305    76 C    1.389    80 C    0.182
    78   6 C    3.881 --    77 C    2.305    79 C    1.364    75 C    0.178
    79   6 C    3.921 --    80 C    2.409    78 C    1.364
    80   6 C    3.864 --    79 C    2.409    98 C    1.209    77 C    0.182
    81   6 C    3.863 --    82 C    2.405   110 C    1.212    84 C    0.182
    82   6 C    3.921 --    81 C    2.405    83 C    1.367
    83   6 C    3.880 --    84 C    2.300    82 C    1.367    86 C    0.177
    84   6 C    3.913 --    83 C    2.300    85 C    1.393    81 C    0.182
    85   6 C    3.913 --    86 C    2.300    84 C    1.393    88 C    0.182
    86   6 C    3.880 --    85 C    2.300    87 C    1.367    83 C    0.177
    87   6 C    3.921 --    88 C    2.405    86 C    1.367
    88   6 C    3.863 --    87 C    2.405   133 C    1.211    85 C    0.182
    89   6 C    3.866 --    90 C    2.417   145 C    1.204    92 C    0.183
    90   6 C    3.923 --    89 C    2.417    91 C    1.358
    91   6 C    3.883 --    92 C    2.313    90 C    1.358    94 C    0.178
    92   6 C    3.915 --    91 C    2.313    93 C    1.383    89 C    0.183
    93   6 C    3.917 --    94 C    2.315    92 C    1.383    96 C    0.183
    94   6 C    3.882 --    93 C    2.315    95 C    1.356    91 C    0.178
    95   6 C    3.929 --    96 C    2.422    94 C    1.356
    96   6 C    3.865 --    95 C    2.422    50 C    1.198    93 C    0.183
    97  26 Fe   3.054 --   121 N    0.651   103 N    0.651   115 N    0.651
                           108 N    0.651
    98   6 C    3.910 --   120 C    1.247    99 C    1.247    80 C    1.209
    99   6 C    3.903 --   103 N    1.253    98 C    1.247   100 C    1.185
   100   6 C    3.959 --   101 C    1.641    99 C    1.185   122 H    0.973
   101   6 C    3.957 --   100 C    1.641   102 C    1.177   123 H    0.975
   102   6 C    3.915 --   104 C    1.365   103 N    1.200   101 C    1.177
   103   7 N    3.374 --    99 C    1.253   102 C    1.200    97 Fe   0.651
   104   6 C    3.922 --   105 C    1.367   102 C    1.365   124 H    0.970
   105   6 C    3.915 --   104 C    1.367   108 N    1.198   106 C    1.176
   106   6 C    3.957 --   107 C    1.642   105 C    1.176   125 H    0.975
   107   6 C    3.959 --   106 C    1.642   109 C    1.185   126 H    0.973
   108   7 N    3.373 --   109 C    1.255   105 C    1.198    97 Fe   0.651
   109   6 C    3.903 --   108 N    1.255   110 C    1.245   107 C    1.185
   110   6 C    3.910 --   111 C    1.246   109 C    1.245    81 C    1.212
   111   6 C    3.904 --   115 N    1.254   110 C    1.246   112 C    1.185
   112   6 C    3.959 --   113 C    1.642   111 C    1.185   127 H    0.973
   113   6 C    3.957 --   112 C    1.642   114 C    1.176   128 H    0.975
   114   6 C    3.915 --   116 C    1.367   115 N    1.198   113 C    1.176
   115   7 N    3.372 --   111 C    1.254   114 C    1.198    97 Fe   0.651
   116   6 C    3.922 --   114 C    1.367   117 C    1.365   129 H    0.970
   117   6 C    3.915 --   116 C    1.365   121 N    1.200   118 C    1.177
   118   6 C    3.957 --   119 C    1.641   117 C    1.177   130 H    0.975
   119   6 C    3.959 --   118 C    1.641   120 C    1.185   131 H    0.973
   120   6 C    3.903 --   121 N    1.253    98 C    1.247   119 C    1.185
   121   7 N    3.374 --   120 C    1.253   117 C    1.200    97 Fe   0.651
   122   1 H    1.001 --   100 C    0.973
   123   1 H    0.997 --   101 C    0.975
   124   1 H    1.001 --   104 C    0.970
   125   1 H    0.997 --   106 C    0.975
   126   1 H    1.001 --   107 C    0.973
   127   1 H    1.001 --   112 C    0.973
   128   1 H    0.997 --   113 C    0.975
   129   1 H    1.001 --   116 C    0.970
   130   1 H    0.997 --   118 C    0.975
   131   1 H    1.001 --   119 C    0.973
   132  26 Fe   3.059 --   143 N    0.653   150 N    0.653   156 N    0.652
                           138 N    0.652
   133   6 C    3.911 --   134 C    1.247   155 C    1.246    88 C    1.211
   134   6 C    3.903 --   138 N    1.254   133 C    1.247   135 C    1.184
   135   6 C    3.959 --   136 C    1.642   134 C    1.184   157 H    0.973
   136   6 C    3.957 --   135 C    1.642   137 C    1.176   158 H    0.975
   137   6 C    3.915 --   139 C    1.369   138 N    1.197   136 C    1.176
   138   7 N    3.373 --   134 C    1.254   137 C    1.197   132 Fe   0.652
   139   6 C    3.923 --   137 C    1.369   140 C    1.363   159 H    0.970
   140   6 C    3.914 --   139 C    1.363   143 N    1.201   141 C    1.177
   141   6 C    3.957 --   142 C    1.641   140 C    1.177   160 H    0.975
   142   6 C    3.959 --   141 C    1.641   144 C    1.185   161 H    0.973
   143   7 N    3.375 --   144 C    1.250   140 C    1.201   132 Fe   0.653
   144   6 C    3.904 --   145 C    1.250   143 N    1.250   142 C    1.185
   145   6 C    3.913 --   146 C    1.250   144 C    1.250    89 C    1.204
   146   6 C    3.904 --   145 C    1.250   150 N    1.250   147 C    1.185
   147   6 C    3.959 --   148 C    1.641   146 C    1.185   162 H    0.973
   148   6 C    3.957 --   147 C    1.641   149 C    1.177   163 H    0.975
   149   6 C    3.914 --   151 C    1.363   150 N    1.201   148 C    1.177
   150   7 N    3.375 --   146 C    1.250   149 C    1.201   132 Fe   0.653
   151   6 C    3.923 --   152 C    1.369   149 C    1.363   164 H    0.970
   152   6 C    3.915 --   151 C    1.369   156 N    1.197   153 C    1.176
   153   6 C    3.957 --   154 C    1.642   152 C    1.176   165 H    0.975
   154   6 C    3.959 --   153 C    1.642   155 C    1.184   166 H    0.973
   155   6 C    3.903 --   156 N    1.255   133 C    1.246   154 C    1.184
   156   7 N    3.373 --   155 C    1.255   152 C    1.197   132 Fe   0.652
   157   1 H    1.001 --   135 C    0.973
   158   1 H    0.997 --   136 C    0.975
   159   1 H    1.001 --   139 C    0.970
   160   1 H    0.997 --   141 C    0.975
   161   1 H    1.001 --   142 C    0.973
   162   1 H    1.001 --   147 C    0.973
   163   1 H    0.997 --   148 C    0.975
   164   1 H    1.001 --   151 C    0.970
   165   1 H    0.997 --   153 C    0.975
   166   1 H    1.001 --   154 C    0.973
 ---------------------------------------------------------------------------

           -------------------------------------------------
          | TOTAL ENERGY             -304.950103461778 Eh   |
          | GRADIENT NORM               0.000649033770 Eh/α |
          | HOMO-LUMO GAP               0.049170105546 eV   |
           -------------------------------------------------

 * finished run on 2022/07/29 at 16:22:21.636
