   * xtb version 6.5.1 (b24c23e) compiled by 'conda@728c89f4b128' on 2022-07-12
          program call               : xtb Cu_PhCN_C4_3.xyz --gfn 1 --opt -T 48

   ID    Z sym.   atoms
    1   29 Cu     1, 59, 125
    2    6 C      2-6, 8-13, 15-19, 21-26, 28-33, 35-40, 60-64, 66-71, 73-77,
                  79-84, 86-91, 93-98, 117-124, 126-130, 132-137, 139-143,
                  145-150, 152-157, 159-164
    3    7 N      7, 14, 20, 27, 34, 41, 65, 72, 78, 85, 92, 99, 131, 138,
                  144, 151, 158, 165
    4    1 H      42-58, 100-116, 166-181

          :  Hamiltonian                  GFN1-xTB          :
 * total energy  :  -329.3251306 Eh     change        0.1011813E-09 Eh
 * total energy  :  -329.6319705 Eh     change       -0.3068399E+00 Eh
 * total energy  :  -329.7541184 Eh     change       -0.1221479E+00 Eh
 * total energy  :  -329.8289073 Eh     change       -0.7478890E-01 Eh
 * total energy  :  -329.8894921 Eh     change       -0.6058478E-01 Eh
 * total energy  :  -329.9222697 Eh     change       -0.3277760E-01 Eh
 * total energy  :  -329.9424187 Eh     change       -0.2014905E-01 Eh
 * total energy  :  -329.9548954 Eh     change       -0.1247673E-01 Eh
 * total energy  :  -329.9671577 Eh     change       -0.1226226E-01 Eh
 * total energy  :  -329.9761143 Eh     change       -0.8956567E-02 Eh
 * total energy  :  -330.0491401 Eh     change       -0.3953671E-05 Eh
 * total energy  :  -330.0491485 Eh     change       -0.8406106E-05 Eh
 * total energy  :  -330.0491448 Eh     change        0.3763920E-05 Eh
 * total energy  :  -330.0491594 Eh     change       -0.1465239E-04 Eh
 * total energy  :  -330.0491605 Eh     change       -0.1038732E-05 Eh
 * total energy  :  -330.0491678 Eh     change       -0.7307989E-05 Eh
 * total energy  :  -330.0491696 Eh     change       -0.1842931E-05 Eh
 * total energy  :  -330.0491735 Eh     change       -0.3862610E-05 Eh
 * total energy  :  -330.0491757 Eh     change       -0.2259796E-05 Eh
   *** GEOMETRY OPTIMIZATION CONVERGED AFTER 60 ITERATIONS ***

 final structure:
================
181
 xtb: 6.5.1 (b24c23e)
Cu          33.75211302046981        0.03774593206782        0.02230153067318
C           30.34677914724547        0.05856127606060        0.10372674913158
C           30.98342383545944        1.27263486618488        0.31209108860330
C           30.30981274393859        2.52369361699133        0.51287114275052
C           31.26974637396381        3.46727063856078        0.67582803513440
C           32.53950593927159        2.79792225289819        0.58884478078053
N           32.33452378426389        1.46793395481154        0.36013403592241
C           33.78559730439702        3.41958075746647        0.70014301018826
C           33.80021634303024        4.87572166312277        0.98224439218414
C           33.24925844621956        5.37484480193997        2.16468795398365
C           33.26019117753356        6.73265470921039        2.42915586765345
C           33.82035439911803        7.62176455088124        1.50705676519301
C           33.82812293348596        9.02007535108363        1.77368957377863
N           33.83199425907300       10.15039456668775        1.98934497227128
C           34.37177555457534        7.12744309521878        0.32124918361390
C           34.36287268448395        5.76780560305665        0.06650485732072
C           35.01821999618075        2.77726504080211        0.56540871973528
C           36.29607296899709        3.40481550285802        0.74989782269957
C           37.24054334185958        2.45141893728250        0.54763445198658
N           35.20426306480525        1.45377121442925        0.26595661588866
C           36.54751705092657        1.23544876889938        0.24453418458949
C           37.18113284002087        0.01354198350014       -0.04214044527493
C           36.51986909475681       -1.19733800551473       -0.31214172940690
C           37.18363984555416       -2.41971225872756       -0.65221811953411
C           36.21868103195375       -3.35766686996166       -0.82850449839004
C           34.95779350852989       -2.71512450658803       -0.58716648602201
N           35.17377998726057       -1.39690771172056       -0.28433659947686
C           33.71202520252920       -3.34079930037352       -0.67158227369666
C           33.69429824526204       -4.79400547306131       -0.96707690106952
C           33.07185959659186       -5.27482127429092       -2.12145101905628
C           33.05261098376069       -6.62969661117736       -2.39989471576660
C           33.65456332680151       -7.53453901201888       -1.52041526940714
C           33.63229062358408       -8.92986117736302       -1.80138589767828
N           33.61258194460165      -10.05770347936666       -2.02874772432870
C           34.27731504085371       -7.05880270127776       -0.36265649242980
C           34.29733783649529       -5.70204785894018       -0.09360612904068
C           32.48041095974731       -2.70477951817660       -0.49632606616171
C           31.20002001265520       -3.35896082528154       -0.52122519821021
C           30.26069311974080       -2.40500453250051       -0.30671865465219
C           30.95817288216729       -1.16251545006967       -0.13691983139232
N           32.30282324133920       -1.37347253281561       -0.25290231067024
H           29.26204287038000        0.06482134756728        0.13073170624413
H           29.23877421951807        2.65092196660795        0.51558273883309
H           31.13707140400088        4.52603130415637        0.82990307427768
H           32.82408267008230        4.68743403923862        2.88728166461451
H           32.83590595732334        7.11197900040564        3.35141397959142
H           34.80396917221771        7.81404401397121       -0.39725310907354
H           34.78094108724872        5.38907204835160       -0.85937204223197
H           36.44708253112763        4.43854101130142        1.01564004101868
H           38.31269296282481        2.55185528869167        0.60265296430489
H           38.25137854586540       -2.53394096507271       -0.74985450884713
H           36.34524573160940       -4.39007325860889       -1.11152513379920
H           32.61431467500541       -4.57531093858207       -2.81194744006503
H           32.57234958747387       -6.99453514623714       -3.30028319653429
H           34.74204349803798       -7.75753548990747        0.32308191710197
H           34.77029923283211       -5.33813102847533        0.81155765676933
H           31.04706520391767       -4.41563026765863       -0.67076639242891
H           29.18948154640118       -2.51985348329962       -0.25544332424666
Cu          60.69646239970505       -0.00022373612806        0.04434930646606
C           64.10253342872872       -0.02309082109914        0.10453093283330
C           63.46547321246604       -1.22320071113272        0.38114141724359
C           64.13876755169456       -2.46240321855155        0.64642863882275
C           63.17860954247885       -3.39597351108511        0.85808636997482
C           61.90897791041436       -2.73185309407058        0.73556393642661
N           62.11433473967178       -1.41510909548290        0.44048843331647
C           60.66291469736021       -3.34877108664821        0.87027430411634
C           60.64847241753360       -4.78928122233615        1.22401985358715
C           61.18999089373359       -5.22620697953385        2.43510774056416
C           61.17759206370210       -6.56852724791774        2.76928819956318
C           60.62540142196082       -7.50451405488018        1.88975257175966
C           60.61502823707428       -8.88704827094137        2.22870510594799
N           60.60833164943411      -10.00426189229536        2.50428718896120
C           60.08432792318358       -7.07265217596888        0.67513884149055
C           60.09476785584378       -5.72796966022973        0.35048149742297
C           59.43032068707501       -2.71517945936173        0.69898444983576
C           58.15206901675666       -3.33711697650946        0.90019183581427
C           57.20767806590663       -2.39339748317720        0.65735302170922
N           59.24447013933924       -1.40463545171558        0.34762848295369
C           57.90092352026014       -1.18806642911447        0.31414852070434
C           57.26758899541858        0.02647146741646       -0.00004980427675
C           57.92761350873771        1.22944768223533       -0.30317379961424
C           57.26227363466568        2.44209733318667       -0.67441350456250
C           58.22725771902035        3.36837589157246       -0.90315614636402
C           59.49013994680921        2.72944077003868       -0.66178583751322
N           59.27484335100880        1.42511624340989       -0.30392473229517
C           60.73677302806990        3.34343065735148       -0.80110473359454
C           60.75587652082002        4.77875648927436       -1.17436955990951
C           61.35312185336128        5.18986227297723       -2.36835287154092
C           61.37226396759615        6.52661924451925       -2.72351110642810
C           60.79566166167523        7.48329710953940       -1.88274291005436
C           60.81656065005613        8.85997693810697       -2.24416626760931
N           60.83588403010388        9.97278188113276       -2.53616716479657
C           60.19928458713635        7.07759209885198       -0.68511974359635
C           60.17915830110194        5.73829391498128       -0.33917863919696
C           61.96883500621543        2.71077108059031       -0.61758332032465
C           63.25072107690371        3.35791558793718       -0.69589259059157
C           64.19011058833333        2.41366527733727       -0.44250893141993
C           63.49147929721170        1.18445739469416       -0.19721377335476
N           62.14602630492877        1.39338908807131       -0.30763292908041
H           65.18741797968647       -0.02996278247049        0.12468305973122
H           65.20977817172566       -2.58956808643910        0.65568578375191
H           63.31087354717750       -4.44540878878197        1.06669311721663
H           61.60879441343960       -4.50193283808237        3.12466802061151
H           61.59426674122115       -6.89926280849000        3.71346330982859
H           59.65868789161600       -7.79588958280509       -0.01058126422400
H           59.68465846508523       -5.39803673420825       -0.59736187773046
H           58.00071951431728       -4.36030304404818        1.20379351959646
H           56.13539514218088       -2.49274023815589        0.71154900135762
H           56.19338623865674        2.55731985334295       -0.75700380820442
H           58.09917731614202        4.39020954739156       -1.22160149929967
H           61.79072671166471        4.44957160838370       -3.02861350781316
H           61.83240938440700        6.83701300493671       -3.65431711331831
H           59.75472538772308        7.81686783205565       -0.02916356365027
H           59.72661080051013        5.42911946050607        0.59625915076243
H           63.40446698617163        4.40447083174583       -0.90423107807605
H           65.26223230244848        2.52733961212704       -0.41162792558619
C           39.80934037163463       -0.00216129442455       -0.06873388783606
C           38.58749509189746        0.00295741057169       -0.05952155907155
C           41.15933967249283       -0.00372356544664       -0.07427426107889
C           42.38128447741510       -0.00066657061393       -0.07506590449068
C           53.28722936625594        0.04539794145891       -0.03154273061563
C           52.06569951836966        0.04326236414702       -0.03759719952702
C           54.63832068482750        0.04299678950155       -0.02233715143826
C           55.85970945364576        0.03703169509368       -0.01391707628483
Cu          47.22310152019386        0.02183936706749       -0.05842778409450
C           43.78727415376159        0.00515739168557       -0.07177674572277
C           44.44249749090824       -1.16278414464589       -0.50107389918031
C           43.77194164414708       -2.36409430059614       -0.89861707511955
C           44.73352521238353       -3.25495677526076       -1.25090546173821
C           45.99840629444832       -2.59872752291709       -1.07772813879415
N           45.78817752217182       -1.32798358405645       -0.61332953173990
C           47.24327072179135       -3.18206459797301       -1.32378723075739
C           47.25204652569801       -4.55919771398114       -1.87538899299666
C           46.68203952897788       -4.82496077596281       -3.12253688599290
C           46.69313909170605       -6.10620694435164       -3.64393060178878
C           47.27243591435489       -7.15238167651516       -2.91971006547848
C           47.28466512450706       -8.47245560068260       -3.45235743942678
N           47.29421137426208       -9.53943321464811       -3.88320239208499
C           47.84051527633652       -6.89244104595305       -1.66901501522280
C           47.83139176805575       -5.60741498300302       -1.15682974475600
C           48.48073428697332       -2.57580668736263       -1.09575440426640
C           49.75376299672742       -3.15986061285263       -1.41046365307885
C           50.70393844205817       -2.26016651177120       -1.05016043606393
N           48.67472661040080       -1.32966473113650       -0.56310237175424
C           50.01832335382196       -1.11844225987223       -0.52332333500870
C           50.65831603456437        0.03820300055825       -0.04481250068866
C           50.00354539702972        1.18836956879874        0.42915045592288
C           50.67409802389701        2.33474014527932        0.96507257669459
C           49.71263854563168        3.22453467712396        1.32003797541230
C           48.44771381923942        2.63000849645106        0.99241964369349
N           48.65771430230703        1.38716652267025        0.45807674497789
C           47.20269491839387        3.22470424780314        1.21031268465085
C           47.19340552716632        4.60034981971051        1.76507378749874
C           46.60039089520872        4.85947137929924        3.00296103035339
C           46.59393432452253        6.13945675201533        3.52745143352134
C           47.17898946864645        7.19117895092729        2.81599180587764
C           47.17300731910842        8.50998682257008        3.35180125729950
N           47.16901819624545        9.57585977726347        3.78537753090195
C           47.77039329166357        6.93796188526844        1.57474475709751
C           47.77813895578593        5.65428531623929        1.05921170738164
C           45.96550334349659        2.63035786520980        0.95151264165074
C           44.69309643583029        3.27508529995332        1.11228193386040
C           43.74302651101681        2.37511114345040        0.75199958820461
C           44.42815690985058        1.17967192399612        0.36177005169068
N           45.77119464507700        1.35766496743744        0.48554692696574
H           42.70250919046322       -2.50177792331503       -0.89731464500575
H           44.60188641592989       -4.27155358717151       -1.58438000310233
H           46.24212773610051       -4.01392149621544       -3.69186716330370
H           46.25486083142558       -6.30346368704523       -4.61524725672545
H           48.28677836082910       -7.70180836203393       -1.10314130913774
H           48.26327060737171       -5.41155548348555       -0.18187412090196
H           49.89848559720210       -4.12759394976614       -1.86271450702453
H           51.77486642810189       -2.34883222592660       -1.13882219211822
H           51.74338316675762        2.43290142626439        1.06309756828047
H           49.84489450670526        4.19175013240153        1.77716164934834
H           46.15626998992607        4.04424325575207        3.56298409655079
H           46.13735910642322        6.33143086396638        4.49137384608987
H           48.22129279776827        7.75156286471247        1.01869522067101
H           48.22747741840730        5.46396998613843        0.09107277509705
H           44.54868430112760        4.29087016014682        1.44289980235194
H           42.67247320353771        2.50321349879118        0.74082860506534

          :  Hamiltonian                  GFN1-xTB          :
         :: total energy            -330.049175731213 Eh    ::
         :: gradient norm              0.000604173207 Eh/a0 ::
         :: HOMO-LUMO gap              0.001740699028 eV    ::
         :: SCC energy              -335.551179144675 Eh    ::
         :: repulsion energy           5.669948199014 Eh    ::

    * Orbital Energies and Occupations

         #    Occupation            Energy/Eh            Energy/eV
      -------------------------------------------------------------
         1        2.0000           -0.7769356             -21.1415
       ...           ...                  ...                  ...
       295        2.0000           -0.4206739             -11.4471
       296        2.0000           -0.4206682             -11.4470
       297        2.0000           -0.4200789             -11.4309
       298        2.0000           -0.4199801             -11.4282
       299        2.0000           -0.4197380             -11.4217
       300        2.0000           -0.4082259             -11.1084
       301        2.0000           -0.4082113             -11.1080
       302        2.0000           -0.4080932             -11.1048
       303        2.0000           -0.4058562             -11.0439
       304        2.0000           -0.3993362             -10.8665
       305        2.0000           -0.3910339             -10.6406
       306        1.0410           -0.3683288             -10.0227
       307        0.9944           -0.3682291             -10.0200 (HOMO)
       308        0.9645           -0.3681652             -10.0183 (LUMO)
       309        0.0000           -0.3532109              -9.6114
       310                         -0.3441331              -9.3643
       311                         -0.3419900              -9.3060
       312                         -0.3419802              -9.3058
       313                         -0.3416251              -9.2961
       314                         -0.3362793              -9.1506
       315                         -0.3167090              -8.6181
       316                         -0.3123937              -8.5007
       317                         -0.3109404              -8.4611
       318                         -0.3038019              -8.2669
       ...                                ...                  ...
       639                          1.5068858              41.0044
      -------------------------------------------------------------
                  HL-Gap            0.0000640 Eh            0.0017 eV

Wiberg/Mayer (AO) data.
largest (>0.10) Wiberg bond orders for each atom

     #   Z sym  total        # sym  WBO       # sym  WBO       # sym  WBO
 ---------------------------------------------------------------------------
     1  29 Cu   2.189 --    41 N    0.506     7 N    0.506    27 N    0.502
                            20 N    0.502
     2   6 C    3.930 --    40 C    1.362     3 C    1.362    42 H    0.971
     3   6 C    3.916 --     2 C    1.362     7 N    1.229     4 C    1.170
     4   6 C    3.955 --     5 C    1.657     3 C    1.170    43 H    0.975
     5   6 C    3.958 --     4 C    1.657     6 C    1.171    44 H    0.973
     6   6 C    3.913 --     8 C    1.319     7 N    1.240     5 C    1.171
     7   7 N    3.243 --     6 C    1.240     3 C    1.229     1 Cu   0.506
     8   6 C    3.933 --    17 C    1.325     6 C    1.319     9 C    1.029
     9   6 C    3.963 --    10 C    1.386    16 C    1.386     8 C    1.029
    10   6 C    3.987 --    11 C    1.463     9 C    1.386    45 H    0.971
                            15 C    0.102
    11   6 C    3.993 --    10 C    1.463    12 C    1.364    46 H    0.972
                            16 C    0.102
    12   6 C    3.984 --    11 C    1.364    15 C    1.364    13 C    1.098
    13   6 C    3.958 --    14 N    2.820    12 C    1.098
    14   7 N    2.973 --    13 C    2.820
    15   6 C    3.993 --    16 C    1.464    12 C    1.364    47 H    0.972
                            10 C    0.102
    16   6 C    3.988 --    15 C    1.464     9 C    1.386    48 H    0.971
                            11 C    0.102
    17   6 C    3.908 --     8 C    1.325    20 N    1.223    18 C    1.179
    18   6 C    3.954 --    19 C    1.642    17 C    1.179    49 H    0.973
    19   6 C    3.956 --    18 C    1.642    21 C    1.187    50 H    0.974
    20   7 N    3.248 --    21 C    1.256    17 C    1.223     1 Cu   0.502
    21   6 C    3.897 --    22 C    1.260    20 N    1.256    19 C    1.187
    22   6 C    3.938 --    23 C    1.260    21 C    1.260   118 C    1.186
    23   6 C    3.897 --    22 C    1.260    27 N    1.256    24 C    1.187
    24   6 C    3.956 --    25 C    1.642    23 C    1.187    51 H    0.974
    25   6 C    3.954 --    24 C    1.642    26 C    1.179    52 H    0.973
    26   6 C    3.908 --    28 C    1.324    27 N    1.223    25 C    1.179
    27   7 N    3.248 --    23 C    1.256    26 C    1.223     1 Cu   0.502
    28   6 C    3.933 --    26 C    1.324    37 C    1.318    29 C    1.030
    29   6 C    3.963 --    36 C    1.385    30 C    1.385    28 C    1.030
    30   6 C    3.987 --    31 C    1.464    29 C    1.385    53 H    0.971
                            35 C    0.102
    31   6 C    3.993 --    30 C    1.464    32 C    1.364    54 H    0.972
                            36 C    0.102
    32   6 C    3.984 --    35 C    1.364    31 C    1.364    33 C    1.098
    33   6 C    3.958 --    34 N    2.820    32 C    1.098
    34   7 N    2.973 --    33 C    2.820
    35   6 C    3.993 --    36 C    1.464    32 C    1.364    55 H    0.972
                            30 C    0.102
    36   6 C    3.987 --    35 C    1.464    29 C    1.385    56 H    0.971
                            31 C    0.102
    37   6 C    3.913 --    28 C    1.318    41 N    1.240    38 C    1.171
    38   6 C    3.958 --    39 C    1.656    37 C    1.171    57 H    0.973
    39   6 C    3.955 --    38 C    1.656    40 C    1.170    58 H    0.975
    40   6 C    3.916 --     2 C    1.362    41 N    1.229    39 C    1.170
    41   7 N    3.243 --    37 C    1.240    40 C    1.229     1 Cu   0.506
    42   1 H    1.001 --     2 C    0.971
    43   1 H    0.997 --     4 C    0.975
    44   1 H    1.004 --     5 C    0.973
    45   1 H    1.003 --    10 C    0.971
    46   1 H    1.000 --    11 C    0.972
    47   1 H    1.000 --    15 C    0.972
    48   1 H    1.003 --    16 C    0.971
    49   1 H    1.004 --    18 C    0.973
    50   1 H    1.002 --    19 C    0.974
    51   1 H    1.002 --    24 C    0.974
    52   1 H    1.004 --    25 C    0.973
    53   1 H    1.003 --    30 C    0.971
    54   1 H    1.000 --    31 C    0.972
    55   1 H    1.000 --    35 C    0.972
    56   1 H    1.004 --    36 C    0.971
    57   1 H    1.004 --    38 C    0.973
    58   1 H    0.997 --    39 C    0.975
    59  29 Cu   2.189 --    99 N    0.506    65 N    0.506    78 N    0.503
                            85 N    0.503
    60   6 C    3.931 --    98 C    1.362    61 C    1.362   100 H    0.971
    61   6 C    3.916 --    60 C    1.362    65 N    1.229    62 C    1.170
    62   6 C    3.955 --    63 C    1.657    61 C    1.170   101 H    0.975
    63   6 C    3.958 --    62 C    1.657    64 C    1.171   102 H    0.973
    64   6 C    3.913 --    66 C    1.319    65 N    1.240    63 C    1.171
    65   7 N    3.244 --    64 C    1.240    61 C    1.229    59 Cu   0.506
    66   6 C    3.934 --    75 C    1.325    64 C    1.319    67 C    1.029
    67   6 C    3.963 --    74 C    1.386    68 C    1.386    66 C    1.029
    68   6 C    3.987 --    69 C    1.463    67 C    1.386   103 H    0.971
                            73 C    0.102
    69   6 C    3.993 --    68 C    1.463    70 C    1.364   104 H    0.972
                            74 C    0.102
    70   6 C    3.984 --    73 C    1.364    69 C    1.364    71 C    1.098
    71   6 C    3.958 --    72 N    2.820    70 C    1.098
    72   7 N    2.973 --    71 C    2.820
    73   6 C    3.993 --    74 C    1.463    70 C    1.364   105 H    0.972
                            68 C    0.102
    74   6 C    3.988 --    73 C    1.463    67 C    1.386   106 H    0.971
                            69 C    0.102
    75   6 C    3.908 --    66 C    1.325    78 N    1.224    76 C    1.178
    76   6 C    3.955 --    77 C    1.643    75 C    1.178   107 H    0.973
    77   6 C    3.956 --    76 C    1.643    79 C    1.186   108 H    0.974
    78   7 N    3.248 --    79 C    1.255    75 C    1.224    59 Cu   0.503
    79   6 C    3.898 --    80 C    1.263    78 N    1.255    77 C    1.186
    80   6 C    3.939 --    81 C    1.263    79 C    1.263   124 C    1.180
    81   6 C    3.898 --    80 C    1.263    85 N    1.254    82 C    1.186
    82   6 C    3.956 --    83 C    1.643    81 C    1.186   109 H    0.974
    83   6 C    3.955 --    82 C    1.643    84 C    1.179   110 H    0.973
    84   6 C    3.908 --    86 C    1.325    85 N    1.224    83 C    1.179
    85   7 N    3.248 --    81 C    1.254    84 C    1.224    59 Cu   0.503
    86   6 C    3.934 --    84 C    1.325    95 C    1.318    87 C    1.030
    87   6 C    3.963 --    94 C    1.386    88 C    1.385    86 C    1.030
    88   6 C    3.987 --    89 C    1.464    87 C    1.385   111 H    0.971
                            93 C    0.102
    89   6 C    3.993 --    88 C    1.464    90 C    1.364   112 H    0.972
                            94 C    0.102
    90   6 C    3.984 --    93 C    1.364    89 C    1.364    91 C    1.098
    91   6 C    3.958 --    92 N    2.820    90 C    1.098
    92   7 N    2.973 --    91 C    2.820
    93   6 C    3.993 --    94 C    1.463    90 C    1.364   113 H    0.972
                            88 C    0.102
    94   6 C    3.988 --    93 C    1.463    87 C    1.386   114 H    0.971
                            89 C    0.102
    95   6 C    3.913 --    86 C    1.318    99 N    1.240    96 C    1.171
    96   6 C    3.958 --    97 C    1.657    95 C    1.171   115 H    0.973
    97   6 C    3.955 --    96 C    1.657    98 C    1.170   116 H    0.975
    98   6 C    3.916 --    60 C    1.362    99 N    1.229    97 C    1.170
    99   7 N    3.244 --    95 C    1.240    98 C    1.229    59 Cu   0.506
   100   1 H    1.001 --    60 C    0.971
   101   1 H    0.997 --    62 C    0.975
   102   1 H    1.004 --    63 C    0.973
   103   1 H    1.003 --    68 C    0.971
   104   1 H    1.000 --    69 C    0.972
   105   1 H    1.000 --    73 C    0.972
   106   1 H    1.003 --    74 C    0.971
   107   1 H    1.004 --    76 C    0.973
   108   1 H    1.002 --    77 C    0.974
   109   1 H    1.002 --    82 C    0.974
   110   1 H    1.004 --    83 C    0.973
   111   1 H    1.003 --    88 C    0.971
   112   1 H    1.000 --    89 C    0.972
   113   1 H    1.000 --    93 C    0.972
   114   1 H    1.004 --    94 C    0.971
   115   1 H    1.004 --    96 C    0.973
   116   1 H    0.997 --    97 C    0.975
   117   6 C    3.936 --   118 C    2.479   119 C    1.307
   118   6 C    3.925 --   117 C    2.479    22 C    1.186   120 C    0.200
   119   6 C    3.934 --   120 C    2.478   117 C    1.307
   120   6 C    3.926 --   119 C    2.478   126 C    1.188   118 C    0.200
   121   6 C    3.933 --   122 C    2.483   123 C    1.301
   122   6 C    3.924 --   121 C    2.483   146 C    1.182   124 C    0.198
   123   6 C    3.935 --   124 C    2.485   121 C    1.301
   124   6 C    3.923 --   123 C    2.485    80 C    1.180   122 C    0.198
   125  29 Cu   2.155 --   144 N    0.497   151 N    0.497   165 N    0.497
                           131 N    0.497
   126   6 C    3.929 --   127 C    1.258   164 C    1.258   120 C    1.188
   127   6 C    3.898 --   131 N    1.259   126 C    1.258   128 C    1.187
   128   6 C    3.955 --   129 C    1.642   127 C    1.187   166 H    0.974
   129   6 C    3.955 --   128 C    1.642   130 C    1.180   167 H    0.973
   130   6 C    3.906 --   132 C    1.322   131 N    1.224   129 C    1.180
   131   7 N    3.241 --   127 C    1.259   130 C    1.224   125 Cu   0.497
   132   6 C    3.929 --   130 C    1.322   141 C    1.322   133 C    1.029
   133   6 C    3.963 --   140 C    1.386   134 C    1.386   132 C    1.029
   134   6 C    3.988 --   135 C    1.463   133 C    1.386   168 H    0.971
                           139 C    0.102
   135   6 C    3.993 --   134 C    1.463   136 C    1.364   169 H    0.972
                           140 C    0.102
   136   6 C    3.984 --   139 C    1.364   135 C    1.364   137 C    1.098
   137   6 C    3.958 --   138 N    2.820   136 C    1.098
   138   7 N    2.973 --   137 C    2.820
   139   6 C    3.993 --   140 C    1.463   136 C    1.364   170 H    0.972
                           134 C    0.102
   140   6 C    3.988 --   139 C    1.463   133 C    1.386   171 H    0.971
                           135 C    0.102
   141   6 C    3.906 --   132 C    1.322   144 N    1.225   142 C    1.180
   142   6 C    3.956 --   143 C    1.642   141 C    1.180   172 H    0.973
   143   6 C    3.955 --   142 C    1.642   145 C    1.186   173 H    0.974
   144   7 N    3.241 --   145 C    1.258   141 C    1.225   125 Cu   0.497
   145   6 C    3.899 --   146 C    1.261   144 N    1.258   143 C    1.186
   146   6 C    3.928 --   147 C    1.261   145 C    1.261   122 C    1.182
   147   6 C    3.899 --   146 C    1.261   151 N    1.258   148 C    1.186
   148   6 C    3.955 --   149 C    1.642   147 C    1.186   174 H    0.974
   149   6 C    3.956 --   148 C    1.642   150 C    1.180   175 H    0.973
   150   6 C    3.906 --   152 C    1.321   151 N    1.225   149 C    1.180
   151   7 N    3.241 --   147 C    1.258   150 C    1.225   125 Cu   0.497
   152   6 C    3.929 --   161 C    1.322   150 C    1.321   153 C    1.030
   153   6 C    3.963 --   160 C    1.385   154 C    1.385   152 C    1.030
   154   6 C    3.987 --   155 C    1.464   153 C    1.385   176 H    0.971
                           159 C    0.102
   155   6 C    3.993 --   154 C    1.464   156 C    1.364   177 H    0.972
                           160 C    0.102
   156   6 C    3.984 --   159 C    1.364   155 C    1.364   157 C    1.098
   157   6 C    3.958 --   158 N    2.820   156 C    1.098
   158   7 N    2.973 --   157 C    2.820
   159   6 C    3.993 --   160 C    1.463   156 C    1.364   178 H    0.972
                           154 C    0.102
   160   6 C    3.987 --   159 C    1.463   153 C    1.385   179 H    0.971
                           155 C    0.102
   161   6 C    3.906 --   152 C    1.322   165 N    1.224   162 C    1.180
   162   6 C    3.955 --   163 C    1.641   161 C    1.180   180 H    0.973
   163   6 C    3.955 --   162 C    1.641   164 C    1.187   181 H    0.974
   164   6 C    3.898 --   165 N    1.259   126 C    1.258   163 C    1.187
   165   7 N    3.241 --   164 C    1.259   161 C    1.224   125 Cu   0.497
   166   1 H    1.002 --   128 C    0.974
   167   1 H    1.004 --   129 C    0.973
   168   1 H    1.003 --   134 C    0.971
   169   1 H    1.000 --   135 C    0.972
   170   1 H    1.000 --   139 C    0.972
   171   1 H    1.003 --   140 C    0.971
   172   1 H    1.004 --   142 C    0.973
   173   1 H    1.002 --   143 C    0.974
   174   1 H    1.002 --   148 C    0.974
   175   1 H    1.004 --   149 C    0.973
   176   1 H    1.004 --   154 C    0.971
   177   1 H    1.000 --   155 C    0.972
   178   1 H    1.000 --   159 C    0.972
   179   1 H    1.003 --   160 C    0.971
   180   1 H    1.004 --   162 C    0.973
   181   1 H    1.002 --   163 C    0.974
 ---------------------------------------------------------------------------

           -------------------------------------------------
          | TOTAL ENERGY             -330.049175731213 Eh   |
          | GRADIENT NORM               0.000604173207 Eh/α |
          | HOMO-LUMO GAP               0.001740699028 eV   |
           -------------------------------------------------

 * finished run on 2022/07/30 at 14:26:00.425
