   * xtb version 6.5.1 (b24c23e) compiled by 'conda@728c89f4b128' on 2022-07-12
          program call               : xtb Ph_C6_3.xyz --gfn 1 --opt -T 48

   ID    Z sym.   atoms
    1    6 C      1-5, 7-10, 12-28, 31-36, 58-62, 64-67, 69-85, 88-93,
                  115-131, 133-136, 138-154, 157-162
    2    7 N      6, 11, 29, 30, 63, 68, 86, 87, 132, 137, 155, 156
    3    1 H      37-57, 94-114, 163-182

          :  Hamiltonian                  GFN1-xTB          :
 * total energy  :  -298.8646432 Eh     change        0.3402079E-09 Eh
 * total energy  :  -299.0090983 Eh     change       -0.1444551E+00 Eh
 * total energy  :  -299.0939597 Eh     change       -0.8486140E-01 Eh
 * total energy  :  -299.1175992 Eh     change       -0.2363944E-01 Eh
 * total energy  :  -299.1364450 Eh     change       -0.1884579E-01 Eh
 * total energy  :  -299.1539274 Eh     change       -0.1748240E-01 Eh
 * total energy  :  -299.1753887 Eh     change       -0.2146132E-01 Eh
 * total energy  :  -299.2013210 Eh     change       -0.2593228E-01 Eh
 * total energy  :  -299.2335774 Eh     change       -0.3225639E-01 Eh
 * total energy  :  -299.2724005 Eh     change       -0.3882314E-01 Eh
 * total energy  :  -299.5880579 Eh     change       -0.2038529E-04 Eh
 * total energy  :  -299.5880747 Eh     change       -0.1681877E-04 Eh
 * total energy  :  -299.5880920 Eh     change       -0.1733214E-04 Eh
 * total energy  :  -299.5881106 Eh     change       -0.1854657E-04 Eh
 * total energy  :  -299.5881281 Eh     change       -0.1754425E-04 Eh
 * total energy  :  -299.5881448 Eh     change       -0.1663001E-04 Eh
 * total energy  :  -299.5881583 Eh     change       -0.1354007E-04 Eh
 * total energy  :  -299.5881660 Eh     change       -0.7652419E-05 Eh
 * total energy  :  -299.5881699 Eh     change       -0.3915604E-05 Eh
   *** GEOMETRY OPTIMIZATION CONVERGED AFTER 88 ITERATIONS ***

 final structure:
================
182
 xtb: 6.5.1 (b24c23e)
C           22.66454901812259       -0.05046576675501        0.05363682608434
C           23.27276506201719       -1.13176003268973        0.67803296280293
C           22.62106022029106       -2.23966608153150        1.28915839454315
C           23.58340955482691       -3.07206647643251        1.78745764570922
C           24.85428565032309       -2.49478199420021        1.50471823852089
N           24.61592833084149       -1.33191055529508        0.82862272226060
C           26.11684278499171       -3.00645891399875        1.82354582680611
C           27.33282944316029       -2.40817736469298        1.48570524593660
C           28.62920999642100       -2.93202588163958        1.87741202710125
C           29.55147594079800       -2.08585456587742        1.37426072726225
N           27.48942958324940       -1.25753318027881        0.77489921806189
C           28.81741665789547       -1.04241941814545        0.68455346443500
C           29.45590251555746        0.02815705356766        0.02676914420724
C           28.82185515717964        1.09805347295445       -0.63206029030955
C           29.46732196160943        2.15882235028319       -1.32141177476120
C           28.50097218013673        2.98632573487583       -1.82224751374896
C           27.23402241997135        2.46078609894622       -1.44469796569555
C           25.97250479741200        2.98078199021367       -1.75170570805992
C           25.93946573715347        4.24720239052246       -2.52329789413762
C           25.33097205009922        4.29213696423595       -3.77868607525312
C           25.29991054741474        5.47518798550702       -4.50127206457815
C           25.87142844533295        6.62762853238987       -3.97907835587145
C           26.47736367248164        6.59165449719831       -2.73059053593569
C           26.51440295382364        5.40926064845618       -2.00674017241398
C           24.75541890212906        2.39496204794743       -1.38731993651967
C           23.45199890014965        2.97847749720482       -1.66474057436361
C           22.53663639898875        2.12679639875677       -1.16033506535601
C           23.27954071482364        1.02949322537941       -0.56606371367120
N           24.61229473494802        1.22877950924153       -0.71429740888479
N           27.48033557009924        1.31596693552671       -0.73336253443470
C           26.14804387005278       -4.28220803767752        2.58151140898315
C           25.58699838080712       -4.36223890509097        3.85663092167935
C           25.62389224698791       -5.55393859553340        4.56513623063868
C           26.21455322792728       -6.67974513485400        4.00761904302948
C           26.77045666157495       -6.60926451222392        2.73744277673697
C           26.74044298488984       -5.41811012615084        2.02813084653631
H           21.57918551215140       -0.05799163180922        0.05594492248619
H           21.55176533865401       -2.37328212783802        1.33007584201857
H           23.43306051542444       -4.00859400455452        2.29963809136643
H           25.34087896554624       -0.71124655475401        0.48444653465174
H           28.78927051499246       -3.81907237127742        2.46858278962402
H           30.62557114196089       -2.13565793575770        1.45478246729046
H           30.53567920093277        2.26270532233446       -1.42191089547184
H           28.64914836015729        3.87731821680105       -2.41027767486514
H           24.89605015672637        3.38980354693194       -4.19386770036926
H           24.82800379705114        5.49701566999367       -5.47734722551179
H           25.84430347677768        7.55244472988473       -4.54412557066751
H           26.92234049918133        7.48975474007967       -2.31664859466524
H           26.97478036323582        5.38766601841745       -1.02512899002648
H           23.28547685231522        3.91888855953970       -2.16501226908545
H           21.46102538449733        2.20961535864403       -1.16660918758581
H           26.75797670565668        0.71552408003435       -0.34956288695137
H           25.13785513571139       -3.48026476560774        4.29981045861924
H           25.19120045563863       -5.60278080878999        5.55825999597241
H           26.24189354467985       -7.61069839138209        4.56242708447034
H           27.22993631802003       -7.48673419701680        2.29607527373799
H           27.16503736605189       -5.36728194534607        1.03173857549208
C           61.45880400756033        0.07080919713330       -0.01331319046508
C           60.84498105506687        1.10016859173293       -0.71516341438215
C           61.49122514736182        2.13451884420249       -1.44867529109127
C           60.52474994069355        2.94257542536954       -1.97803289979194
C           59.25668862540328        2.43365869133278       -1.57631985389842
N           59.50078237560330        1.31863006780474       -0.82579114567099
C           57.99154949089848        2.94325814885859       -1.88876910773774
C           56.77885561208405        2.37502499500141       -1.49242771393653
C           55.48003631438841        2.95824336223086       -1.77716965091011
C           54.56216150723419        2.12823287831373       -1.24003052312662
N           56.62825063069906        1.22456332458093       -0.77995250378649
C           55.30143541235055        1.04427085987445       -0.62208978223665
C           54.66841661522244       -0.03493316630346        0.02730007792518
C           55.30844212239836       -1.10641650305703        0.67785544520041
C           54.66962755623520       -2.20764145360158        1.30723644917247
C           55.64032196074962       -3.01397766490832        1.83376243111008
C           56.90318033383374       -2.42396607481266        1.54936117164609
C           58.16687463305233       -2.91224592494174        1.89734406820319
C           58.20487608230989       -4.15987154255925        2.69864226456445
C           58.83589386212463       -5.30084804048069        2.20049841759761
C           58.87058974242107       -6.46695759736628        2.95002661640329
C           58.28043881668830       -6.50779676163415        4.20599570224972
C           57.65217831159549       -5.37681017907084        4.70935976249596
C           57.61135958637752       -4.21005446595974        3.96087564796119
C           59.38072831450626       -2.31232620659279        1.54550852262684
C           60.68614198154716       -2.80282602743501        1.95980580571340
C           61.59709765463376       -1.96821836413776        1.42005552008620
C           60.84930628052536       -0.96200818073735        0.68694403297633
N           59.51806652850824       -1.19529777599069        0.79254927860449
N           56.65053424007775       -1.27893468972515        0.84067676300465
C           57.95612592262067        4.18180812095499       -2.70564529831905
C           58.52930669348839        5.36174366679566       -2.22964633138363
C           58.49742362995480        6.51621432116315       -2.99753807073841
C           57.89924178647336        6.50526728405026       -4.25021490465214
C           57.32852062592955        5.33475965637456       -4.73147459438689
C           57.35359708381338        4.17981987336120       -3.96440727026695
H           62.54411214862613        0.08327817835386       -0.01746239130318
H           62.55985756767767        2.23253295781601       -1.55502721284711
H           60.67078133484266        3.81138057357611       -2.59918606806136
H           58.77877637480643        0.73620810250877       -0.41504367485618
H           55.31575547587585        3.88406060332082       -2.30430885408428
H           53.48791154929993        2.22107708457921       -1.24212910670546
H           53.60259451352655       -2.35763540239942        1.34242499070513
H           55.49801232285116       -3.94125345451438        2.36436161226430
H           59.28544007171526       -5.27495399576901        1.21411647150807
H           59.35993198863083       -7.34849901299918        2.55086565761671
H           58.31034114710436       -7.41954927325360        4.79173440516034
H           57.19262448340981       -5.40220222201742        5.69123602375296
H           57.13321304486600       -3.32354283036510        4.36269665608699
H           60.85686877356377       -3.66163250350668        2.58884177681569
H           62.67253707869889       -1.99913004868588        1.49955285158455
H           57.36925904315844       -0.65652125894279        0.48620407455512
H           58.98507199467724        5.37611083194289       -1.24573595604518
H           58.94103197489898        7.42890000060590       -2.61521054007055
H           57.87768853717954        7.40777146186151       -4.85048555770923
H           56.86242373897601        5.32025660543497       -5.71046160476955
H           56.91846091203397        3.26318552057641       -4.34669978784346
C           34.65930130295549        0.05925244263852       -0.01692389695316
C           33.43118111949814        0.05733416005921       -0.00474752538877
C           32.08617364969314        0.05202058383014        0.00586898155460
C           30.86261588869379        0.04060558350231        0.01922520202470
C           36.00414409205052        0.05851349988892       -0.02897819538500
C           37.22783909946213        0.05106508075915       -0.04033105507229
C           50.69348789690497       -0.07640065998230        0.02383732808455
C           49.46534883060026       -0.07695422534268        0.01496860636059
C           48.12067752312752       -0.07157703030674        0.00179449801060
C           46.89692897262715       -0.05709167071708       -0.01202762130946
C           52.03833582727965       -0.07002069442319        0.03058391514493
C           53.26200191309990       -0.05483487765893        0.03088980807124
C           38.63362116061769        0.04195163551696       -0.04930216997375
C           39.27028644438785        1.19927545515439        0.43761946654032
C           38.63180465802143        2.35464981601925        0.95843167648766
C           39.60427530099671        3.25025015845351        1.31015289042821
C           40.86589413622514        2.66999170045107        1.00563465782036
N           40.61302359165693        1.42715379223226        0.48924373246741
C           42.12989135802677        3.23779890052388        1.20422136688215
C           43.34934016825910        2.61420232883042        0.93488232704092
C           44.64028053131592        3.25869907505389        1.09820437409600
C           45.57058845270713        2.34386154672426        0.75534497966003
N           43.51622981621950        1.34190213177916        0.48023633678591
C           44.84648478225556        1.14708743052549        0.37481742319943
C           45.49147759155256       -0.03945997649725       -0.02733227570101
C           44.85405439016559       -1.22108963378546       -0.45095532652255
C           45.49124193928555       -2.42717951684126       -0.84204566763702
C           44.51882977645939       -3.31704309273873       -1.20835154960200
C           43.25870763842554       -2.67624451195246       -1.05814998903952
C           41.99555618690096       -3.22008638504397       -1.31987764400074
C           41.97209728819022       -4.59937314297847       -1.86847721007707
C           42.56433536216007       -4.88001742554597       -3.10056421625033
C           42.54035651374752       -6.16857956298758       -3.61270111830848
C           41.93124027097529       -7.19203864305577       -2.89947575542000
C           41.34260498939346       -6.92128811021995       -1.67166932872684
C           41.35973635443183       -5.63304472918371       -1.15865853725920
C           40.77612665173795       -2.57504747048085       -1.10724610169650
C           39.48609716582794       -3.15408708562952       -1.43773070574708
C           38.55569564955351       -2.24620867971762       -1.07714775252481
C           39.27897296026142       -1.11084706157677       -0.53925203133169
N           40.60877785171426       -1.33129356281703       -0.57947832023726
N           43.51199758065552       -1.41548738510684       -0.58763211270919
C           42.15620870502435        4.61734841630825        1.75193484755635
C           41.58078327072874        5.67305063289522        1.04367395151510
C           41.60814819477925        6.96027482267201        1.55918999608448
C           42.20380474198743        7.20767818695710        2.78847066166051
C           42.77595282741699        6.16207278127333        3.50030999024971
C           42.75549303528529        4.87457872609658        2.98575587284093
H           37.56463861394857        2.47425809692480        1.05350690241189
H           39.46274150197852        4.22366110806967        1.75058771584084
H           41.32828220101521        0.76992270692872        0.19653233787173
H           44.79154561471903        4.27679933306001        1.41836557276888
H           46.64394015069509        2.44598149759308        0.74481870827814
H           46.55750626691874       -2.58606214450519       -0.83695899293405
H           44.65919934614259       -4.33133050984391       -1.54462572172129
H           43.02912172616961       -4.07935491409895       -3.66527777581240
H           42.99859966229627       -6.37389320614032       -4.57382476643543
H           41.91521062150614       -8.19926963279835       -3.30009475700281
H           40.86814665581264       -7.71783777445529       -1.10930842163336
H           40.91027153813041       -5.42551009448553       -0.19400271476051
H           39.33537168144635       -4.11861298989693       -1.89476406438018
H           37.48288787147413       -2.30984169767081       -1.16477524123385
H           42.79762792418580       -0.72880153873079       -0.36995340373368
H           41.12679193655569        5.48430460394665        0.07711799601417
H           41.16308371269202        7.77407929886154        0.99745930585499
H           42.22236202083039        8.21407512679096        3.19107273489615
H           43.24001881782016        6.34951430535641        4.46226937321567
H           43.19218024193740        4.05681776327638        3.54812010223262

          :  Hamiltonian                  GFN1-xTB          :
         :: total energy            -299.588169879251 Eh    ::
         :: gradient norm              0.000398745470 Eh/a0 ::
         :: HOMO-LUMO gap              0.955015221878 eV    ::
         :: SCC energy              -304.867528003045 Eh    ::
         :: repulsion energy           5.433070543939 Eh    ::

    * Orbital Energies and Occupations

         #    Occupation            Energy/Eh            Energy/eV
      -------------------------------------------------------------
         1        2.0000           -0.8048145             -21.9001
       ...           ...                  ...                  ...
       265        2.0000           -0.4161172             -11.3231
       266        2.0000           -0.4157046             -11.3119
       267        2.0000           -0.4152391             -11.2992
       268        2.0000           -0.4147644             -11.2863
       269        2.0000           -0.4143583             -11.2753
       270        2.0000           -0.4140932             -11.2681
       271        2.0000           -0.4119829             -11.2106
       272        2.0000           -0.3992732             -10.8648
       273        2.0000           -0.3983573             -10.8399
       274        2.0000           -0.3983299             -10.8391
       275        2.0000           -0.3850143             -10.4768
       276        2.0000           -0.3820206             -10.3953
       277        2.0000           -0.3775096             -10.2726 (HOMO)
       278                         -0.3424134              -9.3175 (LUMO)
       279                         -0.3358015              -9.1376
       280                         -0.3329350              -9.0596
       281                         -0.3309209              -9.0048
       282                         -0.3304786              -8.9928
       283                         -0.3303799              -8.9901
       284                         -0.3062612              -8.3338
       285                         -0.2986753              -8.1274
       286                         -0.2979261              -8.1070
       287                         -0.2796141              -7.6087
       288                         -0.2772972              -7.5456
       ...                                ...                  ...
       604                          1.5792056              42.9724
      -------------------------------------------------------------
                  HL-Gap            0.0350962 Eh            0.9550 eV

Wiberg/Mayer (AO) data.
largest (>0.10) Wiberg bond orders for each atom

     #   Z sym  total        # sym  WBO       # sym  WBO       # sym  WBO
 ---------------------------------------------------------------------------
     1   6 C    3.926 --    28 C    1.366     2 C    1.346    37 H    0.971
     2   6 C    3.903 --     1 C    1.346     3 C    1.230     6 N    1.170
     3   6 C    3.954 --     4 C    1.595     2 C    1.230    38 H    0.977
     4   6 C    3.959 --     3 C    1.595     5 C    1.234    39 H    0.974
     5   6 C    3.897 --     7 C    1.304     4 C    1.234     6 N    1.177
     6   7 N    3.470 --     5 C    1.177     2 C    1.170    40 H    0.873
     7   6 C    3.940 --     8 C    1.336     5 C    1.304    31 C    1.027
     8   6 C    3.916 --     7 C    1.336    11 N    1.286     9 C    1.125
     9   6 C    3.966 --    10 C    1.711     8 C    1.125    41 H    0.974
    10   6 C    3.964 --     9 C    1.711    12 C    1.128    42 H    0.974
    11   7 N    3.023 --    12 C    1.343     8 C    1.286
    12   6 C    3.910 --    11 N    1.343    13 C    1.256    10 C    1.128
    13   6 C    3.938 --    12 C    1.256    14 C    1.253   118 C    1.186
    14   6 C    3.886 --    13 C    1.253    15 C    1.248    30 N    1.189
    15   6 C    3.959 --    16 C    1.584    14 C    1.248    43 H    0.975
    16   6 C    3.956 --    15 C    1.584    17 C    1.240    44 H    0.974
    17   6 C    3.899 --    18 C    1.311    16 C    1.240    30 N    1.165
    18   6 C    3.927 --    25 C    1.320    17 C    1.311    19 C    1.030
    19   6 C    3.988 --    24 C    1.395    20 C    1.394    18 C    1.030
                            22 C    0.108
    20   6 C    3.987 --    21 C    1.448    19 C    1.394    45 H    0.973
                            23 C    0.109
    21   6 C    3.995 --    20 C    1.448    22 C    1.437    46 H    0.973
                            24 C    0.109
    22   6 C    3.989 --    23 C    1.438    21 C    1.437    47 H    0.974
                            19 C    0.108
    23   6 C    3.995 --    24 C    1.447    22 C    1.438    48 H    0.973
                            20 C    0.109
    24   6 C    3.987 --    23 C    1.447    19 C    1.395    49 H    0.973
                            21 C    0.109
    25   6 C    3.929 --    18 C    1.320    29 N    1.318    26 C    1.118
    26   6 C    3.967 --    27 C    1.722    25 C    1.118    50 H    0.974
    27   6 C    3.966 --    26 C    1.722    28 C    1.117    51 H    0.976
    28   6 C    3.929 --     1 C    1.366    29 N    1.300    27 C    1.117
    29   7 N    3.014 --    25 C    1.318    28 C    1.300
    30   7 N    3.474 --    14 C    1.189    17 C    1.165    52 H    0.873
    31   6 C    3.989 --    32 C    1.396    36 C    1.395     7 C    1.027
                            34 C    0.108
    32   6 C    3.987 --    33 C    1.447    31 C    1.396    53 H    0.973
                            35 C    0.110
    33   6 C    3.995 --    32 C    1.447    34 C    1.438    54 H    0.973
                            36 C    0.110
    34   6 C    3.990 --    33 C    1.438    35 C    1.437    55 H    0.974
                            31 C    0.108
    35   6 C    3.995 --    36 C    1.448    34 C    1.437    56 H    0.973
                            32 C    0.110
    36   6 C    3.988 --    35 C    1.448    31 C    1.395    57 H    0.973
                            33 C    0.110
    37   1 H    1.002 --     1 C    0.971
    38   1 H    0.998 --     3 C    0.977
    39   1 H    1.005 --     4 C    0.974
    40   1 H    0.986 --     6 N    0.873
    41   1 H    1.005 --     9 C    0.974
    42   1 H    1.003 --    10 C    0.974
    43   1 H    1.002 --    15 C    0.975
    44   1 H    1.005 --    16 C    0.974
    45   1 H    1.005 --    20 C    0.973
    46   1 H    1.003 --    21 C    0.973
    47   1 H    1.003 --    22 C    0.974
    48   1 H    1.003 --    23 C    0.973
    49   1 H    1.005 --    24 C    0.973
    50   1 H    1.005 --    26 C    0.974
    51   1 H    0.998 --    27 C    0.976
    52   1 H    0.987 --    30 N    0.873
    53   1 H    1.005 --    32 C    0.973
    54   1 H    1.003 --    33 C    0.973
    55   1 H    1.003 --    34 C    0.974
    56   1 H    1.003 --    35 C    0.973
    57   1 H    1.005 --    36 C    0.973
    58   6 C    3.926 --    85 C    1.366    59 C    1.346    94 H    0.971
    59   6 C    3.903 --    58 C    1.346    60 C    1.230    63 N    1.170
    60   6 C    3.954 --    61 C    1.595    59 C    1.230    95 H    0.977
    61   6 C    3.959 --    60 C    1.595    62 C    1.234    96 H    0.974
    62   6 C    3.897 --    64 C    1.303    61 C    1.234    63 N    1.177
    63   7 N    3.470 --    62 C    1.177    59 C    1.170    97 H    0.873
    64   6 C    3.940 --    65 C    1.336    62 C    1.303    88 C    1.028
    65   6 C    3.915 --    64 C    1.336    68 N    1.286    66 C    1.125
    66   6 C    3.966 --    67 C    1.711    65 C    1.125    98 H    0.974
    67   6 C    3.964 --    66 C    1.711    69 C    1.128    99 H    0.974
    68   7 N    3.023 --    69 C    1.344    65 C    1.286
    69   6 C    3.909 --    68 N    1.344    70 C    1.255    67 C    1.128
    70   6 C    3.938 --    69 C    1.255    71 C    1.253   126 C    1.187
    71   6 C    3.886 --    70 C    1.253    72 C    1.248    87 N    1.189
    72   6 C    3.959 --    73 C    1.584    71 C    1.248   100 H    0.975
    73   6 C    3.956 --    72 C    1.584    74 C    1.240   101 H    0.974
    74   6 C    3.899 --    75 C    1.310    73 C    1.240    87 N    1.165
    75   6 C    3.926 --    82 C    1.320    74 C    1.310    76 C    1.030
    76   6 C    3.988 --    81 C    1.395    77 C    1.394    75 C    1.030
                            79 C    0.107
    77   6 C    3.987 --    78 C    1.448    76 C    1.394   102 H    0.973
                            80 C    0.109
    78   6 C    3.995 --    77 C    1.448    79 C    1.437   103 H    0.973
                            81 C    0.109
    79   6 C    3.989 --    80 C    1.438    78 C    1.437   104 H    0.974
                            76 C    0.107
    80   6 C    3.995 --    81 C    1.447    79 C    1.438   105 H    0.973
                            77 C    0.109
    81   6 C    3.986 --    80 C    1.447    76 C    1.395   106 H    0.973
                            78 C    0.109
    82   6 C    3.929 --    75 C    1.320    86 N    1.317    83 C    1.118
    83   6 C    3.967 --    84 C    1.722    82 C    1.118   107 H    0.974
    84   6 C    3.966 --    83 C    1.722    85 C    1.117   108 H    0.976
    85   6 C    3.929 --    58 C    1.366    86 N    1.300    84 C    1.117
    86   7 N    3.013 --    82 C    1.317    85 C    1.300
    87   7 N    3.474 --    71 C    1.189    74 C    1.165   109 H    0.873
    88   6 C    3.989 --    89 C    1.396    93 C    1.395    64 C    1.028
                            91 C    0.108
    89   6 C    3.987 --    90 C    1.447    88 C    1.396   110 H    0.973
                            92 C    0.109
    90   6 C    3.995 --    89 C    1.447    91 C    1.438   111 H    0.973
                            93 C    0.110
    91   6 C    3.990 --    90 C    1.438    92 C    1.437   112 H    0.974
                            88 C    0.108
    92   6 C    3.995 --    93 C    1.448    91 C    1.437   113 H    0.973
                            89 C    0.109
    93   6 C    3.988 --    92 C    1.448    88 C    1.395   114 H    0.973
                            90 C    0.110
    94   1 H    1.002 --    58 C    0.971
    95   1 H    0.998 --    60 C    0.977
    96   1 H    1.005 --    61 C    0.974
    97   1 H    0.986 --    63 N    0.873
    98   1 H    1.005 --    66 C    0.974
    99   1 H    1.003 --    67 C    0.974
   100   1 H    1.002 --    72 C    0.975
   101   1 H    1.005 --    73 C    0.974
   102   1 H    1.005 --    77 C    0.973
   103   1 H    1.003 --    78 C    0.973
   104   1 H    1.003 --    79 C    0.974
   105   1 H    1.003 --    80 C    0.973
   106   1 H    1.005 --    81 C    0.973
   107   1 H    1.005 --    83 C    0.974
   108   1 H    0.998 --    84 C    0.976
   109   1 H    0.987 --    87 N    0.873
   110   1 H    1.005 --    89 C    0.973
   111   1 H    1.003 --    90 C    0.973
   112   1 H    1.003 --    91 C    0.974
   113   1 H    1.003 --    92 C    0.973
   114   1 H    1.005 --    93 C    0.973
   115   6 C    3.923 --   116 C    2.371   119 C    1.332   118 C    0.189
   116   6 C    3.922 --   115 C    2.371   117 C    1.331   120 C    0.189
   117   6 C    3.932 --   118 C    2.452   116 C    1.331
   118   6 C    3.888 --   117 C    2.452    13 C    1.186   115 C    0.189
   119   6 C    3.929 --   120 C    2.450   115 C    1.332
   120   6 C    3.889 --   119 C    2.450   127 C    1.189   116 C    0.189
   121   6 C    3.922 --   122 C    2.370   125 C    1.332   124 C    0.189
   122   6 C    3.923 --   121 C    2.370   123 C    1.333   126 C    0.189
   123   6 C    3.929 --   124 C    2.449   122 C    1.333
   124   6 C    3.889 --   123 C    2.449   139 C    1.190   121 C    0.189
   125   6 C    3.932 --   126 C    2.451   121 C    1.332
   126   6 C    3.888 --   125 C    2.451    70 C    1.187   122 C    0.189
   127   6 C    3.926 --   154 C    1.255   128 C    1.249   120 C    1.189
   128   6 C    3.887 --   129 C    1.252   127 C    1.249   132 N    1.189
   129   6 C    3.956 --   130 C    1.578   128 C    1.252   163 H    0.975
   130   6 C    3.956 --   129 C    1.578   131 C    1.245   164 H    0.974
   131   6 C    3.894 --   133 C    1.301   130 C    1.245   132 N    1.166
   132   7 N    3.471 --   128 C    1.189   131 C    1.166   165 H    0.874
   133   6 C    3.929 --   134 C    1.337   131 C    1.301   157 C    1.027
   134   6 C    3.917 --   133 C    1.337   137 N    1.285   135 C    1.125
   135   6 C    3.966 --   136 C    1.710   134 C    1.125   166 H    0.974
   136   6 C    3.964 --   135 C    1.710   138 C    1.129   167 H    0.974
   137   7 N    3.011 --   138 C    1.343   134 C    1.285
   138   6 C    3.910 --   137 N    1.343   139 C    1.255   136 C    1.129
   139   6 C    3.926 --   138 C    1.255   140 C    1.249   124 C    1.190
   140   6 C    3.887 --   141 C    1.252   139 C    1.249   156 N    1.189
   141   6 C    3.956 --   142 C    1.578   140 C    1.252   168 H    0.975
   142   6 C    3.956 --   141 C    1.578   143 C    1.245   169 H    0.974
   143   6 C    3.894 --   144 C    1.301   142 C    1.245   156 N    1.166
   144   6 C    3.929 --   151 C    1.338   143 C    1.301   145 C    1.027
   145   6 C    3.988 --   146 C    1.395   150 C    1.395   144 C    1.027
                           148 C    0.108
   146   6 C    3.987 --   147 C    1.447   145 C    1.395   170 H    0.973
                           149 C    0.110
   147   6 C    3.995 --   146 C    1.447   148 C    1.438   171 H    0.973
                           150 C    0.110
   148   6 C    3.990 --   147 C    1.438   149 C    1.438   172 H    0.974
                           145 C    0.108
   149   6 C    3.995 --   150 C    1.447   148 C    1.438   173 H    0.973
                           146 C    0.110
   150   6 C    3.988 --   149 C    1.447   145 C    1.395   174 H    0.973
                           147 C    0.110
   151   6 C    3.917 --   144 C    1.338   155 N    1.285   152 C    1.125
   152   6 C    3.966 --   153 C    1.710   151 C    1.125   175 H    0.974
   153   6 C    3.964 --   152 C    1.710   154 C    1.129   176 H    0.974
   154   6 C    3.910 --   155 N    1.343   127 C    1.255   153 C    1.129
   155   7 N    3.011 --   154 C    1.343   151 C    1.285
   156   7 N    3.471 --   140 C    1.189   143 C    1.166   177 H    0.874
   157   6 C    3.988 --   158 C    1.396   162 C    1.395   133 C    1.027
                           160 C    0.108
   158   6 C    3.987 --   159 C    1.447   157 C    1.396   178 H    0.973
                           161 C    0.109
   159   6 C    3.995 --   158 C    1.447   160 C    1.438   179 H    0.973
                           162 C    0.110
   160   6 C    3.990 --   159 C    1.438   161 C    1.437   180 H    0.974
                           157 C    0.108
   161   6 C    3.995 --   162 C    1.448   160 C    1.437   181 H    0.973
                           158 C    0.109
   162   6 C    3.988 --   161 C    1.448   157 C    1.395   182 H    0.973
                           159 C    0.110
   163   1 H    1.002 --   129 C    0.975
   164   1 H    1.005 --   130 C    0.974
   165   1 H    0.987 --   132 N    0.874
   166   1 H    1.005 --   135 C    0.974
   167   1 H    1.003 --   136 C    0.974
   168   1 H    1.002 --   141 C    0.975
   169   1 H    1.005 --   142 C    0.974
   170   1 H    1.005 --   146 C    0.973
   171   1 H    1.003 --   147 C    0.973
   172   1 H    1.003 --   148 C    0.974
   173   1 H    1.003 --   149 C    0.973
   174   1 H    1.005 --   150 C    0.973
   175   1 H    1.005 --   152 C    0.974
   176   1 H    1.003 --   153 C    0.974
   177   1 H    0.987 --   156 N    0.874
   178   1 H    1.005 --   158 C    0.973
   179   1 H    1.003 --   159 C    0.973
   180   1 H    1.003 --   160 C    0.974
   181   1 H    1.003 --   161 C    0.973
   182   1 H    1.005 --   162 C    0.973
 ---------------------------------------------------------------------------

           -------------------------------------------------
          | TOTAL ENERGY             -299.588169879251 Eh   |
          | GRADIENT NORM               0.000398745470 Eh/α |
          | HOMO-LUMO GAP               0.955015221878 eV   |
           -------------------------------------------------

 * finished run on 2022/07/29 at 19:33:06.657
