   * xtb version 6.5.1 (b24c23e) compiled by 'conda@728c89f4b128' on 2022-07-12
          program call               : xtb Fe_Ph_C2_2.xyz --gfn 1 --opt -T 48

   ID    Z sym.   atoms
    1   26 Fe     1, 57
    2    6 C      2-6, 8-11, 13-29, 32-37, 58-62, 64-67, 69-85, 88-93, 113,
                  114
    3    7 N      7, 12, 30, 31, 63, 68, 86, 87
    4    1 H      38-56, 94-112
########################################################################
[WARNING] Please study the warnings concerning your input carefully
-1- prog_main_parseArguments: Unknown option '-T' provided
########################################################################

          :  Hamiltonian                  GFN1-xTB          :
 * total energy  :  -191.3544325 Eh     change       -0.2011504E-07 Eh
 * total energy  :  -191.4201593 Eh     change       -0.6572678E-01 Eh
 * total energy  :  -191.4589440 Eh     change       -0.3878466E-01 Eh
 * total energy  :  -191.4694284 Eh     change       -0.1048444E-01 Eh
 * total energy  :  -191.4756805 Eh     change       -0.6252087E-02 Eh
 * total energy  :  -191.4790236 Eh     change       -0.3343144E-02 Eh
 * total energy  :  -191.4806662 Eh     change       -0.1642577E-02 Eh
 * total energy  :  -191.4813608 Eh     change       -0.6946104E-03 Eh
 * total energy  :  -191.4817409 Eh     change       -0.3800513E-03 Eh
 * total energy  :  -191.4820196 Eh     change       -0.2787184E-03 Eh
 * total energy  :  -191.4830075 Eh     change       -0.2133052E-04 Eh
 * total energy  :  -191.4830279 Eh     change       -0.2039949E-04 Eh
 * total energy  :  -191.4830373 Eh     change       -0.9400426E-05 Eh
 * total energy  :  -191.4830559 Eh     change       -0.1857193E-04 Eh
 * total energy  :  -191.4830625 Eh     change       -0.6635706E-05 Eh
 * total energy  :  -191.4830799 Eh     change       -0.1737476E-04 Eh
 * total energy  :  -191.4830849 Eh     change       -0.4965591E-05 Eh
 * total energy  :  -191.4830925 Eh     change       -0.7634171E-05 Eh
 * total energy  :  -191.4830941 Eh     change       -0.1645781E-05 Eh
   *** GEOMETRY OPTIMIZATION CONVERGED AFTER 28 ITERATIONS ***

 final structure:
================
114
 xtb: 6.5.1 (b24c23e)
Fe          15.34811666530658       -0.04920938617685       -0.05910860022635
C           11.96142474894206       -0.08328605911816       -0.03201963385536
C           12.61896567509850       -1.27353165894199       -0.26792355728030
C           11.95190218550170       -2.51555249408445       -0.51845323027971
C           12.91131316869355       -3.47013145694939       -0.55851707019325
C           14.16488835935651       -2.80844676068323       -0.33804860995751
N           13.97349866640284       -1.46200114594264       -0.18471312269549
C           15.37588165307984       -3.47039332346422       -0.16586277766283
C           16.57254473161352       -2.80586640141486        0.06186179705059
C           17.83360846596392       -3.46447512975518        0.22820596738915
C           18.77892105094161       -2.49463628517210        0.26384247345539
N           16.74901977605245       -1.44239968177952        0.03033535802094
C           18.09688898624283       -1.24850752699856        0.10896334293966
C           18.75575315401212       -0.02043708723693       -0.03096880189649
C           18.07009826966333        1.19473690839591       -0.15693578919537
C           18.72050830096176        2.45114753145078       -0.35590695664374
C           17.75892819984686        3.40384858344416       -0.28818305402023
C           16.52156789541946        2.72403292288431       -0.04851152309947
C           15.31151975103168        3.36734825208378        0.17626633564683
C           15.30237351184127        4.84636387630834        0.26267359845486
C           14.56081382711115        5.60695954911396       -0.64238297667292
C           14.55996322376013        6.99115025378826       -0.55817372634349
C           15.29216762525282        7.63119711139286        0.43261216177783
C           16.03047274293285        6.88120240157827        1.33806558566403
C           16.04000697276219        5.49726002989433        1.25282430905277
C           14.11009680692417        2.68053778341478        0.31475126005798
C           12.84690441715136        3.30935319837349        0.57267131145824
C           11.90490106272999        2.33909772847932        0.50099406515991
C           12.59493785947920        1.11754137326190        0.21523817713574
N           13.94707268279411        1.33106657342924        0.15205192485168
N           16.72437834300051        1.36550217982753       -0.01494475200455
C           15.38711040134335       -4.95283762976919       -0.23226510368533
C           15.11265225085272       -5.60566858727691       -1.43408660713779
C           15.12407270209462       -6.99109831150431       -1.49599686795673
C           15.40312774232678       -7.73832965602526       -0.35974411478699
C           15.67451535719462       -7.09474077462778        0.83994258586253
C           15.66997819241117       -5.70930256351175        0.90496978447345
H           10.87721500665463       -0.09354720342463       -0.03474416946838
H           10.88511779407470       -2.62499801305835       -0.63278656136760
H           12.79202527750326       -4.53113821418473       -0.70681983505065
H           17.97004573956494       -4.53169800304960        0.29121847173768
H           19.84511142686483       -2.60168451382692        0.37705801654328
H           19.77652448132906        2.57554802135027       -0.53037508296261
H           17.86667795529936        4.47031751661639       -0.40056961200971
H           13.99889499202544        5.10916548892981       -1.42483352584072
H           13.98544387436554        7.57291815639092       -1.27045599162233
H           15.28792531679256        8.71331124601451        0.49867782596318
H           16.60204813445879        7.37627077575496        2.11534470527156
H           16.60837393259889        4.91172814922091        1.96687880959442
H           12.71117594509712        4.35830565827143        0.78053803702182
H           10.83706664636774        2.42382297578670        0.62610518188587
H           14.90448719080049       -5.02224225826059       -2.32402778178448
H           14.91435978654809       -7.48926312281033       -2.43606301279574
H           15.40891905455662       -8.82130184896073       -0.40918196309735
H           15.89019372251385       -7.67431005717559        1.73075365086906
H           15.87158703331212       -5.20737321119413        1.84471451219897
Fe          26.19099863976775        0.05174189016921       -0.05694065833061
C           29.57768090478584        0.08448458154513       -0.02843848273644
C           28.92017881430597        1.28388025581857       -0.21238797332551
C           29.58727980165390        2.53558937971001       -0.40874566766577
C           28.62790010804446        3.49104073715478       -0.40729757590260
C           27.37430576472820        2.82044882175872       -0.21575019909126
N           27.56565601436511        1.46860903753067       -0.12106520073951
C           26.16333104030442        3.47432476042149       -0.01496941684559
C           24.96664985343633        2.80056813938281        0.18369045511174
C           23.70560850817049        3.45137163769613        0.37848640778415
C           22.76026016067111        2.48093376983040        0.37195386744038
N           24.79012811657969        1.43976250197513        0.09298796889119
C           23.44224921479541        1.24268607448474        0.16309715252349
C           22.78334883114715        0.02187473541781       -0.03006391696815
C           23.46897146653677       -1.18670185857266       -0.20868615319727
C           22.81851792888421       -2.43326688587502       -0.46204743931249
C           23.78005996874793       -3.38804876685392       -0.43573531958585
C           25.01744343395083       -2.71932054938960       -0.16675811943788
C           26.22747686998883       -3.37183459859986        0.02984125924354
C           26.23661580253889       -4.85320570232258        0.05195996654891
C           26.97819775660733       -5.57377615423197       -0.88525163707661
C           26.97916724098133       -6.96031613853744       -0.86114120453422
C           26.24703978152466       -7.64278699444873        0.10098041784333
C           25.50868461122660       -6.93282265268665        1.03810459313615
C           25.49903385899475       -5.54648634708607        1.01295312488216
C           27.42892439700347       -2.69171940542389        0.19800806181774
C           28.69210245135638       -3.33118348171955        0.42833852109478
C           29.63413553098597       -2.35876002634449        0.39884350223870
C           28.94413247503827       -1.12592631102085        0.16642867605276
N           27.59198868258283       -1.33646064802400        0.09407892568797
N           24.81469147635765       -1.36351010083774       -0.07424232449555
C           26.15212601346497        4.95825349920792       -0.01693730382869
C           26.42656887292166        5.66264925252141       -1.18928406640685
C           26.41510595303983        7.04946041789509       -1.19099251149362
C           26.13602780078598        7.74665348930600       -0.02337389046622
C           25.86467466330483        7.05158368466863        1.14724681512585
C           25.86925425760308        5.66462915861068        1.15206879170440
H           30.66189121975860        0.09481523277062       -0.03073068660062
H           30.65406632971457        2.64985505191930       -0.51824348240362
H           28.74721899558574        4.55748281263694       -0.50939153843116
H           23.56920749540713        4.51485492913988        0.48779315979246
H           21.69407097040144        2.58300444456478        0.48969039088953
H           21.76250531928460       -2.54992967680080       -0.64180028884582
H           23.67227803227887       -4.44862466975819       -0.59434512797169
H           27.54005745119603       -5.04247461885634       -1.64538700071325
H           27.55373679475163       -7.51060424701607       -1.59798231461166
H           26.25139307932646       -8.72674483631438        0.12007818288276
H           24.93718109843782       -7.46117477419193        1.79320079319002
H           24.93063379181405       -4.99251264950570        1.75173797825548
H           28.82780648571887       -4.38817922457290        0.59043799434525
H           30.70197102818929       -2.44887769451371        0.52011530297460
H           26.63474641384212        5.11841427616509       -2.10371571499272
H           26.62479885749523        7.58797135890595       -2.10854727324845
H           26.13019005293756        8.83075066929834       -0.02575584938332
H           25.64898399468520        7.59192883026079        2.06237880015960
H           25.66766491754425        5.12237034310728        2.06913792213837
C           20.16012280462791       -0.00500951272876       -0.04141502786211
C           21.37897906289947        0.00693987330263       -0.04116850319799

          :  Hamiltonian                  GFN1-xTB          :
         :: total energy            -191.483094140270 Eh    ::
         :: gradient norm              0.000460598101 Eh/a0 ::
         :: HOMO-LUMO gap              0.099576830092 eV    ::
         :: SCC energy              -194.576667800391 Eh    ::
         :: repulsion energy           3.198957775073 Eh    ::

    * Orbital Energies and Occupations

         #    Occupation            Energy/Eh            Energy/eV
      -------------------------------------------------------------
         1        2.0000           -0.7690520             -20.9270
       ...           ...                  ...                  ...
       167        2.0000           -0.4286441             -11.6640
       168        2.0000           -0.4268896             -11.6163
       169        2.0000           -0.4268770             -11.6159
       170        2.0000           -0.3990868             -10.8597
       171        2.0000           -0.3965545             -10.7908
       172        2.0000           -0.3965463             -10.7906
       173        1.9921           -0.3881635             -10.5625
       174        1.9917           -0.3881159             -10.5612
       175        1.9476           -0.3863494             -10.5131
       176        1.9446           -0.3862947             -10.5116
       177        1.9415           -0.3862413             -10.5102
       178        1.9413           -0.3862388             -10.5101
       179        1.7752           -0.3848779             -10.4731 (HOMO)
       180        0.2873           -0.3812185             -10.3735 (LUMO)
       181        0.1788           -0.3807094             -10.3596
       182                         -0.3386832              -9.2160
       183                         -0.3273871              -8.9087
       184                         -0.3273764              -8.9084
       185                         -0.3214279              -8.7465
       186                         -0.2995492              -8.1511
       187                         -0.2994401              -8.1482
       188                         -0.2969648              -8.0808
       189                         -0.2883239              -7.8457
       190                         -0.2660557              -7.2397
       ...                                ...                  ...
       390                          1.3327934              36.2672
      -------------------------------------------------------------
                  HL-Gap            0.0036594 Eh            0.0996 eV

Wiberg/Mayer (AO) data.
largest (>0.10) Wiberg bond orders for each atom

     #   Z sym  total        # sym  WBO       # sym  WBO       # sym  WBO
 ---------------------------------------------------------------------------
     1  26 Fe   3.199 --    30 N    0.676    12 N    0.669     7 N    0.668
                            31 N    0.661
     2   6 C    3.926 --    29 C    1.362     3 C    1.362    38 H    0.970
     3   6 C    3.925 --     2 C    1.362     7 N    1.210     4 C    1.173
     4   6 C    3.960 --     5 C    1.650     3 C    1.173    39 H    0.975
     5   6 C    3.962 --     4 C    1.650     6 C    1.175    40 H    0.973
     6   6 C    3.921 --     8 C    1.314     7 N    1.224     5 C    1.175
     7   7 N    3.379 --     6 C    1.224     3 C    1.210     1 Fe   0.668
     8   6 C    3.928 --     9 C    1.335     6 C    1.314    32 C    1.021
     9   6 C    3.918 --     8 C    1.335    12 N    1.199    10 C    1.180
    10   6 C    3.957 --    11 C    1.637     9 C    1.180    41 H    0.973
    11   6 C    3.961 --    10 C    1.637    13 C    1.189    42 H    0.969
    12   7 N    3.382 --    13 C    1.244     9 C    1.199     1 Fe   0.669
    13   6 C    3.909 --    14 C    1.254    12 N    1.244    11 C    1.189
    14   6 C    3.926 --    13 C    1.254    15 C    1.252   113 C    1.195
    15   6 C    3.910 --    14 C    1.252    31 N    1.243    16 C    1.191
    16   6 C    3.961 --    17 C    1.634    15 C    1.191    43 H    0.969
    17   6 C    3.957 --    16 C    1.634    18 C    1.182    44 H    0.973
    18   6 C    3.918 --    19 C    1.328    31 N    1.202    17 C    1.182
    19   6 C    3.928 --    18 C    1.328    26 C    1.314    20 C    1.030
    20   6 C    3.988 --    21 C    1.394    25 C    1.393    19 C    1.030
                            23 C    0.107
    21   6 C    3.987 --    22 C    1.448    20 C    1.394    45 H    0.973
                            24 C    0.109
    22   6 C    3.995 --    21 C    1.448    23 C    1.437    46 H    0.973
                            25 C    0.109
    23   6 C    3.989 --    22 C    1.437    24 C    1.437    47 H    0.974
                            20 C    0.107
    24   6 C    3.995 --    25 C    1.448    23 C    1.437    48 H    0.973
                            21 C    0.109
    25   6 C    3.987 --    24 C    1.448    20 C    1.393    49 H    0.973
                            22 C    0.109
    26   6 C    3.922 --    19 C    1.314    30 N    1.223    27 C    1.176
    27   6 C    3.962 --    28 C    1.648    26 C    1.176    50 H    0.973
    28   6 C    3.959 --    27 C    1.648    29 C    1.174    51 H    0.975
    29   6 C    3.925 --     2 C    1.362    30 N    1.209    28 C    1.174
    30   7 N    3.382 --    26 C    1.223    29 C    1.209     1 Fe   0.676
    31   7 N    3.379 --    15 C    1.243    18 C    1.202     1 Fe   0.661
    32   6 C    3.988 --    37 C    1.397    33 C    1.397     8 C    1.021
                            35 C    0.109
    33   6 C    3.988 --    34 C    1.447    32 C    1.397    52 H    0.973
                            36 C    0.110
    34   6 C    3.995 --    33 C    1.447    35 C    1.438    53 H    0.973
                            37 C    0.110
    35   6 C    3.991 --    36 C    1.438    34 C    1.438    54 H    0.974
                            32 C    0.109
    36   6 C    3.995 --    37 C    1.446    35 C    1.438    55 H    0.973
                            33 C    0.110
    37   6 C    3.988 --    36 C    1.446    32 C    1.397    56 H    0.973
                            34 C    0.110
    38   1 H    1.001 --     2 C    0.970
    39   1 H    0.998 --     4 C    0.975
    40   1 H    1.005 --     5 C    0.973
    41   1 H    1.005 --    10 C    0.973
    42   1 H    1.006 --    11 C    0.969
    43   1 H    1.005 --    16 C    0.969
    44   1 H    1.004 --    17 C    0.973
    45   1 H    1.005 --    21 C    0.973
    46   1 H    1.002 --    22 C    0.973
    47   1 H    1.003 --    23 C    0.974
    48   1 H    1.003 --    24 C    0.973
    49   1 H    1.005 --    25 C    0.973
    50   1 H    1.004 --    27 C    0.973
    51   1 H    0.998 --    28 C    0.975
    52   1 H    1.004 --    33 C    0.973
    53   1 H    1.002 --    34 C    0.973
    54   1 H    1.003 --    35 C    0.974
    55   1 H    1.002 --    36 C    0.973
    56   1 H    1.004 --    37 C    0.973
    57  26 Fe   3.199 --    86 N    0.676    68 N    0.669    63 N    0.668
                            87 N    0.661
    58   6 C    3.926 --    85 C    1.362    59 C    1.362    94 H    0.970
    59   6 C    3.925 --    58 C    1.362    63 N    1.210    60 C    1.173
    60   6 C    3.960 --    61 C    1.650    59 C    1.173    95 H    0.975
    61   6 C    3.962 --    60 C    1.650    62 C    1.175    96 H    0.973
    62   6 C    3.921 --    64 C    1.314    63 N    1.224    61 C    1.175
    63   7 N    3.379 --    62 C    1.224    59 C    1.210    57 Fe   0.668
    64   6 C    3.928 --    65 C    1.335    62 C    1.314    88 C    1.021
    65   6 C    3.918 --    64 C    1.335    68 N    1.199    66 C    1.180
    66   6 C    3.957 --    67 C    1.637    65 C    1.180    97 H    0.973
    67   6 C    3.961 --    66 C    1.637    69 C    1.189    98 H    0.969
    68   7 N    3.382 --    69 C    1.244    65 C    1.199    57 Fe   0.669
    69   6 C    3.909 --    70 C    1.254    68 N    1.244    67 C    1.189
    70   6 C    3.926 --    69 C    1.254    71 C    1.252   114 C    1.195
    71   6 C    3.910 --    70 C    1.252    87 N    1.243    72 C    1.191
    72   6 C    3.961 --    73 C    1.634    71 C    1.191    99 H    0.969
    73   6 C    3.957 --    72 C    1.634    74 C    1.182   100 H    0.973
    74   6 C    3.918 --    75 C    1.328    87 N    1.202    73 C    1.182
    75   6 C    3.928 --    74 C    1.328    82 C    1.314    76 C    1.030
    76   6 C    3.988 --    77 C    1.394    81 C    1.393    75 C    1.030
                            79 C    0.107
    77   6 C    3.987 --    78 C    1.448    76 C    1.394   101 H    0.973
                            80 C    0.109
    78   6 C    3.995 --    77 C    1.448    79 C    1.437   102 H    0.973
                            81 C    0.109
    79   6 C    3.989 --    78 C    1.437    80 C    1.437   103 H    0.974
                            76 C    0.107
    80   6 C    3.995 --    81 C    1.448    79 C    1.437   104 H    0.973
                            77 C    0.109
    81   6 C    3.987 --    80 C    1.448    76 C    1.393   105 H    0.973
                            78 C    0.109
    82   6 C    3.922 --    75 C    1.314    86 N    1.223    83 C    1.176
    83   6 C    3.962 --    84 C    1.648    82 C    1.176   106 H    0.973
    84   6 C    3.959 --    83 C    1.648    85 C    1.174   107 H    0.975
    85   6 C    3.925 --    58 C    1.362    86 N    1.209    84 C    1.174
    86   7 N    3.382 --    82 C    1.223    85 C    1.209    57 Fe   0.676
    87   7 N    3.379 --    71 C    1.243    74 C    1.202    57 Fe   0.661
    88   6 C    3.988 --    93 C    1.397    89 C    1.397    64 C    1.021
                            91 C    0.109
    89   6 C    3.988 --    90 C    1.447    88 C    1.397   108 H    0.973
                            92 C    0.110
    90   6 C    3.995 --    89 C    1.447    91 C    1.438   109 H    0.973
                            93 C    0.110
    91   6 C    3.991 --    92 C    1.438    90 C    1.438   110 H    0.974
                            88 C    0.109
    92   6 C    3.995 --    93 C    1.446    91 C    1.438   111 H    0.973
                            89 C    0.110
    93   6 C    3.988 --    92 C    1.446    88 C    1.397   112 H    0.973
                            90 C    0.110
    94   1 H    1.001 --    58 C    0.970
    95   1 H    0.998 --    60 C    0.975
    96   1 H    1.005 --    61 C    0.973
    97   1 H    1.005 --    66 C    0.973
    98   1 H    1.006 --    67 C    0.969
    99   1 H    1.005 --    72 C    0.969
   100   1 H    1.004 --    73 C    0.973
   101   1 H    1.005 --    77 C    0.973
   102   1 H    1.002 --    78 C    0.973
   103   1 H    1.003 --    79 C    0.974
   104   1 H    1.003 --    80 C    0.973
   105   1 H    1.005 --    81 C    0.973
   106   1 H    1.004 --    83 C    0.973
   107   1 H    0.998 --    84 C    0.975
   108   1 H    1.004 --    89 C    0.973
   109   1 H    1.002 --    90 C    0.973
   110   1 H    1.003 --    91 C    0.974
   111   1 H    1.002 --    92 C    0.973
   112   1 H    1.004 --    93 C    0.973
   113   6 C    3.925 --   114 C    2.550    14 C    1.195
   114   6 C    3.925 --   113 C    2.550    70 C    1.195
 ---------------------------------------------------------------------------

           -------------------------------------------------
          | TOTAL ENERGY             -191.483094140270 Eh   |
          | GRADIENT NORM               0.000460598101 Eh/α |
          | HOMO-LUMO GAP               0.099576830092 eV   |
           -------------------------------------------------

 * finished run on 2022/07/29 at 19:12:44.289
