   * xtb version 6.5.1 (b24c23e) compiled by 'conda@728c89f4b128' on 2022-07-12
          program call               : xtb Fe_Ph_C8_2.xyz --gfn 1 --opt -T 48

   ID    Z sym.   atoms
    1   26 Fe     1, 57
    2    6 C      2-6, 8-11, 13-29, 32-37, 58-62, 64-67, 69-85, 88-93, 113-120
    3    7 N      7, 12, 30, 31, 63, 68, 86, 87
    4    1 H      38-56, 94-112
########################################################################
[WARNING] Please study the warnings concerning your input carefully
-1- prog_main_parseArguments: Unknown option '-T' provided
########################################################################

          :  Hamiltonian                  GFN1-xTB          :
 * total energy  :  -203.7159782 Eh     change       -0.1663707E-07 Eh
 * total energy  :  -203.9043546 Eh     change       -0.1883763E+00 Eh
 * total energy  :  -203.9588504 Eh     change       -0.5449587E-01 Eh
 * total energy  :  -203.9799176 Eh     change       -0.2106711E-01 Eh
 * total energy  :  -203.9895920 Eh     change       -0.9674478E-02 Eh
 * total energy  :  -203.9940869 Eh     change       -0.4494828E-02 Eh
 * total energy  :  -203.9947009 Eh     change       -0.6140552E-03 Eh
 * total energy  :  -203.9977623 Eh     change       -0.3061382E-02 Eh
 * total energy  :  -203.9983591 Eh     change       -0.5968483E-03 Eh
 * total energy  :  -203.9991395 Eh     change       -0.7803699E-03 Eh
 * total energy  :  -204.0011894 Eh     change       -0.5649468E-05 Eh
 * total energy  :  -204.0011972 Eh     change       -0.7769950E-05 Eh
 * total energy  :  -204.0012050 Eh     change       -0.7799918E-05 Eh
 * total energy  :  -204.0012113 Eh     change       -0.6259521E-05 Eh
 * total energy  :  -204.0012180 Eh     change       -0.6754766E-05 Eh
 * total energy  :  -204.0012267 Eh     change       -0.8636029E-05 Eh
 * total energy  :  -204.0012356 Eh     change       -0.8903600E-05 Eh
 * total energy  :  -204.0012426 Eh     change       -0.7020675E-05 Eh
 * total energy  :  -204.0012449 Eh     change       -0.2351151E-05 Eh
   *** GEOMETRY OPTIMIZATION CONVERGED AFTER 44 ITERATIONS ***

 final structure:
================
120
 xtb: 6.5.1 (b24c23e)
Fe          11.50211485011207       -0.03175384710739       -0.05552437675859
C            8.11287023800364       -0.05495707040206       -0.06999089095928
C            8.76663833344159       -1.25585232095375       -0.25370777454692
C            8.09052129412479       -2.50216099374126       -0.45292769082091
C            9.04520402891222       -3.46164600036549       -0.47613517805931
C           10.30495097073408       -2.79799572226267       -0.30257810496333
N           10.12144894303720       -1.44724155308889       -0.17947511644661
C           11.52118956793572       -3.46133303193448       -0.18298432029182
C           12.72832634502840       -2.79907887380113       -0.01577042663332
C           13.99580778797732       -3.46271885728871        0.06075885845002
C           14.94270568484746       -2.49471968623994        0.09239132896381
N           12.90293141888869       -1.43492229522762       -0.00793067285897
C           14.25195677515290       -1.24471605377517        0.03332620531965
C           14.91045916851819       -0.01055753616707       -0.03386552822771
C           14.23254866012086        1.21400510598861       -0.08076603444021
C           14.90102583882625        2.47325973353658       -0.17896331396164
C           13.94220801737190        3.42781030346895       -0.10674794146164
C           12.69093255395964        2.74642738151914        0.04265801316047
C           11.47348403626396        3.39104867655709        0.21263859750057
C           11.46142624033666        4.87018112741441        0.30574399153852
C           10.77506170316125        5.63213363274856       -0.64093531888242
C           10.76886333894421        7.01613271905353       -0.55556965868734
C           11.44228029693415        7.65501889098165        0.47674845617425
C           12.12559050910150        6.90383574633277        1.42337290997974
C           12.13875025872935        5.51975025568410        1.33864354510470
C           10.26351363133265        2.70866967878133        0.28308860016181
C            8.99408539660233        3.34633178505291        0.48243203108082
C            8.05118791045828        2.37945569846037        0.38751131210155
C            8.74630895228744        1.15114191354048        0.14766269638060
N           10.10071547249705        1.35867611745289        0.12470130566093
N           12.88440311586497        1.38552616194210        0.02578969647913
C           11.53004092702804       -4.94397890834597       -0.24660578979512
C           11.19209435673124       -5.60239483766907       -1.42900273978227
C           11.20571829813106       -6.98806041065193       -1.48632340334395
C           11.55030562200128       -7.72988414157180       -0.36465431347200
C           11.88515426362068       -7.08074817489700        0.81587748780197
C           11.87881916093240       -5.69514947838398        0.87585618858614
H            7.02874837846165       -0.06137903928268       -0.08614878973493
H            7.02159480685449       -2.60982138781891       -0.54723718431518
H            8.91987072549306       -4.52640540956876       -0.58770854694519
H           14.13329307216588       -4.53163800722169        0.06868723160965
H           16.01438131558709       -2.60180929494466        0.14034669786760
H           15.96645196360007        2.59522599314637       -0.28981187244213
H           14.06084170880809        4.49773911461104       -0.15899970159801
H           10.26016066391818        5.13507548759382       -1.45552045994151
H           10.23650911406084        7.59839450197460       -1.29948402679856
H           11.43490454234932        8.73705758581933        0.54310161888151
H           12.65132895442624        7.39815241186989        2.23274238467277
H           12.66288963543984        4.93383401369185        2.08543084963947
H            8.85521385473446        4.39812107670077        0.67295797393824
H            6.97981497329841        2.46967980225476        0.47175453675492
H           10.93337341082169       -5.02330498127379       -2.30842902021572
H           10.94678969821740       -7.49062211391670       -2.41165519008761
H           11.55826516812475       -8.81298376600668       -0.41063249328875
H           12.15285832380188       -7.65599445611244        1.69523531550932
H           12.13167272074559       -5.18853663799205        1.80056470655867
Fe          30.05058539122948        0.03088614242376       -0.05443825725740
C           33.44036212679591        0.05611554091650       -0.06313183560570
C           32.78656750914696        1.26445746363120       -0.18820032987917
C           33.46305235037041        2.51905877487195       -0.32390341570818
C           32.50796539140180        3.47822339228218       -0.30628683101060
C           31.24769458138194        2.80655230643166       -0.17180513727308
N           31.43132928403073        1.45159541861975       -0.11094937654427
C           30.02998685811336        3.46333928441357       -0.03284430552294
C           28.82216663971796        2.79390558180709        0.09615323937027
C           27.55378268953866        3.45343369657345        0.19081156765714
C           26.60749141695564        2.48444651438634        0.17950492836801
N           28.64859367766768        1.43041198373876        0.04827163851422
C           27.29952877346509        1.23805519628369        0.07581392223832
C           26.64166645927044        0.00699243629627       -0.03828475165958
C           27.31988282919048       -1.21469314544501       -0.13092649116262
C           26.65145272150961       -2.46935228416716       -0.27678081452410
C           27.61071909755838       -3.42560009992737       -0.24493109561671
C           28.86219552295504       -2.75011185677379       -0.07217076314048
C           30.08049686000915       -3.40085544455986        0.06460983003899
C           30.09312609811314       -4.88276117620852        0.09326750830445
C           30.77094582520759       -5.60261378742014       -0.89168532268343
C           30.77732589955325       -6.98903327336220       -0.86684137049807
C           30.11277599297809       -7.67231977430497        0.14252283790705
C           29.43820224112521       -6.96314936205491        1.12705331370186
C           29.42473729086726       -5.57667750484456        1.10282948411441
C           31.29070420255240       -2.72202144369069        0.15947505887844
C           32.56077877135673       -3.36813625973276        0.32454671103414
C           33.50323998570730       -2.39760274800558        0.27309839578004
C           32.80722574656416       -1.15946597980844        0.09399358374358
N           31.45283947686548       -1.36606865126786        0.06342529108169
N           28.66829106265327       -1.38971194604391       -0.03357667092261
C           30.02048039007714        4.94732572576702       -0.03249188935338
C           30.36915047791531        5.65617945040458       -1.18217737179804
C           30.35545979700978        7.04301405841886       -1.17982376885815
C           30.00016246362719        7.73574105670493       -0.03045142834200
C           29.65443230322602        7.03627576115806        1.11773950221402
C           29.66070202689097        5.64937649271309        1.11794127417342
H           34.52450399481944        0.06361578630601       -0.07769946950472
H           34.53239351994287        2.63143591468553       -0.40736044063975
H           32.63326380367729        4.54714009520707       -0.36608943589658
H           27.41544441597181        4.52115802387835        0.23947430172519
H           25.53549405659884        2.58903639976600        0.22555336811276
H           25.58578764213667       -2.58719293256096       -0.38980733858690
H           27.49235914553386       -4.49268712714906       -0.33909224959168
H           31.27903795301178       -5.07045336217722       -1.68816550320890
H           31.30281472157795       -7.53830463244260       -1.64014446736505
H           30.12023565881114       -8.75622511344769        0.16149791506519
H           28.91951707579738       -7.49230476560936        1.91875132612352
H           28.90727305861710       -5.02384050636272        1.87891315598140
H           32.70026229816251       -4.42776328352861        0.46446593376734
H           34.57485312979168       -2.49131918489178        0.35016147417963
H           30.63649709471758        5.11553754665583       -2.08323800387270
H           30.62319632294113        7.58503253654343       -2.08005039995273
H           29.99244527447571        8.81981891574144       -0.02965438462265
H           29.37794367111661        7.57306831562408        2.01843949783048
H           29.39909900810505        5.10335504563235        2.01745167407109
C           16.31044784227685       -0.00144067381385       -0.05159247448867
C           17.53684679979819        0.00282151008840       -0.06028137160147
C           18.87600513422929        0.00352785056651       -0.06710713681848
C           20.10884988165412        0.00301222558316       -0.07094887736516
C           21.44323531829042        0.00026016467955       -0.07207636971427
C           22.67604063095293       -0.00128775633910       -0.06885436916597
C           24.01520613594859       -0.00203731924915       -0.06371467145745
C           25.24165017935358       -0.00134624169710       -0.05632220286606

          :  Hamiltonian                  GFN1-xTB          :
         :: total energy            -204.001244934819 Eh    ::
         :: gradient norm              0.000328023344 Eh/a0 ::
         :: HOMO-LUMO gap              0.093551714543 eV    ::
         :: SCC energy              -207.495115324075 Eh    ::
         :: repulsion energy           3.600271679204 Eh    ::

    * Orbital Energies and Occupations

         #    Occupation            Energy/Eh            Energy/eV
      -------------------------------------------------------------
         1        2.0000           -0.7697627             -20.9463
       ...           ...                  ...                  ...
       179        2.0000           -0.4276967             -11.6382
       180        2.0000           -0.4195623             -11.4169
       181        2.0000           -0.4117634             -11.2047
       182        2.0000           -0.3974225             -10.8144
       183        2.0000           -0.3974200             -10.8143
       184        2.0000           -0.3951841             -10.7535
       185        1.9917           -0.3895870             -10.6012
       186        1.9914           -0.3895524             -10.6003
       187        1.9458           -0.3877779             -10.5520
       188        1.9445           -0.3877556             -10.5514
       189        1.9408           -0.3876927             -10.5497
       190        1.9407           -0.3876908             -10.5496
       191        1.7293           -0.3861386             -10.5074 (HOMO)
       192        0.2926           -0.3827006             -10.4138 (LUMO)
       193        0.2231           -0.3824054             -10.4058
       194                         -0.3408837              -9.2759
       195                         -0.3294386              -8.9645
       196                         -0.3280613              -8.9270
       197                         -0.3280501              -8.9267
       198                         -0.3062946              -8.3347
       199                         -0.3038633              -8.2685
       200                         -0.3020680              -8.2197
       201                         -0.3019406              -8.2162
       202                         -0.2942054              -8.0057
       ...                                ...                  ...
       414                          1.5987614              43.5045
      -------------------------------------------------------------
                  HL-Gap            0.0034380 Eh            0.0936 eV

Wiberg/Mayer (AO) data.
largest (>0.10) Wiberg bond orders for each atom

     #   Z sym  total        # sym  WBO       # sym  WBO       # sym  WBO
 ---------------------------------------------------------------------------
     1  26 Fe   3.161 --    30 N    0.673     7 N    0.668    12 N    0.665
                            31 N    0.661
     2   6 C    3.925 --     3 C    1.363    29 C    1.363    38 H    0.970
     3   6 C    3.925 --     2 C    1.363     7 N    1.209     4 C    1.173
     4   6 C    3.959 --     5 C    1.649     3 C    1.173    39 H    0.975
     5   6 C    3.962 --     4 C    1.649     6 C    1.175    40 H    0.973
     6   6 C    3.920 --     8 C    1.314     7 N    1.225     5 C    1.175
     7   7 N    3.381 --     6 C    1.225     3 C    1.209     1 Fe   0.668
     8   6 C    3.928 --     9 C    1.337     6 C    1.314    32 C    1.021
     9   6 C    3.917 --     8 C    1.337    12 N    1.198    10 C    1.179
    10   6 C    3.957 --    11 C    1.639     9 C    1.179    41 H    0.973
    11   6 C    3.960 --    10 C    1.639    13 C    1.188    42 H    0.973
    12   7 N    3.382 --    13 C    1.247     9 C    1.198     1 Fe   0.665
    13   6 C    3.903 --    14 C    1.249    12 N    1.247    11 C    1.188
    14   6 C    3.925 --    13 C    1.249    15 C    1.249   113 C    1.206
    15   6 C    3.904 --    14 C    1.249    31 N    1.245    16 C    1.189
    16   6 C    3.960 --    17 C    1.636    15 C    1.189    43 H    0.973
    17   6 C    3.957 --    16 C    1.636    18 C    1.181    44 H    0.973
    18   6 C    3.917 --    19 C    1.332    31 N    1.200    17 C    1.181
    19   6 C    3.928 --    18 C    1.332    26 C    1.313    20 C    1.029
    20   6 C    3.988 --    25 C    1.394    21 C    1.394    19 C    1.029
                            23 C    0.108
    21   6 C    3.987 --    22 C    1.448    20 C    1.394    45 H    0.973
                            24 C    0.109
    22   6 C    3.995 --    21 C    1.448    23 C    1.437    46 H    0.973
                            25 C    0.109
    23   6 C    3.989 --    24 C    1.438    22 C    1.437    47 H    0.974
                            20 C    0.108
    24   6 C    3.995 --    25 C    1.447    23 C    1.438    48 H    0.973
                            21 C    0.109
    25   6 C    3.987 --    24 C    1.447    20 C    1.394    49 H    0.973
                            22 C    0.109
    26   6 C    3.921 --    19 C    1.313    30 N    1.224    27 C    1.176
    27   6 C    3.962 --    28 C    1.648    26 C    1.176    50 H    0.973
    28   6 C    3.959 --    27 C    1.648    29 C    1.174    51 H    0.975
    29   6 C    3.925 --     2 C    1.363    30 N    1.209    28 C    1.174
    30   7 N    3.383 --    26 C    1.224    29 C    1.209     1 Fe   0.673
    31   7 N    3.381 --    15 C    1.245    18 C    1.200     1 Fe   0.661
    32   6 C    3.988 --    37 C    1.397    33 C    1.397     8 C    1.021
                            35 C    0.109
    33   6 C    3.988 --    34 C    1.446    32 C    1.397    52 H    0.973
                            36 C    0.110
    34   6 C    3.995 --    33 C    1.446    35 C    1.438    53 H    0.973
                            37 C    0.110
    35   6 C    3.991 --    36 C    1.438    34 C    1.438    54 H    0.974
                            32 C    0.109
    36   6 C    3.995 --    37 C    1.446    35 C    1.438    55 H    0.973
                            33 C    0.110
    37   6 C    3.988 --    36 C    1.446    32 C    1.397    56 H    0.973
                            34 C    0.110
    38   1 H    1.001 --     2 C    0.970
    39   1 H    0.998 --     4 C    0.975
    40   1 H    1.005 --     5 C    0.973
    41   1 H    1.005 --    10 C    0.973
    42   1 H    1.002 --    11 C    0.973
    43   1 H    1.002 --    16 C    0.973
    44   1 H    1.005 --    17 C    0.973
    45   1 H    1.005 --    21 C    0.973
    46   1 H    1.002 --    22 C    0.973
    47   1 H    1.003 --    23 C    0.974
    48   1 H    1.002 --    24 C    0.973
    49   1 H    1.005 --    25 C    0.973
    50   1 H    1.005 --    27 C    0.973
    51   1 H    0.998 --    28 C    0.975
    52   1 H    1.004 --    33 C    0.973
    53   1 H    1.002 --    34 C    0.973
    54   1 H    1.003 --    35 C    0.974
    55   1 H    1.002 --    36 C    0.973
    56   1 H    1.004 --    37 C    0.973
    57  26 Fe   3.159 --    86 N    0.672    63 N    0.667    68 N    0.665
                            87 N    0.661
    58   6 C    3.925 --    59 C    1.363    85 C    1.363    94 H    0.970
    59   6 C    3.925 --    58 C    1.363    63 N    1.210    60 C    1.173
    60   6 C    3.959 --    61 C    1.649    59 C    1.173    95 H    0.975
    61   6 C    3.962 --    60 C    1.649    62 C    1.175    96 H    0.973
    62   6 C    3.920 --    64 C    1.314    63 N    1.225    61 C    1.175
    63   7 N    3.381 --    62 C    1.225    59 C    1.210    57 Fe   0.667
    64   6 C    3.928 --    65 C    1.337    62 C    1.314    88 C    1.021
    65   6 C    3.917 --    64 C    1.337    68 N    1.198    66 C    1.179
    66   6 C    3.957 --    67 C    1.639    65 C    1.179    97 H    0.973
    67   6 C    3.960 --    66 C    1.639    69 C    1.188    98 H    0.973
    68   7 N    3.382 --    69 C    1.247    65 C    1.198    57 Fe   0.665
    69   6 C    3.903 --    70 C    1.249    68 N    1.247    67 C    1.188
    70   6 C    3.925 --    69 C    1.249    71 C    1.249   120 C    1.206
    71   6 C    3.904 --    70 C    1.249    87 N    1.245    72 C    1.189
    72   6 C    3.960 --    73 C    1.637    71 C    1.189    99 H    0.973
    73   6 C    3.957 --    72 C    1.637    74 C    1.180   100 H    0.973
    74   6 C    3.917 --    75 C    1.332    87 N    1.200    73 C    1.180
    75   6 C    3.928 --    74 C    1.332    82 C    1.313    76 C    1.028
    76   6 C    3.988 --    81 C    1.394    77 C    1.394    75 C    1.028
                            79 C    0.108
    77   6 C    3.987 --    78 C    1.448    76 C    1.394   101 H    0.973
                            80 C    0.109
    78   6 C    3.995 --    77 C    1.448    79 C    1.437   102 H    0.973
                            81 C    0.109
    79   6 C    3.989 --    80 C    1.438    78 C    1.437   103 H    0.974
                            76 C    0.108
    80   6 C    3.995 --    81 C    1.447    79 C    1.438   104 H    0.973
                            77 C    0.109
    81   6 C    3.987 --    80 C    1.447    76 C    1.394   105 H    0.973
                            78 C    0.109
    82   6 C    3.921 --    75 C    1.313    86 N    1.224    83 C    1.176
    83   6 C    3.962 --    84 C    1.648    82 C    1.176   106 H    0.973
    84   6 C    3.959 --    83 C    1.648    85 C    1.174   107 H    0.975
    85   6 C    3.925 --    58 C    1.363    86 N    1.209    84 C    1.174
    86   7 N    3.383 --    82 C    1.224    85 C    1.209    57 Fe   0.672
    87   7 N    3.381 --    71 C    1.245    74 C    1.200    57 Fe   0.661
    88   6 C    3.988 --    93 C    1.397    89 C    1.397    64 C    1.021
                            91 C    0.109
    89   6 C    3.988 --    90 C    1.446    88 C    1.397   108 H    0.973
                            92 C    0.110
    90   6 C    3.995 --    89 C    1.446    91 C    1.438   109 H    0.973
                            93 C    0.110
    91   6 C    3.991 --    92 C    1.438    90 C    1.438   110 H    0.974
                            88 C    0.109
    92   6 C    3.995 --    93 C    1.446    91 C    1.438   111 H    0.973
                            89 C    0.110
    93   6 C    3.988 --    92 C    1.446    88 C    1.397   112 H    0.973
                            90 C    0.110
    94   1 H    1.001 --    58 C    0.970
    95   1 H    0.998 --    60 C    0.975
    96   1 H    1.005 --    61 C    0.973
    97   1 H    1.005 --    66 C    0.973
    98   1 H    1.002 --    67 C    0.973
    99   1 H    1.002 --    72 C    0.973
   100   1 H    1.005 --    73 C    0.973
   101   1 H    1.005 --    77 C    0.973
   102   1 H    1.002 --    78 C    0.973
   103   1 H    1.003 --    79 C    0.974
   104   1 H    1.002 --    80 C    0.973
   105   1 H    1.004 --    81 C    0.973
   106   1 H    1.005 --    83 C    0.973
   107   1 H    0.998 --    84 C    0.975
   108   1 H    1.004 --    89 C    0.973
   109   1 H    1.002 --    90 C    0.973
   110   1 H    1.003 --    91 C    0.974
   111   1 H    1.002 --    92 C    0.973
   112   1 H    1.004 --    93 C    0.973
   113   6 C    3.866 --   114 C    2.411    14 C    1.206   116 C    0.183
   114   6 C    3.923 --   113 C    2.411   115 C    1.363
   115   6 C    3.881 --   116 C    2.306   114 C    1.363   118 C    0.178
   116   6 C    3.914 --   115 C    2.306   117 C    1.389   113 C    0.183
   117   6 C    3.914 --   118 C    2.306   116 C    1.389   120 C    0.183
   118   6 C    3.881 --   117 C    2.306   119 C    1.363   115 C    0.178
   119   6 C    3.923 --   120 C    2.411   118 C    1.363
   120   6 C    3.866 --   119 C    2.411    70 C    1.206   117 C    0.183
 ---------------------------------------------------------------------------

           -------------------------------------------------
          | TOTAL ENERGY             -204.001244934819 Eh   |
          | GRADIENT NORM               0.000328023344 Eh/α |
          | HOMO-LUMO GAP               0.093551714543 eV   |
           -------------------------------------------------

 * finished run on 2022/07/29 at 20:38:03.320
