   * xtb version 6.5.1 (b24c23e) compiled by 'conda@728c89f4b128' on 2022-07-12
          program call               : xtb Fe_C2Py_C2_3.xyz --gfn 1 --opt -T 48

   ID    Z sym.   atoms
    1   26 Fe     1, 59, 121
    2    6 C      2-6, 8-13, 15-19, 21-26, 28-33, 35-40, 60-64, 66-71, 73-77,
                  79-84, 86-91, 93-98, 117-120, 122-126, 128-133, 135-139,
                  141-146, 148-153, 155-160
    3    7 N      7, 14, 20, 27, 34, 41, 65, 72, 78, 85, 92, 99, 127, 134,
                  140, 147, 154, 161
    4    1 H      42-58, 100-116, 162-177
########################################################################
[WARNING] Please study the warnings concerning your input carefully
-1- prog_main_parseArguments: Unknown option '-T' provided
########################################################################

          :  Hamiltonian                  GFN1-xTB          :
 * total energy  :  -316.3963981 Eh     change       -0.1660379E-07 Eh
 * total energy  :  -316.6189400 Eh     change       -0.2225419E+00 Eh
 * total energy  :  -316.7427802 Eh     change       -0.1238402E+00 Eh
 * total energy  :  -316.7973067 Eh     change       -0.5452653E-01 Eh
 * total energy  :  -316.8279370 Eh     change       -0.3063022E-01 Eh
 * total energy  :  -316.8512935 Eh     change       -0.2335657E-01 Eh
 * total energy  :  -316.8698213 Eh     change       -0.1852781E-01 Eh
 * total energy  :  -316.8843070 Eh     change       -0.1448562E-01 Eh
 * total energy  :  -316.8962768 Eh     change       -0.1196981E-01 Eh
 * total energy  :  -316.9073367 Eh     change       -0.1105989E-01 Eh
 * total energy  :  -316.9842639 Eh     change       -0.7286820E-05 Eh
 * total energy  :  -316.9842717 Eh     change       -0.7803475E-05 Eh
 * total energy  :  -316.9842807 Eh     change       -0.8924811E-05 Eh
 * total energy  :  -316.9842914 Eh     change       -0.1074876E-04 Eh
 * total energy  :  -316.9843042 Eh     change       -0.1276925E-04 Eh
 * total energy  :  -316.9843183 Eh     change       -0.1410253E-04 Eh
 * total energy  :  -316.9843326 Eh     change       -0.1432837E-04 Eh
 * total energy  :  -316.9843470 Eh     change       -0.1442114E-04 Eh
 * total energy  :  -316.9843500 Eh     change       -0.3012896E-05 Eh
   *** GEOMETRY OPTIMIZATION CONVERGED AFTER 185 ITERATIONS ***

 final structure:
================
177
 xtb: 6.5.1 (b24c23e)
Fe          34.93639048539298       -0.10489055081192       -0.12141624555509
C           31.54919982473583        0.07237568893837       -0.06649896080122
C           32.25187753404786        0.87227202671699        0.81133865894903
C           31.63875668214982        1.78249712572341        1.73138433104848
C           32.63444074752746        2.28688838442063        2.49946533829516
C           33.85012344115923        1.68061152893943        2.04671060690479
N           33.61135507433610        0.84531292541394        0.99587846172309
C           35.08662028014274        1.85807576507483        2.67421289352539
C           35.15155092015322        2.69023484159485        3.81196182924161
C           35.20824630369151        3.42122470978967        4.77903057684939
C           35.26997337771062        4.28106645453602        5.89941733159389
C           36.46272994731589        4.47009702331898        6.60714307392124
C           36.46835799608716        5.32711574831856        7.69332256390654
N           35.38897691834575        5.98792617180229        8.10405864381231
C           34.25120736570320        5.81372515402251        7.43647072285122
C           34.13904559268640        4.97956071529025        6.33851725954253
C           36.25975786717378        1.25443431039638        2.21902342493812
C           37.52758355230892        1.39269036327835        2.86574392973243
C           38.43943322244945        0.78519145360219        2.06672911591721
N           36.38619061875541        0.54081869621633        1.05830785539028
C           37.72256739865563        0.28359976570682        0.93591937575021
C           38.34078913755114       -0.25613174950129       -0.19589121447124
C           37.62735713326344       -0.74468596788943       -1.29457208833546
C           38.24605323050486       -1.31703445028145       -2.44954156446975
C           37.25045925667239       -1.85538777108549       -3.19645829810848
C           36.02999925631919       -1.60139501411425       -2.49614058773139
N           36.26971065584635       -0.88906364513643       -1.35282132107929
C           34.78849240366737       -2.09953063942349       -2.89464149435736
C           34.73157043403240       -2.94812362734546       -4.02061454152874
C           34.68655581061552       -3.69097135499671       -4.97925282017530
C           34.63338536107367       -4.56567461370160       -6.08853855835002
C           35.78091047760788       -4.86785668601872       -6.83109078820516
C           35.67529653565267       -5.73462905325643       -7.90427349087166
N           34.52898434299607       -6.30233542591889       -8.27056601462047
C           33.43359740823389       -6.02001020117078       -7.56991624847038
C           33.43138764958056       -5.16589919299749       -6.48154823906907
C           33.59931786459698       -1.79222220867655       -2.22747585073157
C           32.31277816273253       -2.27137787152111       -2.63454747326271
C           31.40024820072041       -1.65129021305113       -1.84804550174035
C           32.13479267656843       -0.80186122762167       -0.95936961553262
N           33.48303628996700       -0.92357309191945       -1.18279772802604
H           30.46665944529355        0.13161762934164       -0.05082369376815
H           30.58115507442844        1.98892462405414        1.77428308426090
H           32.56899033192203        2.99607451593621        3.30909622979285
H           37.36522620769134        3.95188514881992        6.30633311429098
H           37.37942003895635        5.49244489505108        8.26119259559232
H           33.39049814571921        6.36897811841216        7.79800607449756
H           33.19297705683972        4.86726404930714        5.82284796951440
H           37.68502308037569        1.89888773129497        3.80459862768970
H           39.50382820440496        0.69004443991506        2.21010560133735
H           39.30678181475530       -1.31453226132956       -2.64275194432898
H           37.32127320615660       -2.38393101362425       -4.13352526874612
H           36.73499952575881       -4.42829531437372       -6.56642485410732
H           36.54931310564678       -5.98764422992048       -8.49747219764656
H           32.51573686854158       -6.50052112361113       -7.89619297351076
H           32.51619591226193       -4.96375097946000       -5.93832024197627
H           32.14764371026853       -2.98043050723150       -3.42997965476921
H           30.32578064488937       -1.74298878730279       -1.85781102803722
Fe          56.60857698349988       -0.27014102372424       -0.17284011190961
C           60.00248406498246       -0.16001052237299       -0.15389462056559
C           59.39813977178981       -1.37373029169097       -0.40930474141013
C           60.11718587047264       -2.58295431288380       -0.67673235599688
C           59.19481621203508       -3.57181250325664       -0.75921301327347
C           57.91786839904575       -2.96137822960096       -0.54224277670331
N           58.04860411155796       -1.61697605023193       -0.35830040626607
C           56.72133181498592       -3.67886078264521       -0.45501467889243
C           56.76813170173966       -5.08343422023916       -0.58349302137164
C           56.80969198486876       -6.29022965457661       -0.70490638234982
C           56.85530426058603       -7.69549985731733       -0.85187065756485
C           55.69355000862110       -8.47163369465566       -0.76533876911415
C           55.79098806069997       -9.84298113448380       -0.92012666964792
N           56.94259981268702      -10.46888971676668       -1.14928525344784
C           58.05148442078639       -9.73825170566575       -1.23279685967922
C           58.06251734453422       -8.36184876641099       -1.09280064607834
C           55.48311739332020       -3.06721886468668       -0.25598460166327
C           54.25250645508174       -3.78772745353477       -0.15144702142903
C           53.26482204476788       -2.86101755874585       -0.08808340161212
N           55.25644245778089       -1.71769345488119       -0.22358324790205
C           53.89902143748130       -1.58147377604838       -0.15310151197462
C           53.19762781016860       -0.37541921591973       -0.25337847431816
C           53.82833415510594        0.87189794667340       -0.30682532028805
C           53.11946488227601        2.11137220847789       -0.38066862898567
C           54.04114238916171        3.09487735574539       -0.23372472386926
C           55.30737807154927        2.44905323424434       -0.07914329304834
N           55.16859509301730        1.08969753224822       -0.15599650110819
C           56.49578586679713        3.13096731880094        0.18496624788716
C           56.44729796487498        4.53030635998676        0.36064064385118
C           56.40462483534038        5.73134937079182        0.52945010560416
C           56.36013947614892        7.12970992152674        0.73192531021448
C           55.15752774073376        7.83983899811435        0.63803411283276
C           55.16897084681450        9.20723884261249        0.84845601778669
N           56.27409880241086        9.88920803530906        1.13839738362810
C           57.42136523534757        9.22141322310063        1.22949294800832
C           57.51804025932852        7.85479074430481        1.03703421303572
C           57.73484521360817        2.49030454655224        0.27560084780484
C           58.96749655076438        3.17888031097648        0.51415215494762
C           59.95453350423699        2.25720400480733        0.40604946905280
C           59.31846978174075        1.00900174573547        0.10934195635993
N           57.95588415352511        1.16244161804377        0.05953582808806
H           61.08617658187138       -0.12406313455797       -0.15260699341598
H           61.18901193814717       -2.64783324911869       -0.77637758909729
H           59.34722576659708       -4.62355515723906       -0.94167914873350
H           54.73500841742510       -8.00205666164097       -0.58034137486354
H           54.90600085486412      -10.46967942422456       -0.85811872901596
H           58.97318280371534      -10.28130497069913       -1.42090496146283
H           58.98877394572408       -7.80522389865136       -1.16866104039774
H           54.17012565991950       -4.86266240154719       -0.13932110789960
H           52.20040206309207       -3.01620633588831       -0.01613725222373
H           52.05325450971087        2.20223792732260       -0.51212778838857
H           53.89195091820942        4.16261519207299       -0.22385884976081
H           54.23438060845085        7.32339843700927        0.40435317902394
H           54.25070928987594        9.78359600304860        0.78200678025546
H           58.30332670709166        9.80899175511283        1.46761672479865
H           58.47289111808865        7.35006253305863        1.12102716060060
H           59.04866846647745        4.23354498107475        0.72338332711122
H           61.01952873948899        2.39150568110315        0.50950432805545
C           39.74641428511688       -0.31575413829103       -0.22941579446411
C           40.96188251651521       -0.36967894627551       -0.26082415494592
C           50.57566180252871       -0.44865263680911       -0.32309278384898
C           51.79250247900082       -0.41758021079419       -0.29212119653725
Fe          45.76685332154861       -0.54509303672373       -0.38653373739632
C           42.36612488374979       -0.43528868864480       -0.30327665078887
C           43.01949971996208       -0.02965418403629       -1.47279344280139
C           42.34713657577976        0.42016991470895       -2.65103113310831
C           43.30461303869710        0.89395879519580       -3.48769704766148
C           44.55336172686500        0.73919373693713       -2.80916383136195
N           44.36991045306863        0.12800586072839       -1.59923480989458
C           45.75865863452347        1.28791450101880       -3.25485020300243
C           45.75687047376393        2.03741842706122       -4.44987609509614
C           45.74762792090946        2.68285846812377       -5.47769626111331
C           45.74417638848883        3.44069492124071       -6.67103431737207
C           46.90286040869678        4.08218357319597       -7.12435641225032
C           46.84803661673001        4.81331248745306       -8.29762246204668
N           45.74077166808602        4.93897048878140       -9.02459772902641
C           44.63533297194250        4.33186457713569       -8.60076070488960
C           44.58375978629482        3.57808752333451       -7.44161429634840
C           46.96009634471676        1.15201410065726       -2.55342131625354
C           48.18867607800409        1.77263110730267       -2.93821009606788
C           49.14331880723451        1.29708203288110       -2.09918256260974
N           47.15151502471311        0.33504220686989       -1.47434698755478
C           48.49249265558685        0.38039580009419       -1.21625835526599
C           49.17126498539548       -0.48936282881779       -0.35485905582911
C           48.50971326672428       -1.42016696149551        0.45601225684802
C           49.17490174528896       -2.36880002901070        1.29268404420437
C           48.21439181727172       -2.97066029746830        2.03852166996191
C           46.97102915263992       -2.37465641256396        1.66123978326320
N           47.16053362831447       -1.46234144378363        0.65922192061047
C           45.76843668455789       -2.58107030856238        2.34142571686041
C           45.76248716078871       -3.44995930501230        3.45258372093187
C           45.75659561854015       -4.20374723931040        4.40379712721195
C           45.75076793586093       -5.08240299532314        5.51115378147024
C           44.58909844375361       -5.29441577348332        6.26280495004506
C           44.63655823498327       -6.16448426851528        7.33750939104754
N           45.73930548541699       -6.81662289201884        7.69662711863180
C           46.84753474903766       -6.62103139575009        6.98683457618972
C           46.90636094909360       -5.77250572535234        5.89556072838933
C           44.57570060120822       -1.94474084636497        1.98462537742119
C           43.35504435039058       -2.05472622852863        2.71989820472132
C           42.40463510843401       -1.41484486783716        1.99267297418952
C           43.04953700018262       -0.93273325067242        0.81139427987801
N           44.38529435911101       -1.22027755036997        0.84181342248648
H           41.28018890378343        0.38273121182476       -2.80154900649580
H           43.18808309681010        1.32747852311975       -4.46793866572087
H           47.82559212315611        4.00553968576556       -6.56208180076170
H           47.73126134424004        5.32211207003754       -8.67276097523763
H           43.75070404780362        4.45533479945933       -9.21874927671828
H           43.66200970997681        3.10015716383374       -7.13268144653273
H           48.29434779959181        2.47364421745410       -3.75054541353160
H           50.19760785428267        1.52202747651337       -2.08323594497243
H           50.23978416510316       -2.53626298449618        1.30611625690824
H           48.32602670782928       -3.73370168765722        2.79197488004292
H           43.66966445499946       -4.78334120721851        6.00417260324453
H           43.75077268130049       -6.34809768887402        7.93863927635114
H           47.72843943973892       -7.16940247108147        7.30778518743679
H           47.82999670345708       -5.64207151235994        5.34476347990232
H           43.25162175610487       -2.56236307822193        3.66545598131112
H           41.35635291611985       -1.29271660804648        2.21330925992190

          :  Hamiltonian                  GFN1-xTB          :
         :: total energy            -316.984350037705 Eh    ::
         :: gradient norm              0.000487445013 Eh/a0 ::
         :: HOMO-LUMO gap              0.049241280832 eV    ::
         :: SCC energy              -322.310107696000 Eh    ::
         :: repulsion energy           5.480791888312 Eh    ::

    * Orbital Energies and Occupations

         #    Occupation            Energy/Eh            Energy/eV
      -------------------------------------------------------------
         1        2.0000           -0.7806045             -21.2413
       ...           ...                  ...                  ...
       282        2.0000           -0.4044642             -11.0060
       283        2.0000           -0.4043635             -11.0033
       284        1.9982           -0.3974323             -10.8147
       285        1.9943           -0.3963565             -10.7854
       286        1.9930           -0.3961624             -10.7801
       287        1.9924           -0.3960861             -10.7781
       288        1.9646           -0.3946055             -10.7378
       289        1.9605           -0.3944998             -10.7349
       290        1.9565           -0.3944055             -10.7323
       291        1.9538           -0.3943470             -10.7307
       292        1.9484           -0.3942405             -10.7278
       293        1.9447           -0.3941722             -10.7260
       294        1.2170           -0.3912096             -10.6454 (HOMO)
       295        0.3758           -0.3894000             -10.5961 (LUMO)
       296        0.3515           -0.3893223             -10.5940
       297        0.3494           -0.3893154             -10.5938
       298                         -0.3497259              -9.5165
       299                         -0.3476437              -9.4599
       300                         -0.3450621              -9.3896
       301                         -0.3446795              -9.3792
       302                         -0.3394145              -9.2359
       303                         -0.3306444              -8.9973
       304                         -0.3205014              -8.7213
       305                         -0.3148212              -8.5667
       ...                                ...                  ...
       623                          1.3454518              36.6116
      -------------------------------------------------------------
                  HL-Gap            0.0018096 Eh            0.0492 eV

Wiberg/Mayer (AO) data.
largest (>0.10) Wiberg bond orders for each atom

     #   Z sym  total        # sym  WBO       # sym  WBO       # sym  WBO
 ---------------------------------------------------------------------------
     1  26 Fe   3.092 --    41 N    0.661     7 N    0.661    20 N    0.655
                            27 N    0.655
     2   6 C    3.921 --     3 C    1.365    40 C    1.365    42 H    0.970
     3   6 C    3.916 --     2 C    1.365     7 N    1.201     4 C    1.174
     4   6 C    3.958 --     5 C    1.645     3 C    1.174    43 H    0.975
     5   6 C    3.961 --     4 C    1.645     6 C    1.182    44 H    0.974
     6   6 C    3.912 --     8 C    1.266     7 N    1.242     5 C    1.182
     7   7 N    3.377 --     6 C    1.242     3 C    1.201     1 Fe   0.661
     8   6 C    3.919 --    17 C    1.279     6 C    1.266     9 C    1.161
     9   6 C    3.956 --    10 C    2.622     8 C    1.161
    10   6 C    3.928 --     9 C    2.622    11 C    1.142
    11   6 C    3.987 --    12 C    1.350    16 C    1.350    10 C    1.142
    12   6 C    3.972 --    13 C    1.456    11 C    1.350    45 H    0.974
                            15 C    0.104
    13   6 C    3.972 --    12 C    1.456    14 N    1.407    46 H    0.972
                            16 C    0.104
    14   7 N    2.994 --    13 C    1.407    15 C    1.407
    15   6 C    3.972 --    16 C    1.457    14 N    1.407    47 H    0.972
                            12 C    0.104
    16   6 C    3.972 --    15 C    1.457    11 C    1.350    48 H    0.974
                            13 C    0.104
    17   6 C    3.908 --     8 C    1.279    20 N    1.221    18 C    1.188
    18   6 C    3.958 --    19 C    1.633    17 C    1.188    49 H    0.974
    19   6 C    3.960 --    18 C    1.633    21 C    1.189    50 H    0.973
    20   7 N    3.376 --    21 C    1.230    17 C    1.221     1 Fe   0.655
    21   6 C    3.903 --    22 C    1.264    20 N    1.230    19 C    1.189
    22   6 C    3.918 --    23 C    1.264    21 C    1.264   117 C    1.175
    23   6 C    3.903 --    22 C    1.264    27 N    1.230    24 C    1.189
    24   6 C    3.960 --    25 C    1.633    23 C    1.189    51 H    0.972
    25   6 C    3.958 --    24 C    1.633    26 C    1.188    52 H    0.974
    26   6 C    3.908 --    28 C    1.278    27 N    1.222    25 C    1.188
    27   7 N    3.376 --    23 C    1.230    26 C    1.222     1 Fe   0.655
    28   6 C    3.919 --    26 C    1.278    37 C    1.266    29 C    1.161
    29   6 C    3.956 --    30 C    2.622    28 C    1.161
    30   6 C    3.928 --    29 C    2.622    31 C    1.142
    31   6 C    3.987 --    32 C    1.350    36 C    1.350    30 C    1.142
    32   6 C    3.972 --    33 C    1.457    31 C    1.350    53 H    0.974
                            35 C    0.104
    33   6 C    3.972 --    32 C    1.457    34 N    1.407    54 H    0.972
                            36 C    0.104
    34   7 N    2.994 --    33 C    1.407    35 C    1.407
    35   6 C    3.972 --    36 C    1.457    34 N    1.407    55 H    0.972
                            32 C    0.104
    36   6 C    3.972 --    35 C    1.457    31 C    1.350    56 H    0.974
                            33 C    0.104
    37   6 C    3.912 --    28 C    1.266    41 N    1.242    38 C    1.182
    38   6 C    3.961 --    39 C    1.645    37 C    1.182    57 H    0.974
    39   6 C    3.959 --    38 C    1.645    40 C    1.174    58 H    0.975
    40   6 C    3.916 --     2 C    1.365    41 N    1.201    39 C    1.174
    41   7 N    3.377 --    37 C    1.242    40 C    1.201     1 Fe   0.661
    42   1 H    1.000 --     2 C    0.970
    43   1 H    0.997 --     4 C    0.975
    44   1 H    1.002 --     5 C    0.974
    45   1 H    1.002 --    12 C    0.974
    46   1 H    1.013 --    13 C    0.972
    47   1 H    1.013 --    15 C    0.972
    48   1 H    1.002 --    16 C    0.974
    49   1 H    1.002 --    18 C    0.974
    50   1 H    1.002 --    19 C    0.973
    51   1 H    1.002 --    24 C    0.972
    52   1 H    1.002 --    25 C    0.974
    53   1 H    1.002 --    32 C    0.974
    54   1 H    1.013 --    33 C    0.972
    55   1 H    1.013 --    35 C    0.972
    56   1 H    1.002 --    36 C    0.974
    57   1 H    1.002 --    38 C    0.974
    58   1 H    0.997 --    39 C    0.975
    59  26 Fe   3.081 --    99 N    0.659    65 N    0.658    78 N    0.653
                            85 N    0.653
    60   6 C    3.920 --    61 C    1.365    98 C    1.365   100 H    0.970
    61   6 C    3.916 --    60 C    1.365    65 N    1.201    62 C    1.174
    62   6 C    3.959 --    63 C    1.645    61 C    1.174   101 H    0.975
    63   6 C    3.961 --    62 C    1.645    64 C    1.182   102 H    0.974
    64   6 C    3.912 --    66 C    1.264    65 N    1.244    63 C    1.182
    65   7 N    3.376 --    64 C    1.244    61 C    1.201    59 Fe   0.658
    66   6 C    3.918 --    75 C    1.280    64 C    1.264    67 C    1.161
    67   6 C    3.956 --    68 C    2.622    66 C    1.161
    68   6 C    3.928 --    67 C    2.622    69 C    1.142
    69   6 C    3.987 --    74 C    1.350    70 C    1.350    68 C    1.142
    70   6 C    3.972 --    71 C    1.457    69 C    1.350   103 H    0.974
                            73 C    0.104
    71   6 C    3.972 --    70 C    1.457    72 N    1.407   104 H    0.972
                            74 C    0.104
    72   7 N    2.994 --    73 C    1.407    71 C    1.407
    73   6 C    3.972 --    74 C    1.456    72 N    1.407   105 H    0.972
                            70 C    0.104
    74   6 C    3.972 --    73 C    1.456    69 C    1.350   106 H    0.974
                            71 C    0.104
    75   6 C    3.908 --    66 C    1.280    78 N    1.221    76 C    1.188
    76   6 C    3.957 --    77 C    1.633    75 C    1.188   107 H    0.974
    77   6 C    3.960 --    76 C    1.633    79 C    1.190   108 H    0.971
    78   7 N    3.375 --    79 C    1.233    75 C    1.221    59 Fe   0.653
    79   6 C    3.902 --    80 C    1.261    78 N    1.233    77 C    1.190
    80   6 C    3.917 --    81 C    1.261    79 C    1.261   120 C    1.181
    81   6 C    3.902 --    80 C    1.261    85 N    1.232    82 C    1.189
    82   6 C    3.960 --    83 C    1.633    81 C    1.189   109 H    0.972
    83   6 C    3.958 --    82 C    1.633    84 C    1.188   110 H    0.974
    84   6 C    3.908 --    86 C    1.279    85 N    1.221    83 C    1.188
    85   7 N    3.375 --    81 C    1.232    84 C    1.221    59 Fe   0.653
    86   6 C    3.918 --    84 C    1.279    95 C    1.265    87 C    1.161
    87   6 C    3.956 --    88 C    2.622    86 C    1.161
    88   6 C    3.928 --    87 C    2.622    89 C    1.142
    89   6 C    3.987 --    90 C    1.350    94 C    1.350    88 C    1.142
    90   6 C    3.972 --    91 C    1.456    89 C    1.350   111 H    0.974
                            93 C    0.104
    91   6 C    3.972 --    90 C    1.456    92 N    1.407   112 H    0.972
                            94 C    0.104
    92   7 N    2.994 --    91 C    1.407    93 C    1.407
    93   6 C    3.972 --    94 C    1.457    92 N    1.407   113 H    0.972
                            90 C    0.104
    94   6 C    3.972 --    93 C    1.457    89 C    1.350   114 H    0.974
                            91 C    0.104
    95   6 C    3.912 --    86 C    1.265    99 N    1.243    96 C    1.182
    96   6 C    3.961 --    97 C    1.645    95 C    1.182   115 H    0.974
    97   6 C    3.959 --    96 C    1.645    98 C    1.174   116 H    0.975
    98   6 C    3.916 --    60 C    1.365    99 N    1.202    97 C    1.174
    99   7 N    3.376 --    95 C    1.243    98 C    1.202    59 Fe   0.659
   100   1 H    1.000 --    60 C    0.970
   101   1 H    0.997 --    62 C    0.975
   102   1 H    1.002 --    63 C    0.974
   103   1 H    1.002 --    70 C    0.974
   104   1 H    1.013 --    71 C    0.972
   105   1 H    1.013 --    73 C    0.972
   106   1 H    1.002 --    74 C    0.974
   107   1 H    1.002 --    76 C    0.974
   108   1 H    1.003 --    77 C    0.971
   109   1 H    1.003 --    82 C    0.972
   110   1 H    1.002 --    83 C    0.974
   111   1 H    1.002 --    90 C    0.974
   112   1 H    1.013 --    91 C    0.972
   113   1 H    1.013 --    93 C    0.972
   114   1 H    1.002 --    94 C    0.974
   115   1 H    1.002 --    96 C    0.974
   116   1 H    0.997 --    97 C    0.975
   117   6 C    3.918 --   118 C    2.562    22 C    1.175
   118   6 C    3.923 --   117 C    2.562   122 C    1.179
   119   6 C    3.923 --   120 C    2.557   142 C    1.185
   120   6 C    3.918 --   119 C    2.557    80 C    1.181
   121  26 Fe   3.085 --   127 N    0.651   147 N    0.650   161 N    0.648
                           140 N    0.648
   122   6 C    3.909 --   160 C    1.263   123 C    1.259   118 C    1.179
   123   6 C    3.904 --   122 C    1.259   127 N    1.233   124 C    1.192
   124   6 C    3.960 --   125 C    1.630   123 C    1.192   162 H    0.973
   125   6 C    3.959 --   124 C    1.630   126 C    1.190   163 H    0.974
   126   6 C    3.907 --   128 C    1.272   127 N    1.222   125 C    1.190
   127   7 N    3.368 --   123 C    1.233   126 C    1.222   121 Fe   0.651
   128   6 C    3.912 --   126 C    1.272   137 C    1.269   129 C    1.163
   129   6 C    3.955 --   130 C    2.620   128 C    1.163
   130   6 C    3.925 --   129 C    2.620   131 C    1.142
   131   6 C    3.987 --   136 C    1.350   132 C    1.350   130 C    1.142
   132   6 C    3.972 --   133 C    1.456   131 C    1.350   164 H    0.974
                           135 C    0.104
   133   6 C    3.972 --   132 C    1.456   134 N    1.407   165 H    0.972
                           136 C    0.104
   134   7 N    2.994 --   135 C    1.408   133 C    1.407
   135   6 C    3.972 --   136 C    1.456   134 N    1.408   166 H    0.972
                           132 C    0.104
   136   6 C    3.972 --   135 C    1.456   131 C    1.350   167 H    0.974
                           133 C    0.104
   137   6 C    3.906 --   128 C    1.269   140 N    1.226   138 C    1.191
   138   6 C    3.960 --   139 C    1.630   137 C    1.191   168 H    0.974
   139   6 C    3.959 --   138 C    1.630   141 C    1.191   169 H    0.972
   140   7 N    3.367 --   141 C    1.230   137 C    1.226   121 Fe   0.648
   141   6 C    3.904 --   142 C    1.260   140 N    1.230   139 C    1.191
   142   6 C    3.908 --   141 C    1.260   143 C    1.255   119 C    1.185
   143   6 C    3.903 --   142 C    1.255   147 N    1.235   144 C    1.192
   144   6 C    3.960 --   145 C    1.630   143 C    1.192   170 H    0.972
   145   6 C    3.959 --   144 C    1.630   146 C    1.190   171 H    0.974
   146   6 C    3.907 --   148 C    1.274   147 N    1.220   145 C    1.190
   147   7 N    3.368 --   143 C    1.235   146 C    1.220   121 Fe   0.650
   148   6 C    3.912 --   146 C    1.274   157 C    1.267   149 C    1.163
   149   6 C    3.955 --   150 C    2.620   148 C    1.163
   150   6 C    3.925 --   149 C    2.620   151 C    1.142
   151   6 C    3.987 --   152 C    1.350   156 C    1.350   150 C    1.142
   152   6 C    3.972 --   153 C    1.456   151 C    1.350   172 H    0.974
                           155 C    0.104
   153   6 C    3.972 --   152 C    1.456   154 N    1.408   173 H    0.972
                           156 C    0.104
   154   7 N    2.994 --   155 C    1.408   153 C    1.408
   155   6 C    3.972 --   156 C    1.456   154 N    1.408   174 H    0.972
                           152 C    0.104
   156   6 C    3.972 --   155 C    1.456   151 C    1.350   175 H    0.974
                           153 C    0.104
   157   6 C    3.906 --   148 C    1.267   161 N    1.228   158 C    1.191
   158   6 C    3.960 --   159 C    1.630   157 C    1.191   176 H    0.974
   159   6 C    3.959 --   158 C    1.630   160 C    1.191   177 H    0.973
   160   6 C    3.905 --   122 C    1.263   161 N    1.228   159 C    1.191
   161   7 N    3.367 --   160 C    1.228   157 C    1.228   121 Fe   0.648
   162   1 H    1.002 --   124 C    0.973
   163   1 H    1.002 --   125 C    0.974
   164   1 H    1.002 --   132 C    0.974
   165   1 H    1.013 --   133 C    0.972
   166   1 H    1.013 --   135 C    0.972
   167   1 H    1.002 --   136 C    0.974
   168   1 H    1.002 --   138 C    0.974
   169   1 H    1.003 --   139 C    0.972
   170   1 H    1.003 --   144 C    0.972
   171   1 H    1.002 --   145 C    0.974
   172   1 H    1.002 --   152 C    0.974
   173   1 H    1.013 --   153 C    0.972
   174   1 H    1.013 --   155 C    0.972
   175   1 H    1.002 --   156 C    0.974
   176   1 H    1.002 --   158 C    0.974
   177   1 H    1.002 --   159 C    0.973
 ---------------------------------------------------------------------------

           -------------------------------------------------
          | TOTAL ENERGY             -316.984350037705 Eh   |
          | GRADIENT NORM               0.000487445013 Eh/α |
          | HOMO-LUMO GAP               0.049241280832 eV   |
           -------------------------------------------------

 * finished run on 2022/07/29 at 16:06:16.234
