   * xtb version 6.5.1 (b24c23e) compiled by 'conda@728c89f4b128' on 2022-07-12
          program call               : xtb Ni_DHP_C6_2.xyz --gfn 1 --opt -T 48

   ID    Z sym.   atoms
    1   28 Ni     1, 59
    2    6 C      2-6, 8-11, 13-17, 19-24, 26-29, 31-36, 60-64, 66-69, 71-75,
                  77-82, 84-87, 89-94, 117-122
    3    7 N      7, 12, 18, 25, 30, 37, 65, 70, 76, 83, 88, 95
    4    1 H      38-58, 96-116
########################################################################
[WARNING] Please study the warnings concerning your input carefully
-1- prog_main_parseArguments: Unknown option '-T' provided
########################################################################

          :  Hamiltonian                  GFN1-xTB          :
 * total energy  :  -206.1476225 Eh     change       -0.2074330E-08 Eh
 * total energy  :  -208.0805162 Eh     change       -0.1932894E+01 Eh
 * total energy  :  -208.2927991 Eh     change       -0.2122829E+00 Eh
 * total energy  :  -208.3789491 Eh     change       -0.8615005E-01 Eh
 * total energy  :  -208.4314003 Eh     change       -0.5245113E-01 Eh
 * total energy  :  -208.4561596 Eh     change       -0.2475939E-01 Eh
 * total energy  :  -208.4735525 Eh     change       -0.1739288E-01 Eh
 * total energy  :  -208.4862037 Eh     change       -0.1265121E-01 Eh
 * total energy  :  -208.4953055 Eh     change       -0.9101720E-02 Eh
 * total energy  :  -208.5021057 Eh     change       -0.6800283E-02 Eh
 * total energy  :  -208.5250569 Eh     change       -0.4556729E-04 Eh
 * total energy  :  -208.5250912 Eh     change       -0.3425010E-04 Eh
 * total energy  :  -208.5251186 Eh     change       -0.2743536E-04 Eh
 * total energy  :  -208.5251346 Eh     change       -0.1595350E-04 Eh
 * total energy  :  -208.5251507 Eh     change       -0.1615101E-04 Eh
 * total energy  :  -208.5251650 Eh     change       -0.1433014E-04 Eh
 * total energy  :  -208.5251707 Eh     change       -0.5693129E-05 Eh
 * total energy  :  -208.5251799 Eh     change       -0.9125546E-05 Eh
 * total energy  :  -208.5251841 Eh     change       -0.4220514E-05 Eh
   *** GEOMETRY OPTIMIZATION CONVERGED AFTER 46 ITERATIONS ***

 final structure:
================
122
 xtb: 6.5.1 (b24c23e)
Ni          12.64939172672610       -0.04082912879310       -0.00977600016680
C            9.26114415169758       -0.05670615558067       -0.15277199112716
C            9.91027572196928       -1.26792904055265       -0.02967686438930
C            9.23270537801015       -2.52350345852696        0.07740448663134
C           10.18894865825862       -3.48208082603442        0.07555831732265
C           11.45002436809919       -2.81165726405637       -0.04794704858979
N           11.27006698380472       -1.45058805072761       -0.06765715624919
C           12.66747437369152       -3.46474385638729       -0.19423579358725
C           12.68305952109447       -4.94405879838016       -0.28584829979565
C           12.05007537390104       -5.59500483665425       -1.27332788093680
C           12.04511492053333       -7.09810512307206       -1.37641008639657
N           13.10533277195473       -7.68745811007477       -0.55411131133904
C           13.57860510410855       -7.02510990202246        0.54888234693853
C           13.42977147922583       -5.69849693795466        0.71101233750066
C           13.87537756756770       -2.78256201799697       -0.26638739917990
C           15.13809580048258       -3.42319887522475       -0.47490981322039
C           16.08569324648629       -2.45815698920241       -0.39550666866246
N           14.04653107992858       -1.42611685517456       -0.10250589582252
C           15.39999151415538       -1.23070003612783       -0.14577707724940
C           16.05779140879766       -0.02259976505639        0.10232562459525
C           15.37256908190821        1.17708999663171        0.31606656924940
C           16.02763472848232        2.40997568437592        0.61520968895278
C           15.06597160068040        3.36424207916641        0.64173194518694
C           13.82667086879271        2.71179132764026        0.34796463268174
N           14.02290533420635        1.35818685427548        0.18791619654349
C           12.62014116026366        3.38173142802736        0.19117347803782
C           12.61370293086741        4.86122941699686        0.28537391596045
C           11.90874627274727        5.50390203515325        1.22824193140057
C           11.87859624624943        7.00652713766870        1.33317992166620
N           12.96681540894758        7.61434368645693        0.56246390068982
C           13.52270313153237        6.95448953284906       -0.50226101972795
C           13.41231649463896        5.62399810149911       -0.66343777698445
C           11.42476980641690        2.71804693059474       -0.05436972992142
C           10.17233484296574        3.37798132170327       -0.27998094706671
C            9.22947181785529        2.41074440130507       -0.37289153497456
C            9.90746660205912        1.16061951132753       -0.21565709159470
N           11.25700684036153        1.35531119176695       -0.05896652511893
H            8.17835230069972       -0.06147136232351       -0.20071168726027
H            8.16225725646323       -2.63641998373992        0.14550548037500
H           10.06489838417863       -4.55003256479168        0.15289909597165
H           11.49620945632475       -5.06835524949994       -2.04175130373597
H           12.21248609591225       -7.40681170376751       -2.41705498903622
H           11.06017987805400       -7.49908257731404       -1.07110172985278
H           13.05436204281169       -8.69343298625584       -0.48334639999690
H           14.15468200915394       -7.63755278297113        1.23524269865754
H           13.85362476269995       -5.18342654845221        1.56129535006463
H           15.27153061736547       -4.47682809223233       -0.65827424378361
H           17.15532437162327       -2.55289058403357       -0.49143940585229
H           17.08789554608415        2.51528177110207        0.77977088685173
H           15.17595960902109        4.41804945639068        0.83912382584046
H           11.31047761227974        4.96989191692869        1.95729319893881
H           11.99219757622048        7.31471104598240        2.38140680455168
H           10.90344526939838        7.39422339459153        0.98319425435076
H           12.89759495004441        8.61823991918785        0.47934894509590
H           14.12709624705435        7.57486970028635       -1.15635027100621
H           13.89994042504447        5.11276466373483       -1.48118581038854
H           10.04550464820118        4.44548212301040       -0.35880337724714
H            8.16792158327576        2.51423214650514       -0.53302278258317
Ni          28.64071332925125        0.04118821977437       -0.00189949349636
C           32.02921069374062        0.08505913969750       -0.13360488210856
C           31.38031516842171        1.24204764241547        0.24576230380107
C           32.05825117576833        2.44491839610480        0.62074221631492
C           31.10240677384908        3.38223054284371        0.82332993934962
C           29.84123652490324        2.75484703896514        0.55701246413812
N           30.02067254888640        1.42958354578879        0.24594545186089
C           28.62439639436780        3.42521965086150        0.55248985450257
C           28.60962467537680        4.88968070364169        0.78072153345376
C           29.24433842866544        5.73718735087054       -0.04290351693047
C           29.25022853932817        7.22729254214237        0.17962207150271
N           28.18928093132290        7.62696779805149        1.10816997948655
C           27.71398779616821        6.74330908111917        2.04226897649082
C           27.86178361248452        5.41275056329194        1.91546053540980
C           27.41622819351990        2.77545299004531        0.33421366887122
C           26.15403000722330        3.44676030723071        0.26630638531348
C           25.20593460948776        2.48767874919901        0.13661749068809
N           27.24424827460426        1.41552033903115        0.20365495979393
C           25.89091310838090        1.23484973688176        0.11793428991773
C           25.23220247830876        0.00218495844784        0.10071256556916
C           25.91657850560824       -1.21595191811991        0.05225571543863
C           25.26082326851090       -2.48404905595614        0.07929360593249
C           26.22205196754985       -3.42222112065647       -0.09948768622908
C           27.46192846255431       -2.72264915364206       -0.24498096779994
N           27.26646876954358       -1.36617414212944       -0.11043055588897
C           28.66824095343779       -3.34440122938173       -0.54068227344681
C           28.67377323388475       -4.80968454223616       -0.76603611648710
C           29.37711242157003       -5.64002674585696        0.01810450179026
C           29.40631360913114       -7.13027461804944       -0.20117808189549
N           28.31917398157147       -7.55795103729019       -1.08600062831988
C           27.76517306872443       -6.68482221768272       -1.98528919125344
C           27.87627995713451       -5.35076742660822       -1.85736836218766
C           29.86440820501930       -2.64462011502897       -0.63636893272166
C           31.11687192953362       -3.24154712518986       -0.99686409819420
C           32.06025894190187       -2.27757024573228       -0.87860782207025
C           31.38257889410115       -1.08995576142537       -0.45729517137443
N           30.03273965376671       -1.31284720452534       -0.34783460699521
H           33.11207007251232        0.09940646984183       -0.17797965417085
H           33.12864150647997        2.53978597761030        0.71296943758021
H           31.22665778030865        4.40862064056864        1.12825264318988
H           29.79911542556176        5.38761303866016       -0.90581325664003
H           29.08441822923501        7.75267156486697       -0.77050148508418
H           30.23499734442934        7.55240123785145        0.56514809038678
H           28.24090760387388        8.59408306971129        1.39383412870183
H           27.13728563706395        7.19432317766208        2.84353900715929
H           27.43634249518797        4.72721241384986        2.63446744011073
H           26.02121453390912        4.51532074517531        0.31245164006907
H           24.13644909462682        2.60145418400569        0.06207193842048
H           24.20037815096948       -2.62164921144026        0.21651751891014
H           26.11157677908946       -4.49373784329801       -0.13343094701464
H           29.97452837655893       -5.27507062726247        0.84545092009979
H           29.29064472138655       -7.65569942647118        0.75654412670043
H           30.38188681682403       -7.43492703921760       -0.62444828804880
H           28.38799538731026       -8.52079923625032       -1.38214242637432
H           27.16158084661031       -7.15014913311237       -2.75804116906397
H           27.39009153719250       -4.67584352029124       -2.54725384302612
H           31.24351362660232       -4.26725672938161       -1.30304904385580
H           33.12197977244847       -2.34498795529295       -1.05595115015853
C           21.25892516738470       -0.01917908521032        0.15652749139355
C           20.03093112650079       -0.01429736786133        0.15849501680527
C           18.68568262869691       -0.01375949805762        0.15232762370718
C           17.46241995699097       -0.01454276417245        0.13490733812759
C           22.60418697631041       -0.01767356285850        0.14786246289394
C           23.82758035694988       -0.01056046865941        0.13125339575046

          :  Hamiltonian                  GFN1-xTB          :
         :: total energy            -208.525184076074 Eh    ::
         :: gradient norm              0.000939657538 Eh/a0 ::
         :: HOMO-LUMO gap              1.017072338879 eV    ::
         :: SCC energy              -211.769437616663 Eh    ::
         :: repulsion energy           3.350479254015 Eh    ::

    * Orbital Energies and Occupations

         #    Occupation            Energy/Eh            Energy/eV
      -------------------------------------------------------------
         1        2.0000           -0.7802601             -21.2320
       ...           ...                  ...                  ...
       181        2.0000           -0.3897499             -10.6056
       182        2.0000           -0.3887654             -10.5788
       183        2.0000           -0.3887653             -10.5788
       184        2.0000           -0.3876803             -10.5493
       185        2.0000           -0.3876744             -10.5492
       186        2.0000           -0.3876499             -10.5485
       187        2.0000           -0.3876471             -10.5484
       188        2.0000           -0.3868709             -10.5273
       189        2.0000           -0.3771796             -10.2636
       190        2.0000           -0.3703942             -10.0789
       191        2.0000           -0.3703835             -10.0786
       192        2.0000           -0.3696486             -10.0587
       193        2.0000           -0.3691275             -10.0445 (HOMO)
       194                         -0.3317508              -9.0274 (LUMO)
       195                         -0.3205714              -8.7232
       196                         -0.3205704              -8.7232
       197                         -0.3202127              -8.7134
       198                         -0.3194517              -8.6927
       199                         -0.3193917              -8.6911
       200                         -0.2924705              -7.9585
       201                         -0.2853074              -7.7636
       202                         -0.2778423              -7.5605
       203                         -0.2659954              -7.2381
       204                         -0.2652686              -7.2183
       ...                                ...                  ...
       414                          1.5864394              43.1692
      -------------------------------------------------------------
                  HL-Gap            0.0373767 Eh            1.0171 eV

Wiberg/Mayer (AO) data.
largest (>0.10) Wiberg bond orders for each atom

     #   Z sym  total        # sym  WBO       # sym  WBO       # sym  WBO
 ---------------------------------------------------------------------------
     1  28 Ni   3.018 --    37 N    0.664     7 N    0.664    18 N    0.663
                            25 N    0.663
     2   6 C    3.932 --    36 C    1.363     3 C    1.363    38 H    0.970
     3   6 C    3.926 --     2 C    1.363     7 N    1.213     4 C    1.177
     4   6 C    3.959 --     5 C    1.646     3 C    1.177    39 H    0.975
     5   6 C    3.963 --     4 C    1.646     6 C    1.179    40 H    0.973
     6   6 C    3.920 --     8 C    1.322     7 N    1.220     5 C    1.179
     7   7 N    3.400 --     6 C    1.220     3 C    1.213     1 Ni   0.664
     8   6 C    3.940 --    15 C    1.327     6 C    1.322     9 C    1.026
     9   6 C    3.988 --    10 C    1.767    14 C    1.098     8 C    1.026
    10   6 C    3.972 --     9 C    1.767    11 C    1.013    41 H    0.972
    11   6 C    3.961 --    10 C    1.013    42 H    0.976    43 H    0.966
                            12 N    0.949
    12   7 N    3.248 --    13 C    1.161    11 C    0.949    44 H    0.928
                            14 C    0.127
    13   6 C    3.958 --    14 C    1.692    12 N    1.161    45 H    0.971
    14   6 C    3.967 --    13 C    1.692     9 C    1.098    46 H    0.974
                            12 N    0.127
    15   6 C    3.914 --     8 C    1.327    18 N    1.205    16 C    1.186
    16   6 C    3.959 --    17 C    1.634    15 C    1.186    47 H    0.972
    17   6 C    3.961 --    16 C    1.634    19 C    1.192    48 H    0.973
    18   7 N    3.406 --    19 C    1.237    15 C    1.205     1 Ni   0.663
    19   6 C    3.904 --    20 C    1.263    18 N    1.237    17 C    1.192
    20   6 C    3.943 --    19 C    1.263    21 C    1.262   120 C    1.185
    21   6 C    3.904 --    20 C    1.262    25 N    1.238    22 C    1.193
    22   6 C    3.961 --    23 C    1.634    21 C    1.193    49 H    0.973
    23   6 C    3.959 --    22 C    1.634    24 C    1.186    50 H    0.972
    24   6 C    3.914 --    26 C    1.327    25 N    1.205    23 C    1.186
    25   7 N    3.406 --    21 C    1.238    24 C    1.205     1 Ni   0.663
    26   6 C    3.940 --    24 C    1.327    33 C    1.322    27 C    1.025
    27   6 C    3.988 --    28 C    1.768    32 C    1.098    26 C    1.025
    28   6 C    3.973 --    27 C    1.768    29 C    1.013    51 H    0.972
    29   6 C    3.961 --    28 C    1.013    52 H    0.976    53 H    0.966
                            30 N    0.949
    30   7 N    3.249 --    31 C    1.162    29 C    0.949    54 H    0.928
                            32 C    0.128
    31   6 C    3.958 --    32 C    1.691    30 N    1.162    55 H    0.971
    32   6 C    3.968 --    31 C    1.691    27 C    1.098    56 H    0.974
                            30 N    0.128
    33   6 C    3.920 --    26 C    1.322    37 N    1.220    34 C    1.179
    34   6 C    3.963 --    35 C    1.646    33 C    1.179    57 H    0.973
    35   6 C    3.960 --    34 C    1.646    36 C    1.177    58 H    0.975
    36   6 C    3.926 --     2 C    1.363    37 N    1.213    35 C    1.177
    37   7 N    3.400 --    33 C    1.220    36 C    1.213     1 Ni   0.664
    38   1 H    1.001 --     2 C    0.970
    39   1 H    0.998 --     4 C    0.975
    40   1 H    1.007 --     5 C    0.973
    41   1 H    1.003 --    10 C    0.972
    42   1 H    1.019 --    11 C    0.976
    43   1 H    1.008 --    11 C    0.966
    44   1 H    0.964 --    12 N    0.928
    45   1 H    1.001 --    13 C    0.971
    46   1 H    1.003 --    14 C    0.974
    47   1 H    1.005 --    16 C    0.972
    48   1 H    1.002 --    17 C    0.973
    49   1 H    1.002 --    22 C    0.973
    50   1 H    1.005 --    23 C    0.972
    51   1 H    1.003 --    28 C    0.972
    52   1 H    1.019 --    29 C    0.976
    53   1 H    1.008 --    29 C    0.966
    54   1 H    0.963 --    30 N    0.928
    55   1 H    1.001 --    31 C    0.971
    56   1 H    1.003 --    32 C    0.974
    57   1 H    1.007 --    34 C    0.973
    58   1 H    0.998 --    35 C    0.975
    59  28 Ni   3.018 --    95 N    0.664    65 N    0.664    83 N    0.663
                            76 N    0.663
    60   6 C    3.932 --    94 C    1.363    61 C    1.363    96 H    0.970
    61   6 C    3.926 --    60 C    1.363    65 N    1.213    62 C    1.177
    62   6 C    3.959 --    63 C    1.646    61 C    1.177    97 H    0.975
    63   6 C    3.963 --    62 C    1.646    64 C    1.179    98 H    0.973
    64   6 C    3.920 --    66 C    1.322    65 N    1.220    63 C    1.179
    65   7 N    3.400 --    64 C    1.220    61 C    1.213    59 Ni   0.664
    66   6 C    3.940 --    73 C    1.327    64 C    1.322    67 C    1.026
    67   6 C    3.988 --    68 C    1.767    72 C    1.098    66 C    1.026
    68   6 C    3.972 --    67 C    1.767    69 C    1.013    99 H    0.972
    69   6 C    3.961 --    68 C    1.013   100 H    0.976   101 H    0.966
                            70 N    0.949
    70   7 N    3.248 --    71 C    1.161    69 C    0.949   102 H    0.928
                            72 C    0.127
    71   6 C    3.958 --    72 C    1.692    70 N    1.161   103 H    0.971
    72   6 C    3.967 --    71 C    1.692    67 C    1.098   104 H    0.974
                            70 N    0.127
    73   6 C    3.914 --    66 C    1.327    76 N    1.205    74 C    1.186
    74   6 C    3.959 --    75 C    1.634    73 C    1.186   105 H    0.972
    75   6 C    3.961 --    74 C    1.634    77 C    1.192   106 H    0.973
    76   7 N    3.406 --    77 C    1.238    73 C    1.205    59 Ni   0.663
    77   6 C    3.904 --    78 C    1.262    76 N    1.238    75 C    1.192
    78   6 C    3.943 --    77 C    1.262    79 C    1.262   122 C    1.185
    79   6 C    3.904 --    78 C    1.262    83 N    1.238    80 C    1.193
    80   6 C    3.961 --    81 C    1.634    79 C    1.193   107 H    0.973
    81   6 C    3.959 --    80 C    1.634    82 C    1.186   108 H    0.972
    82   6 C    3.914 --    84 C    1.327    83 N    1.205    81 C    1.186
    83   7 N    3.406 --    79 C    1.238    82 C    1.205    59 Ni   0.663
    84   6 C    3.940 --    82 C    1.327    91 C    1.322    85 C    1.025
    85   6 C    3.988 --    86 C    1.768    90 C    1.098    84 C    1.025
    86   6 C    3.973 --    85 C    1.768    87 C    1.013   109 H    0.972
    87   6 C    3.961 --    86 C    1.013   110 H    0.976   111 H    0.967
                            88 N    0.949
    88   7 N    3.249 --    89 C    1.162    87 C    0.949   112 H    0.928
                            90 C    0.128
    89   6 C    3.958 --    90 C    1.691    88 N    1.162   113 H    0.971
    90   6 C    3.968 --    89 C    1.691    85 C    1.098   114 H    0.974
                            88 N    0.128
    91   6 C    3.920 --    84 C    1.322    95 N    1.220    92 C    1.179
    92   6 C    3.963 --    93 C    1.646    91 C    1.179   115 H    0.973
    93   6 C    3.960 --    92 C    1.646    94 C    1.177   116 H    0.975
    94   6 C    3.926 --    60 C    1.363    95 N    1.213    93 C    1.177
    95   7 N    3.400 --    91 C    1.220    94 C    1.213    59 Ni   0.664
    96   1 H    1.001 --    60 C    0.970
    97   1 H    0.998 --    62 C    0.975
    98   1 H    1.007 --    63 C    0.973
    99   1 H    1.003 --    68 C    0.972
   100   1 H    1.019 --    69 C    0.976
   101   1 H    1.008 --    69 C    0.966
   102   1 H    0.964 --    70 N    0.928
   103   1 H    1.001 --    71 C    0.971
   104   1 H    1.003 --    72 C    0.974
   105   1 H    1.005 --    74 C    0.972
   106   1 H    1.002 --    75 C    0.973
   107   1 H    1.002 --    80 C    0.973
   108   1 H    1.005 --    81 C    0.972
   109   1 H    1.003 --    86 C    0.972
   110   1 H    1.019 --    87 C    0.976
   111   1 H    1.008 --    87 C    0.967
   112   1 H    0.963 --    88 N    0.928
   113   1 H    1.001 --    89 C    0.971
   114   1 H    1.003 --    90 C    0.974
   115   1 H    1.007 --    92 C    0.973
   116   1 H    0.998 --    93 C    0.975
   117   6 C    3.928 --   118 C    2.375   121 C    1.331   120 C    0.191
   118   6 C    3.928 --   117 C    2.375   119 C    1.331   122 C    0.191
   119   6 C    3.937 --   120 C    2.456   118 C    1.331
   120   6 C    3.892 --   119 C    2.456    20 C    1.185   117 C    0.191
   121   6 C    3.937 --   122 C    2.456   117 C    1.331
   122   6 C    3.892 --   121 C    2.456    78 C    1.185   118 C    0.191
 ---------------------------------------------------------------------------

           -------------------------------------------------
          | TOTAL ENERGY             -208.525184076074 Eh   |
          | GRADIENT NORM               0.000939657538 Eh/α |
          | HOMO-LUMO GAP               1.017072338879 eV   |
           -------------------------------------------------

 * finished run on 2022/07/30 at 03:31:36.361
