   * xtb version 6.5.1 (b24c23e) compiled by 'conda@728c89f4b128' on 2022-07-12
          program call               : xtb Fe_m-CP_C8_2.xyz --gfn 1 --opt -T 48

   ID    Z sym.   atoms
    1   26 Fe     1, 63
    2    6 C      2-6, 8-12, 15-20, 22-27, 29-35, 38-42, 64-68, 70-74, 77-82,
                  84-89, 91-97, 100-104, 125-132
    3    7 N      7, 21, 28, 43, 69, 83, 90, 105
    4    8 O      13, 14, 36, 37, 75, 76, 98, 99
    5    1 H      44-62, 106-124
########################################################################
[WARNING] Please study the warnings concerning your input carefully
-1- prog_main_parseArguments: Unknown option '-T' provided
########################################################################

          :  Hamiltonian                  GFN1-xTB          :
 * total energy  :  -249.1153800 Eh     change       -0.3364278E-09 Eh
 * total energy  :  -249.8646593 Eh     change       -0.7492793E+00 Eh
 * total energy  :  -250.0035413 Eh     change       -0.1388820E+00 Eh
 * total energy  :  -250.0670992 Eh     change       -0.6355788E-01 Eh
 * total energy  :  -250.0960987 Eh     change       -0.2899956E-01 Eh
 * total energy  :  -250.1093983 Eh     change       -0.1329956E-01 Eh
 * total energy  :  -250.1177916 Eh     change       -0.8393318E-02 Eh
 * total energy  :  -250.1238091 Eh     change       -0.6017482E-02 Eh
 * total energy  :  -250.1281599 Eh     change       -0.4350782E-02 Eh
 * total energy  :  -250.1310921 Eh     change       -0.2932227E-02 Eh
 * total energy  :  -250.1419277 Eh     change       -0.1968110E-04 Eh
 * total energy  :  -250.1419388 Eh     change       -0.1108661E-04 Eh
 * total energy  :  -250.1419507 Eh     change       -0.1194097E-04 Eh
 * total energy  :  -250.1419617 Eh     change       -0.1097433E-04 Eh
 * total energy  :  -250.1419730 Eh     change       -0.1133989E-04 Eh
 * total energy  :  -250.1419809 Eh     change       -0.7843764E-05 Eh
 * total energy  :  -250.1419874 Eh     change       -0.6535768E-05 Eh
 * total energy  :  -250.1419941 Eh     change       -0.6745728E-05 Eh
 * total energy  :  -250.1419969 Eh     change       -0.2707728E-05 Eh
   *** GEOMETRY OPTIMIZATION CONVERGED AFTER 44 ITERATIONS ***

 final structure:
================
132
 xtb: 6.5.1 (b24c23e)
Fe          13.20227364399550       -0.01430801009825       -0.00791014053056
C            9.81493138143457       -0.00356423652527        0.17068722391703
C           10.46606582593581        1.21218031480747        0.19748418643765
C            9.78906866126535        2.47254953175431        0.25785418519802
C           10.74787749601862        3.42380338941736        0.34566203608543
C           12.00963730685197        2.74102412037231        0.35035751421327
N           11.82432609292590        1.39043802360096        0.22962011208008
C           13.23608055212996        3.37851339477412        0.49806504803027
C           13.24957720196778        4.84700749338853        0.70615451906773
C           12.66548121584780        5.40357296091963        1.84009042733643
C           12.68330075606999        6.78357235217056        2.03855318115982
C           12.05068960297706        7.31703908408582        3.27143423151659
O           12.13725242969626        8.65032115180398        3.38392374627244
O           11.50802647648206        6.63841600368081        4.10519334940152
C           13.28230478160073        7.61787917856759        1.09489459850215
C           13.86087865510789        7.06554821704698       -0.03707081089434
C           13.84920303274592        5.69139593108433       -0.23086436935624
C           14.44775161667075        2.70372574866517        0.46466993590072
C           15.71856332647154        3.33477550981081        0.66313057994576
C           16.66087493300373        2.37690965259994        0.49140994752989
N           14.61446338689364        1.36251585978536        0.21379671604255
C           15.96313087175859        1.16455015758081        0.19748216083613
C           16.61390262756399       -0.03534358868573       -0.11518071648217
C           15.92838125221436       -1.22676432429457       -0.38181670627201
C           16.58763951617607       -2.44274027469270       -0.74150667991170
C           15.62490864408893       -3.39056902849323       -0.84215591226396
C           14.38099314720096       -2.74996396659435       -0.53383522504381
N           14.58177577899179       -1.41366598859090       -0.28175519428337
C           13.16425745596943       -3.41361711127339       -0.46959894161957
C           13.14650347691064       -4.88150710416526       -0.68215370769642
C           13.81885826876120       -5.73111027566938        0.19882870149741
C           13.80177583360947       -7.10550149129522        0.00579392288932
C           13.11914142499258       -7.64707646004597       -1.07050389529153
C           12.44583136794740       -6.80759599435639       -1.95927230791748
C           11.72974338604562       -7.42678638485438       -3.10301961942443
O           11.10464306676304       -6.53863642390890       -3.88929061370546
O           11.69632677101333       -8.61048349124644       -3.32255160476044
C           12.45785962745029       -5.42817966832726       -1.76255421711780
C           11.96062511427433       -2.76589116015359       -0.21525500720663
C           10.69744222346787       -3.43729297658008       -0.10621323709428
C            9.75921865283100       -2.47835264555211        0.07351962617092
C           10.45076458081469       -1.22459983767451        0.08325684815500
N           11.80000693979458       -1.41533984265870       -0.06194573761436
H            8.73186424886505        0.00090257875728        0.21917754078565
H            8.71776888653762        2.59320174874702        0.23363182381000
H           10.62565492703156        4.49335329473307        0.39993822995152
H           12.20440577009240        4.76866882418136        2.58873370080506
H           11.70550049810953        8.91864155370461        4.21127131097192
H           13.29222614854785        8.69002813509816        1.24928355676067
H           14.32505700477405        7.70877686049620       -0.77606736873350
H           14.29585622167187        5.26575753006960       -1.12244824861863
H           15.86102535536559        4.37485919573641        0.90714581284646
H           17.73313829073597        2.46835228200352        0.55483642452945
H           17.65007587226348       -2.54216225356193       -0.89518287467534
H           15.73582348432264       -4.42919842710455       -1.10780146116462
H           14.34511490823081       -5.30872683973866        1.04747563647451
H           14.32361093248867       -7.75356413830681        0.70062903419389
H           13.09742328919447       -8.71810337122822       -1.23730695331942
H           10.66405329620923       -7.01987630924952       -4.60843397488131
H           11.94373890888646       -4.77730340304467       -2.45978441395997
H           10.55992464348027       -4.50510720116750       -0.15839329027711
H            8.69290677103029       -2.58954297104097        0.18969162742042
Fe          31.75017811838739        0.00246866161698        0.05233794611536
C           35.13783235095838       -0.05352982122012        0.19643782740173
C           34.49147011742284       -1.21052681173526       -0.18581345910158
C           35.17356601153734       -2.42183646777284       -0.52945378981098
C           34.21823428854703       -3.34901980519734       -0.77314175255062
C           32.95323940193943       -2.70477685967072       -0.56544996224056
N           33.13364815567740       -1.38654214664482       -0.24422712320021
C           31.72801766177378       -3.35622901061819       -0.64757379740688
C           31.71578116923597       -4.81216681448292       -0.92992301282054
C           32.29510725443337       -5.70938101414425       -0.03765310148728
C           32.27422421868711       -7.07870476653450       -0.29968289341632
C           32.90046991575606       -7.98653241225174        0.69454649166678
O           32.81465684040091       -9.28320554372363        0.36447490123810
O           33.43893782937742       -7.61810590950454        1.70673398930784
C           31.67677297697007       -7.55851851785330       -1.46508501062068
C           31.10295483786689       -6.66599285651047       -2.35688880553962
C           31.11776863014766       -5.30374779505938       -2.09244005253375
C           30.51441518453489       -2.70953237378737       -0.46332477930333
C           29.24541395527545       -3.37425050589467       -0.47680125133857
C           28.30119656289173       -2.41596511770387       -0.31785150338592
N           30.34457459996580       -1.35957781687332       -0.26896681111630
C           28.99592621095286       -1.17213137845318       -0.20342117350511
C           28.34203746373302        0.06260322569536       -0.10717464013992
C           29.02457441347865        1.27792640836073        0.02521910368277
C           28.36202852092315        2.54312831429316        0.08106804277779
C           29.32331263325889        3.47541366098364        0.28607672783001
C           30.56920316556623        2.77256062662194        0.36732497105168
N           30.37230623343174        1.42691369960491        0.16583899808490
C           31.78333764227122        3.38090027053999        0.65099385553177
C           31.79964972630498        4.83786104401937        0.92929186208242
C           31.12438087437259        5.35381420265696        2.03729549035309
C           31.14374451965547        6.71566386134723        2.30475958344952
C           31.83112181003628        7.57806911781262        1.46723971602572
C           32.50758574130056        7.07409222174566        0.35531008329374
C           33.23051787956881        8.03159176906429       -0.51929991459965
O           33.86157355916980        7.44769295847165       -1.54814681009051
O           33.26177938495020        9.22240601429671       -0.34218783579302
C           32.49359233889002        5.70626254525971        0.08990992431011
C           32.98655019449015        2.68574575053704        0.69638343591922
C           34.24451342466915        3.28402192967577        1.03944639892478
C           35.18419775101423        2.31785949075482        0.91354012769914
C           34.49853086967188        1.13009021078556        0.50218290073184
N           33.15206286665876        1.36108783253479        0.39551084729341
H           36.21999424212664       -0.07520049879621        0.25867750148471
H           36.24573348955196       -2.52886469542513       -0.57222968927436
H           34.34502257389489       -4.37791597615269       -1.06822723177503
H           32.75384701086774       -5.35456215594806        0.87876881799757
H           33.24253624082952       -9.80758983719340        1.06080200193442
H           31.66382910230435       -8.62250236643277       -1.66804895728155
H           30.63958210222552       -7.03214043668457       -3.26602685995393
H           30.67437280032124       -4.60966412312222       -2.79758233496096
H           29.10553843801685       -4.43753411667594       -0.58393538134005
H           27.22954009904806       -2.52664394753415       -0.27986430459694
H           27.29853277260383        2.68374001628054       -0.02603386509029
H           29.20972289181531        4.54367227436505        0.37295407245845
H           30.59438884173356        4.67814501680449        2.69921249989684
H           30.62037344640467        7.10176347521855        3.17200137090382
H           31.85541930191562        8.64455303996917        1.66065597281101
H           34.30501673135726        8.13681437210898       -2.06906399890318
H           33.01087264671688        5.31791427607676       -0.77938258181009
H           34.37734839372676        4.31027440057171        1.34119549588852
H           36.24758108533494        2.38376076509950        1.08012179705708
C           18.01338644221308       -0.04069137104201       -0.16090433473875
C           19.23948643049238       -0.02838832268359       -0.18901481130331
C           20.57837320443289       -0.01186585115940       -0.20974654544784
C           21.81075123274574        0.02043911608851       -0.21568764583099
C           23.14488568142198        0.04100780211840       -0.21083318493323
C           24.37738847668426        0.06482990784125       -0.19625401709432
C           25.71630025871778        0.07321629074186       -0.17366214295088
C           26.94238489365647        0.07788199511978       -0.14331365458046

          :  Hamiltonian                  GFN1-xTB          :
         :: total energy            -250.141996854540 Eh    ::
         :: gradient norm              0.000775227117 Eh/a0 ::
         :: HOMO-LUMO gap              0.087633330465 eV    ::
         :: SCC energy              -253.904496009033 Eh    ::
         :: repulsion energy           3.878938718120 Eh    ::

    * Orbital Energies and Occupations

         #    Occupation            Energy/Eh            Energy/eV
      -------------------------------------------------------------
         1        2.0000           -0.8349608             -22.7204
       ...           ...                  ...                  ...
       211        2.0000           -0.4344253             -11.8213
       212        2.0000           -0.4267485             -11.6124
       213        2.0000           -0.4183345             -11.3835
       214        2.0000           -0.4045425             -11.0082
       215        2.0000           -0.4043836             -11.0038
       216        2.0000           -0.4027573             -10.9596
       217        1.9918           -0.3970629             -10.8046
       218        1.9916           -0.3970449             -10.8041
       219        1.9444           -0.3952248             -10.7546
       220        1.9434           -0.3952073             -10.7541
       221        1.9385           -0.3951256             -10.7519
       222        1.9381           -0.3951194             -10.7517
       223        1.6884           -0.3934529             -10.7064 (HOMO)
       224        0.3090           -0.3902324             -10.6188 (LUMO)
       225        0.2547           -0.3900190             -10.6130
       226                         -0.3477663              -9.4632
       227                         -0.3362907              -9.1509
       228                         -0.3360169              -9.1435
       229                         -0.3358514              -9.1390
       230                         -0.3143701              -8.5544
       231                         -0.3137518              -8.5376
       232                         -0.3128029              -8.5118
       233                         -0.3127033              -8.5091
       234                         -0.3124852              -8.5032
       ...                                ...                  ...
       462                          1.5922943              43.3285
      -------------------------------------------------------------
                  HL-Gap            0.0032205 Eh            0.0876 eV

Wiberg/Mayer (AO) data.
largest (>0.10) Wiberg bond orders for each atom

     #   Z sym  total        # sym  WBO       # sym  WBO       # sym  WBO
 ---------------------------------------------------------------------------
     1  26 Fe   3.126 --    43 N    0.670     7 N    0.667    21 N    0.661
                            28 N    0.659
     2   6 C    3.922 --     3 C    1.363    42 C    1.363    44 H    0.970
     3   6 C    3.923 --     2 C    1.363     7 N    1.209     4 C    1.172
     4   6 C    3.959 --     5 C    1.651     3 C    1.172    45 H    0.975
     5   6 C    3.961 --     4 C    1.651     6 C    1.174    46 H    0.973
     6   6 C    3.920 --     8 C    1.316     7 N    1.224     5 C    1.174
     7   7 N    3.381 --     6 C    1.224     3 C    1.209     1 Fe   0.667
     8   6 C    3.924 --    18 C    1.334     6 C    1.316     9 C    1.024
     9   6 C    3.988 --    10 C    1.409    17 C    1.388     8 C    1.024
                            15 C    0.103
    10   6 C    3.984 --     9 C    1.409    11 C    1.396    47 H    0.968
                            16 C    0.104
    11   6 C    3.988 --    10 C    1.396    15 C    1.392    12 C    1.004
                            17 C    0.100
    12   6 C    3.836 --    14 O    1.693    13 O    1.090    11 C    1.004
    13   8 O    2.099 --    12 C    1.090    48 H    0.838    14 O    0.129
    14   8 O    1.962 --    12 C    1.693    13 O    0.129
    15   6 C    3.987 --    16 C    1.448    11 C    1.392    49 H    0.970
                             9 C    0.103
    16   6 C    3.994 --    15 C    1.448    17 C    1.441    50 H    0.972
                            10 C    0.104
    17   6 C    3.987 --    16 C    1.441     9 C    1.388    51 H    0.973
                            11 C    0.100
    18   6 C    3.917 --     8 C    1.334    21 N    1.200    19 C    1.179
    19   6 C    3.956 --    20 C    1.638    18 C    1.179    52 H    0.973
    20   6 C    3.960 --    19 C    1.638    22 C    1.188    53 H    0.973
    21   7 N    3.381 --    22 C    1.246    18 C    1.200     1 Fe   0.661
    22   6 C    3.902 --    23 C    1.249    21 N    1.246    20 C    1.188
    23   6 C    3.923 --    24 C    1.249    22 C    1.249   125 C    1.206
    24   6 C    3.902 --    23 C    1.249    28 N    1.246    25 C    1.189
    25   6 C    3.959 --    26 C    1.637    24 C    1.189    54 H    0.973
    26   6 C    3.956 --    25 C    1.637    27 C    1.179    55 H    0.973
    27   6 C    3.917 --    29 C    1.334    28 N    1.200    26 C    1.179
    28   7 N    3.379 --    24 C    1.246    27 C    1.200     1 Fe   0.659
    29   6 C    3.924 --    27 C    1.334    39 C    1.315    30 C    1.025
    30   6 C    3.988 --    38 C    1.406    31 C    1.389    29 C    1.025
                            33 C    0.103
    31   6 C    3.987 --    32 C    1.439    30 C    1.389    56 H    0.973
                            34 C    0.100
    32   6 C    3.994 --    33 C    1.451    31 C    1.439    57 H    0.972
                            38 C    0.104
    33   6 C    3.986 --    32 C    1.451    34 C    1.388    58 H    0.969
                            30 C    0.103
    34   6 C    3.988 --    38 C    1.399    33 C    1.388    35 C    1.005
                            31 C    0.100
    35   6 C    3.836 --    37 O    1.693    36 O    1.090    34 C    1.005
    36   8 O    2.099 --    35 C    1.090    59 H    0.838    37 O    0.129
    37   8 O    1.961 --    35 C    1.693    36 O    0.129
    38   6 C    3.985 --    30 C    1.406    34 C    1.399    60 H    0.969
                            32 C    0.104
    39   6 C    3.921 --    29 C    1.315    43 N    1.224    40 C    1.174
    40   6 C    3.961 --    41 C    1.650    39 C    1.174    61 H    0.973
    41   6 C    3.959 --    40 C    1.650    42 C    1.172    62 H    0.975
    42   6 C    3.923 --     2 C    1.363    43 N    1.209    41 C    1.172
    43   7 N    3.382 --    39 C    1.224    42 C    1.209     1 Fe   0.670
    44   1 H    1.000 --     2 C    0.970
    45   1 H    0.997 --     4 C    0.975
    46   1 H    1.003 --     5 C    0.973
    47   1 H    1.006 --    10 C    0.968
    48   1 H    0.872 --    13 O    0.838
    49   1 H    1.005 --    15 C    0.970
    50   1 H    1.001 --    16 C    0.972
    51   1 H    1.004 --    17 C    0.973
    52   1 H    1.004 --    19 C    0.973
    53   1 H    1.001 --    20 C    0.973
    54   1 H    1.001 --    25 C    0.973
    55   1 H    1.004 --    26 C    0.973
    56   1 H    1.004 --    31 C    0.973
    57   1 H    1.001 --    32 C    0.972
    58   1 H    1.005 --    33 C    0.969
    59   1 H    0.873 --    36 O    0.838
    60   1 H    1.007 --    38 C    0.969
    61   1 H    1.004 --    40 C    0.973
    62   1 H    0.997 --    41 C    0.975
    63  26 Fe   3.146 --    69 N    0.672   105 N    0.667    90 N    0.663
                            83 N    0.660
    64   6 C    3.924 --    65 C    1.364   104 C    1.362   106 H    0.970
    65   6 C    3.923 --    64 C    1.364    69 N    1.209    66 C    1.172
    66   6 C    3.959 --    67 C    1.651    65 C    1.172   107 H    0.975
    67   6 C    3.961 --    66 C    1.651    68 C    1.173   108 H    0.973
    68   6 C    3.921 --    70 C    1.316    69 N    1.224    67 C    1.173
    69   7 N    3.383 --    68 C    1.224    65 C    1.209    63 Fe   0.672
    70   6 C    3.926 --    80 C    1.333    68 C    1.316    71 C    1.025
    71   6 C    3.988 --    72 C    1.409    79 C    1.388    70 C    1.025
                            77 C    0.103
    72   6 C    3.984 --    71 C    1.409    73 C    1.396   109 H    0.968
                            78 C    0.104
    73   6 C    3.988 --    72 C    1.396    77 C    1.392    74 C    1.004
                            79 C    0.100
    74   6 C    3.836 --    76 O    1.693    75 O    1.090    73 C    1.004
    75   8 O    2.099 --    74 C    1.090   110 H    0.838    76 O    0.129
    76   8 O    1.962 --    74 C    1.693    75 O    0.129
    77   6 C    3.987 --    78 C    1.448    73 C    1.392   111 H    0.970
                            71 C    0.103
    78   6 C    3.994 --    77 C    1.448    79 C    1.441   112 H    0.972
                            72 C    0.104
    79   6 C    3.987 --    78 C    1.441    71 C    1.388   113 H    0.973
                            73 C    0.100
    80   6 C    3.917 --    70 C    1.333    83 N    1.201    81 C    1.179
    81   6 C    3.956 --    82 C    1.638    80 C    1.179   114 H    0.973
    82   6 C    3.959 --    81 C    1.638    84 C    1.188   115 H    0.973
    83   7 N    3.380 --    84 C    1.245    80 C    1.201    63 Fe   0.660
    84   6 C    3.902 --    85 C    1.249    83 N    1.245    82 C    1.188
    85   6 C    3.925 --    86 C    1.250    84 C    1.249   132 C    1.206
    86   6 C    3.902 --    85 C    1.250    90 N    1.246    87 C    1.188
    87   6 C    3.960 --    88 C    1.638    86 C    1.188   116 H    0.973
    88   6 C    3.956 --    87 C    1.638    89 C    1.179   117 H    0.973
    89   6 C    3.917 --    91 C    1.334    90 N    1.200    88 C    1.179
    90   7 N    3.382 --    86 C    1.246    89 C    1.200    63 Fe   0.663
    91   6 C    3.926 --    89 C    1.334   101 C    1.315    92 C    1.024
    92   6 C    3.988 --   100 C    1.407    93 C    1.390    91 C    1.024
                            95 C    0.103
    93   6 C    3.987 --    94 C    1.439    92 C    1.390   118 H    0.973
                            96 C    0.100
    94   6 C    3.994 --    95 C    1.451    93 C    1.439   119 H    0.972
                           100 C    0.104
    95   6 C    3.986 --    94 C    1.451    96 C    1.388   120 H    0.969
                            92 C    0.103
    96   6 C    3.988 --   100 C    1.400    95 C    1.388    97 C    1.004
                            93 C    0.100
    97   6 C    3.836 --    99 O    1.693    98 O    1.090    96 C    1.004
    98   8 O    2.099 --    97 C    1.090   121 H    0.838    99 O    0.129
    99   8 O    1.961 --    97 C    1.693    98 O    0.129
   100   6 C    3.985 --    92 C    1.407    96 C    1.400   122 H    0.969
                            94 C    0.104
   101   6 C    3.921 --    91 C    1.315   105 N    1.225   102 C    1.174
   102   6 C    3.961 --   103 C    1.650   101 C    1.174   123 H    0.973
   103   6 C    3.959 --   102 C    1.650   104 C    1.173   124 H    0.975
   104   6 C    3.923 --    64 C    1.362   105 N    1.209   103 C    1.173
   105   7 N    3.381 --   101 C    1.225   104 C    1.209    63 Fe   0.667
   106   1 H    1.000 --    64 C    0.970
   107   1 H    0.997 --    66 C    0.975
   108   1 H    1.003 --    67 C    0.973
   109   1 H    1.007 --    72 C    0.968
   110   1 H    0.872 --    75 O    0.838
   111   1 H    1.005 --    77 C    0.970
   112   1 H    1.001 --    78 C    0.972
   113   1 H    1.004 --    79 C    0.973
   114   1 H    1.004 --    81 C    0.973
   115   1 H    1.001 --    82 C    0.973
   116   1 H    1.001 --    87 C    0.973
   117   1 H    1.004 --    88 C    0.973
   118   1 H    1.004 --    93 C    0.973
   119   1 H    1.001 --    94 C    0.972
   120   1 H    1.005 --    95 C    0.969
   121   1 H    0.873 --    98 O    0.838
   122   1 H    1.007 --   100 C    0.969
   123   1 H    1.004 --   102 C    0.973
   124   1 H    0.997 --   103 C    0.975
   125   6 C    3.864 --   126 C    2.411    23 C    1.206   128 C    0.182
   126   6 C    3.923 --   125 C    2.411   127 C    1.363
   127   6 C    3.880 --   128 C    2.305   126 C    1.363   130 C    0.178
   128   6 C    3.914 --   127 C    2.305   129 C    1.389   125 C    0.182
   129   6 C    3.914 --   130 C    2.305   128 C    1.389   132 C    0.182
   130   6 C    3.880 --   129 C    2.305   131 C    1.363   127 C    0.178
   131   6 C    3.923 --   132 C    2.411   130 C    1.363
   132   6 C    3.865 --   131 C    2.411    85 C    1.206   129 C    0.182
 ---------------------------------------------------------------------------

           -------------------------------------------------
          | TOTAL ENERGY             -250.141996854540 Eh   |
          | GRADIENT NORM               0.000775227117 Eh/α |
          | HOMO-LUMO GAP               0.087633330465 eV   |
           -------------------------------------------------

 * finished run on 2022/07/29 at 18:02:31.651
