   * xtb version 6.5.1 (b24c23e) compiled by 'conda@728c89f4b128' on 2022-07-12
          program call               : xtb Ni_Ph3Me_C8_2.xyz --gfn 1 --opt -T 48

   ID    Z sym.   atoms
    1   28 Ni     1, 75
    2    6 C      2-6, 8-20, 22-27, 29-42, 76-80, 82-94, 96-101, 103-116,
                  149-156
    3    7 N      7, 21, 28, 43, 81, 95, 102, 117
    4    1 H      44-74, 118-148
########################################################################
[WARNING] Please study the warnings concerning your input carefully
-1- prog_main_parseArguments: Unknown option '-T' provided
########################################################################

          :  Hamiltonian                  GFN1-xTB          :
 * total energy  :  -244.1667674 Eh     change       -0.1447063E-08 Eh
 * total energy  :  -244.5939088 Eh     change       -0.4271414E+00 Eh
 * total energy  :  -244.6853446 Eh     change       -0.9143583E-01 Eh
 * total energy  :  -244.7209993 Eh     change       -0.3565462E-01 Eh
 * total energy  :  -244.7334267 Eh     change       -0.1242747E-01 Eh
 * total energy  :  -244.7409183 Eh     change       -0.7491548E-02 Eh
 * total energy  :  -244.7458318 Eh     change       -0.4913539E-02 Eh
 * total energy  :  -244.7488207 Eh     change       -0.2988901E-02 Eh
 * total energy  :  -244.7503102 Eh     change       -0.1489449E-02 Eh
 * total energy  :  -244.7518715 Eh     change       -0.1561360E-02 Eh
 * total energy  :  -244.7564730 Eh     change       -0.1488042E-04 Eh
 * total energy  :  -244.7564856 Eh     change       -0.1257653E-04 Eh
 * total energy  :  -244.7564976 Eh     change       -0.1202626E-04 Eh
 * total energy  :  -244.7565093 Eh     change       -0.1165948E-04 Eh
 * total energy  :  -244.7565205 Eh     change       -0.1119301E-04 Eh
 * total energy  :  -244.7565335 Eh     change       -0.1306538E-04 Eh
 * total energy  :  -244.7565470 Eh     change       -0.1349080E-04 Eh
 * total energy  :  -244.7565580 Eh     change       -0.1097425E-04 Eh
 * total energy  :  -244.7565601 Eh     change       -0.2090381E-05 Eh
   *** GEOMETRY OPTIMIZATION CONVERGED AFTER 44 ITERATIONS ***

 final structure:
================
156
 xtb: 6.5.1 (b24c23e)
Ni          13.22176055625099        0.03540532588241        0.01229402202585
C            9.82026816596985        0.11537560333989       -0.04279798626207
C           10.48611709131785        1.19793081083090        0.49325429004037
C            9.82167278647225        2.34620735883717        1.03129905731096
C           10.78993455917934        3.21084172221472        1.41489713878784
C           12.04451314402700        2.58919022591247        1.10833268227709
N           11.84903435025803        1.34777952121962        0.55671023603454
C           13.27147638357845        3.20037733536692        1.31630467563692
C           13.29312384508847        4.58083833226321        1.87764130874969
C           13.18316063109216        5.68101706808988        1.02229459761347
C           13.04309332918884        5.46867317694656       -0.46157502880334
C           13.20266920999271        6.96465713056117        1.55495615495173
C           13.32862518321253        7.16797688770775        2.92528130801580
C           13.36868634957977        8.56292705837571        3.48836997491859
C           13.43819611608392        6.06556233548291        3.76669915578402
C           13.42153712474938        4.77286282549302        3.25625054336172
C           13.53896863724455        3.58471393631897        4.17332417772777
C           14.47832328777656        2.58765506207934        1.01945597766945
C           15.74895828660962        3.21496363791707        1.22001940751988
C           16.69126556774669        2.30758876129137        0.86819077529471
N           14.64027845967741        1.30925780825914        0.53421057165685
C           15.99376387849708        1.13122316048548        0.45422147445922
C           16.64377557324981       -0.04270579143451        0.06161358567626
C           15.95176046756192       -1.18658545283394       -0.34676196743811
C           16.60638716427899       -2.39564372689304       -0.73585199782844
C           15.63414867771254       -3.26061258293601       -1.11227262914605
C           14.38822536178398       -2.57433041011499       -0.95321112289210
N           14.59435817791326       -1.30282173757814       -0.46609078080722
C           13.16438090036307       -3.12984373213234       -1.29041482291487
C           13.13690450050312       -4.50915515870828       -1.85443828644373
C           13.29908659000740       -4.70419672734813       -3.22971760917547
C           13.50596227456527       -3.52114636463024       -4.13751513701485
C           13.26662768920716       -5.99419793917903       -3.74411556481424
C           13.07588464361873       -7.09256751094390       -2.91022136177614
C           13.03444849949563       -8.48010146538730       -3.49141853160384
C           12.91553498684869       -6.88644816945410       -1.54498335617473
C           12.94379123287827       -5.60392605865863       -1.00795474198779
C           12.76500398224223       -5.38869946291612        0.47132372580023
C           11.96124820342408       -2.46087278186612       -1.12415046732716
C           10.68952388347680       -3.02282051907206       -1.47270267303892
C            9.75084970025125       -2.11371887788788       -1.11943202623473
C           10.45056905978625       -0.99784253254317       -0.55853281209670
N           11.80625922947147       -1.21168923214108       -0.57784271282745
H            8.73693382409383        0.14126510353631       -0.05986851561203
H            8.75088232754223        2.45747221566902        1.09526533834290
H           10.68450037194070        4.18520194240762        1.86421120007394
H           12.11086686131566        4.94472732783728       -0.68192340389282
H           13.86563017400359        4.85768884419680       -0.83755093150492
H           13.04139096713300        6.42009667302934       -0.99255445233060
H           13.11694935698442        7.81872021631521        0.89109998713088
H           12.95210019966715        8.58742939268099        4.49563089992780
H           14.40234944348467        8.91295050620820        3.54013015735201
H           12.80828018810143        9.25313114919829        2.85734803603840
H           13.53626644640127        6.21499795341502        4.83699822592168
H           14.44200870455308        3.01635812360042        3.94230848580005
H           13.58302171310223        3.90011943319583        5.21530893561526
H           12.68384632020599        2.91884559650403        4.04379016468144
H           15.88520692407845        4.22018313843574        1.58472055854942
H           17.76439415113419        2.40906666505597        0.88487230557001
H           17.67389869576564       -2.54543494654309       -0.71897744834599
H           15.73418409288595       -4.27316657863200       -1.46826588093925
H           12.68994451475415       -2.80567650215904       -4.02112923758865
H           13.55206595565831       -3.83401137079725       -5.18019372380812
H           14.43673183611690       -3.00921880915483       -3.88539497154443
H           13.39155640499977       -6.14722377263694       -4.81113670227626
H           13.90198846550259       -8.65291632781477       -4.13024055446067
H           13.02338050011023       -9.23380503336349       -2.70422713189636
H           12.13759144882804       -8.60471367654965       -4.10187717790503
H           12.76637185277466       -7.73594979193393       -0.88655520106764
H           11.84897607478233       -4.82610205337384        0.66259115654501
H           13.59975221032622       -4.81390599624792        0.87619343813567
H           12.70518574215093       -6.34020422939296        0.99877861773003
H           10.55281072043510       -3.99104059551120       -1.92684519978266
H            8.67867183848895       -2.17491030366422       -1.21836985145958
Ni          31.80786153585674       -0.03510945289063       -0.02091141856280
C           35.20922206554769       -0.05255138734871       -0.12057201199143
C           34.54366099404542       -1.20590660732967       -0.48037318826755
C           35.20829724083119       -2.40729110512380       -0.88588308485183
C           34.24012280118107       -3.29837623119075       -1.20349052115745
C           32.98544246822789       -2.63794937917114       -0.99372111498523
N           33.18075906663139       -1.35915667230670       -0.53536025915215
C           31.75863792746066       -3.22378716018777       -1.26570249316234
C           31.73754733000681       -4.60902018833807       -1.81510587169766
C           31.84693888209999       -4.81157032496500       -3.19392286414899
C           31.98683445965546       -3.63161524051754       -4.11842938135522
C           31.82776728569328       -6.10694989198577       -3.69734212163277
C           31.70285823536416       -7.20184030872997       -2.84844138100779
C           31.66316650209779       -8.59860481745376       -3.40703751808657
C           31.59429486666922       -6.98804191386780       -1.47811132336749
C           31.61063188579976       -5.70146795529180       -0.95237975364353
C           31.49473203307928       -5.47788747363443        0.53189833118363
C           30.55168783514483       -2.57580353347151       -1.05757371395671
C           29.28115624349324       -3.16703676558178       -1.34804787137457
C           28.33885836320385       -2.26752713187872       -0.97655172401685
N           30.38965691699675       -1.31647660459845       -0.52473987430443
C           29.03629798791352       -1.13169074599527       -0.46151638116789
C           28.38580769671128       -0.01221139728569        0.06639748743280
C           29.07744713480072        1.09515143872042        0.56562210232115
C           28.42284970977264        2.23635364475309        1.12312822966232
C           29.39524520290607        3.11988093281111        1.45322133528237
C           30.64126174357250        2.51451785518582        1.09316897250469
N           30.43507671850008        1.26078539365661        0.56205486233686
C           31.86504654582030        3.14875926205772        1.23564105758476
C           31.89216468714175        4.53401931419571        1.78497913282790
C           31.72779299812427        5.62754142923451        0.92882967660148
C           31.51815473360936        5.40359369676555       -0.54507884898898
C           31.76036858721795        6.91410837044049        1.45174027732035
C           31.95330952033044        7.12839463042235        2.81373116720745
C           31.99508928958217        8.53159918755091        3.35597495934355
C           32.11533549082491        6.03385534808373        3.65504366393635
C           32.08691926229893        4.73698937381934        3.15363544270578
C           32.26657031755428        3.55687166011808        4.07102762573352
C           33.06820252763713        2.55202047653374        0.89063545170785
C           34.33974164359672        3.19952070270382        1.02671184295084
C           35.27827631987177        2.30053807472894        0.64810118029340
C           34.57873825869326        1.10699047791189        0.27998735952638
N           33.22321234531299        1.27335338323589        0.41738505612626
H           36.29247823321712       -0.05833532639195       -0.15366134556639
H           36.27911708292791       -2.53111029393498       -0.91864712192194
H           34.34553105644193       -4.31332246342455       -1.55154902920408
H           32.91976974315940       -3.10174423370874       -3.91590995641993
H           31.16512006893021       -2.92960248952448       -3.96623984003041
H           31.98722997978172       -3.95106892115401       -5.16010637470457
H           31.91302527190147       -6.26433662938320       -4.76759334992258
H           32.07843939158852       -9.31334520038670       -2.69612173301502
H           30.62972436298511       -8.88677260708951       -3.61346082106685
H           32.22497023857011       -8.66051006864337       -4.33933642983669
H           31.49737932460692       -7.83647872954657       -0.80859554084034
H           30.59063421711157       -4.90980593762054        0.75944565002531
H           31.45381970002296       -6.42644314113920        1.06643131129948
H           32.34899806816839       -4.90525215038559        0.89756849059514
H           29.14486021049772       -4.14545920087587       -1.77948701519854
H           27.26577314399211       -2.35173008638234       -1.03629109909691
H           27.35524890739547        2.33327923632749        1.23777860282244
H           29.29529421485503        4.09624454941413        1.89902999486888
H           32.33428403321804        4.80863426660251       -0.95893019526535
H           31.46916851694473        6.35173870087234       -1.07968544432843
H           30.58794954898258        4.85822407130570       -0.71610102075579
H           31.63373189800494        7.76369776896801        0.78863052202527
H           31.12781530626620        9.09911986702936        3.01490102535427
H           32.00601005696734        8.52971381766201        4.44581002626483
H           32.89219149140794        9.04408922193083        3.00225882929151
H           32.26588008645161        6.19021874621997        4.71820965954808
H           33.18214210889727        3.01834916164836        3.81821959252406
H           31.43145161314304        2.86217041344338        3.96564357187034
H           32.32755078598969        3.87756888671523        5.11054228624155
H           34.47650364206067        4.21200050452010        1.37105004272129
H           36.35029419747985        2.41408751163767        0.61669862527239
C           18.04803722377294       -0.06916998327289        0.07781609357896
C           19.27221222180718       -0.07129836537719        0.09403869277997
C           20.61529971515431       -0.07124843137733        0.10364203091874
C           21.84567549496544       -0.05989213863388        0.11464366456377
C           23.18389694023730       -0.04021328386252        0.11881590690024
C           24.41430320724657       -0.02424735202481        0.11612232022179
C           25.75736783807280       -0.01446417333311        0.10831001878586
C           26.98150112657549       -0.00517802404457        0.09420551723134

          :  Hamiltonian                  GFN1-xTB          :
         :: total energy            -244.756560092888 Eh    ::
         :: gradient norm              0.000799938703 Eh/a0 ::
         :: HOMO-LUMO gap              1.197418159327 eV    ::
         :: SCC energy              -248.754211315276 Eh    ::
         :: repulsion energy           4.136765778897 Eh    ::

    * Orbital Energies and Occupations

         #    Occupation            Energy/Eh            Energy/eV
      -------------------------------------------------------------
         1        2.0000           -0.7798574             -21.2210
       ...           ...                  ...                  ...
       217        2.0000           -0.4067231             -11.0675
       218        2.0000           -0.3976318             -10.8201
       219        2.0000           -0.3976310             -10.8201
       220        2.0000           -0.3972021             -10.8084
       221        2.0000           -0.3972014             -10.8084
       222        2.0000           -0.3964842             -10.7889
       223        2.0000           -0.3964834             -10.7889
       224        2.0000           -0.3954217             -10.7600
       225        2.0000           -0.3954211             -10.7600
       226        2.0000           -0.3953890             -10.7591
       227        2.0000           -0.3953868             -10.7590
       228        2.0000           -0.3923693             -10.6769
       229        2.0000           -0.3830563             -10.4235 (HOMO)
       230                         -0.3390520              -9.2261 (LUMO)
       231                         -0.3290809              -8.9547
       232                         -0.3280867              -8.9277
       233                         -0.3280767              -8.9274
       234                         -0.3267293              -8.8908
       235                         -0.3267292              -8.8908
       236                         -0.3007197              -8.1830
       237                         -0.2994332              -8.1480
       238                         -0.2907205              -7.9109
       239                         -0.2727959              -7.4232
       240                         -0.2564274              -6.9777
       ...                                ...                  ...
       510                          1.6068143              43.7236
      -------------------------------------------------------------
                  HL-Gap            0.0440043 Eh            1.1974 eV

Wiberg/Mayer (AO) data.
largest (>0.10) Wiberg bond orders for each atom

     #   Z sym  total        # sym  WBO       # sym  WBO       # sym  WBO
 ---------------------------------------------------------------------------
     1  28 Ni   3.013 --     7 N    0.665    43 N    0.665    28 N    0.662
                            21 N    0.662
     2   6 C    3.933 --    42 C    1.363     3 C    1.363    44 H    0.970
     3   6 C    3.925 --     2 C    1.363     7 N    1.215     4 C    1.175
     4   6 C    3.959 --     5 C    1.649     3 C    1.175    45 H    0.975
     5   6 C    3.963 --     4 C    1.649     6 C    1.176    46 H    0.974
     6   6 C    3.919 --     8 C    1.327     7 N    1.218     5 C    1.176
     7   7 N    3.402 --     6 C    1.218     3 C    1.215     1 Ni   0.665
     8   6 C    3.939 --    18 C    1.335     6 C    1.327     9 C    1.004
     9   6 C    3.987 --    10 C    1.380    16 C    1.380     8 C    1.004
                            13 C    0.104
    10   6 C    3.985 --    12 C    1.421     9 C    1.380    11 C    1.020
                            15 C    0.103
    11   6 C    3.996 --    10 C    1.020    49 H    0.986    48 H    0.975
                            47 H    0.973
    12   6 C    3.993 --    10 C    1.421    13 C    1.414    50 H    0.970
                            16 C    0.103
    13   6 C    3.988 --    12 C    1.414    15 C    1.414    14 C    1.020
                             9 C    0.104
    14   6 C    3.996 --    13 C    1.020    53 H    0.983    51 H    0.983
                            52 H    0.971
    15   6 C    3.993 --    16 C    1.421    13 C    1.414    54 H    0.970
                            10 C    0.103
    16   6 C    3.985 --    15 C    1.421     9 C    1.380    17 C    1.020
                            12 C    0.103
    17   6 C    3.996 --    16 C    1.020    56 H    0.986    57 H    0.975
                            55 H    0.973
    18   6 C    3.915 --     8 C    1.335    21 N    1.202    19 C    1.182
    19   6 C    3.959 --    20 C    1.636    18 C    1.182    58 H    0.974
    20   6 C    3.961 --    19 C    1.636    22 C    1.191    59 H    0.973
    21   7 N    3.407 --    22 C    1.241    18 C    1.202     1 Ni   0.662
    22   6 C    3.904 --    23 C    1.261    21 N    1.241    20 C    1.191
    23   6 C    3.944 --    24 C    1.262    22 C    1.261   149 C    1.187
    24   6 C    3.904 --    23 C    1.262    28 N    1.241    25 C    1.191
    25   6 C    3.961 --    26 C    1.637    24 C    1.191    60 H    0.973
    26   6 C    3.959 --    25 C    1.637    27 C    1.182    61 H    0.974
    27   6 C    3.915 --    29 C    1.335    28 N    1.202    26 C    1.182
    28   7 N    3.407 --    24 C    1.241    27 C    1.202     1 Ni   0.662
    29   6 C    3.939 --    27 C    1.335    39 C    1.327    30 C    1.004
    30   6 C    3.987 --    37 C    1.384    31 C    1.377    29 C    1.004
                            34 C    0.104
    31   6 C    3.985 --    33 C    1.425    30 C    1.377    32 C    1.020
                            36 C    0.102
    32   6 C    3.996 --    31 C    1.020    63 H    0.986    62 H    0.975
                            64 H    0.973
    33   6 C    3.993 --    31 C    1.425    34 C    1.409    65 H    0.971
                            37 C    0.103
    34   6 C    3.988 --    36 C    1.419    33 C    1.409    35 C    1.020
                            30 C    0.104
    35   6 C    3.996 --    34 C    1.020    67 H    0.986    66 H    0.978
                            68 H    0.974
    36   6 C    3.993 --    34 C    1.419    37 C    1.416    69 H    0.970
                            31 C    0.102
    37   6 C    3.985 --    36 C    1.416    30 C    1.384    38 C    1.020
                            33 C    0.103
    38   6 C    3.996 --    37 C    1.020    72 H    0.986    71 H    0.975
                            70 H    0.973
    39   6 C    3.919 --    29 C    1.327    43 N    1.219    40 C    1.176
    40   6 C    3.963 --    41 C    1.649    39 C    1.176    73 H    0.974
    41   6 C    3.959 --    40 C    1.649    42 C    1.175    74 H    0.975
    42   6 C    3.925 --     2 C    1.363    43 N    1.214    41 C    1.175
    43   7 N    3.402 --    39 C    1.219    42 C    1.214     1 Ni   0.665
    44   1 H    1.000 --     2 C    0.970
    45   1 H    0.998 --     4 C    0.975
    46   1 H    1.002 --     5 C    0.974
    47   1 H    1.008 --    11 C    0.973
    48   1 H    1.007 --    11 C    0.975
    49   1 H    1.004 --    11 C    0.986
    50   1 H    1.000 --    12 C    0.970
    51   1 H    1.004 --    14 C    0.983
    52   1 H    1.006 --    14 C    0.971
    53   1 H    1.004 --    14 C    0.983
    54   1 H    1.000 --    15 C    0.970
    55   1 H    1.008 --    17 C    0.973
    56   1 H    1.004 --    17 C    0.986
    57   1 H    1.007 --    17 C    0.975
    58   1 H    1.002 --    19 C    0.974
    59   1 H    1.002 --    20 C    0.973
    60   1 H    1.002 --    25 C    0.973
    61   1 H    1.002 --    26 C    0.974
    62   1 H    1.007 --    32 C    0.975
    63   1 H    1.004 --    32 C    0.986
    64   1 H    1.008 --    32 C    0.973
    65   1 H    0.999 --    33 C    0.971
    66   1 H    1.005 --    35 C    0.978
    67   1 H    1.004 --    35 C    0.986
    68   1 H    1.006 --    35 C    0.974
    69   1 H    1.000 --    36 C    0.970
    70   1 H    1.008 --    38 C    0.973
    71   1 H    1.007 --    38 C    0.975
    72   1 H    1.004 --    38 C    0.986
    73   1 H    1.002 --    40 C    0.974
    74   1 H    0.998 --    41 C    0.975
    75  28 Ni   3.013 --    81 N    0.665   117 N    0.665   102 N    0.662
                            95 N    0.662
    76   6 C    3.933 --   116 C    1.364    77 C    1.363   118 H    0.970
    77   6 C    3.925 --    76 C    1.363    81 N    1.215    78 C    1.175
    78   6 C    3.959 --    79 C    1.649    77 C    1.175   119 H    0.975
    79   6 C    3.963 --    78 C    1.649    80 C    1.176   120 H    0.974
    80   6 C    3.919 --    82 C    1.327    81 N    1.218    79 C    1.176
    81   7 N    3.403 --    80 C    1.218    77 C    1.215    75 Ni   0.665
    82   6 C    3.939 --    92 C    1.335    80 C    1.327    83 C    1.004
    83   6 C    3.987 --    90 C    1.380    84 C    1.380    82 C    1.004
                            87 C    0.104
    84   6 C    3.985 --    86 C    1.421    83 C    1.380    85 C    1.020
                            89 C    0.103
    85   6 C    3.996 --    84 C    1.020   123 H    0.986   122 H    0.975
                           121 H    0.973
    86   6 C    3.993 --    84 C    1.421    87 C    1.414   124 H    0.970
                            90 C    0.103
    87   6 C    3.988 --    86 C    1.414    89 C    1.414    88 C    1.020
                            83 C    0.104
    88   6 C    3.996 --    87 C    1.020   127 H    0.983   125 H    0.983
                           126 H    0.971
    89   6 C    3.993 --    90 C    1.421    87 C    1.414   128 H    0.970
                            84 C    0.103
    90   6 C    3.985 --    89 C    1.421    83 C    1.380    91 C    1.020
                            86 C    0.103
    91   6 C    3.996 --    90 C    1.020   130 H    0.986   131 H    0.975
                           129 H    0.973
    92   6 C    3.915 --    82 C    1.335    95 N    1.202    93 C    1.182
    93   6 C    3.959 --    94 C    1.636    92 C    1.182   132 H    0.974
    94   6 C    3.961 --    93 C    1.636    96 C    1.191   133 H    0.973
    95   7 N    3.407 --    96 C    1.242    92 C    1.202    75 Ni   0.662
    96   6 C    3.904 --    97 C    1.261    95 N    1.242    94 C    1.191
    97   6 C    3.944 --    98 C    1.262    96 C    1.261   156 C    1.187
    98   6 C    3.904 --    97 C    1.262   102 N    1.241    99 C    1.191
    99   6 C    3.961 --   100 C    1.636    98 C    1.191   134 H    0.973
   100   6 C    3.959 --    99 C    1.636   101 C    1.182   135 H    0.974
   101   6 C    3.915 --   103 C    1.335   102 N    1.202   100 C    1.182
   102   7 N    3.407 --    98 C    1.241   101 C    1.202    75 Ni   0.662
   103   6 C    3.939 --   101 C    1.335   113 C    1.327   104 C    1.004
   104   6 C    3.987 --   111 C    1.384   105 C    1.377   103 C    1.004
                           108 C    0.104
   105   6 C    3.985 --   107 C    1.425   104 C    1.377   106 C    1.020
                           110 C    0.102
   106   6 C    3.996 --   105 C    1.020   137 H    0.986   136 H    0.975
                           138 H    0.973
   107   6 C    3.993 --   105 C    1.425   108 C    1.409   139 H    0.971
                           111 C    0.103
   108   6 C    3.988 --   110 C    1.419   107 C    1.409   109 C    1.020
                           104 C    0.104
   109   6 C    3.996 --   108 C    1.020   141 H    0.986   140 H    0.978
                           142 H    0.974
   110   6 C    3.993 --   108 C    1.419   111 C    1.416   143 H    0.970
                           105 C    0.102
   111   6 C    3.985 --   110 C    1.416   104 C    1.384   112 C    1.020
                           107 C    0.103
   112   6 C    3.996 --   111 C    1.020   146 H    0.986   145 H    0.975
                           144 H    0.973
   113   6 C    3.919 --   103 C    1.327   117 N    1.219   114 C    1.176
   114   6 C    3.963 --   115 C    1.649   113 C    1.176   147 H    0.974
   115   6 C    3.960 --   114 C    1.649   116 C    1.175   148 H    0.975
   116   6 C    3.925 --    76 C    1.364   117 N    1.214   115 C    1.175
   117   7 N    3.402 --   113 C    1.219   116 C    1.214    75 Ni   0.665
   118   1 H    1.000 --    76 C    0.970
   119   1 H    0.998 --    78 C    0.975
   120   1 H    1.002 --    79 C    0.974
   121   1 H    1.008 --    85 C    0.973
   122   1 H    1.007 --    85 C    0.975
   123   1 H    1.004 --    85 C    0.986
   124   1 H    1.000 --    86 C    0.970
   125   1 H    1.004 --    88 C    0.983
   126   1 H    1.006 --    88 C    0.971
   127   1 H    1.004 --    88 C    0.983
   128   1 H    1.000 --    89 C    0.970
   129   1 H    1.008 --    91 C    0.973
   130   1 H    1.004 --    91 C    0.986
   131   1 H    1.007 --    91 C    0.975
   132   1 H    1.002 --    93 C    0.974
   133   1 H    1.002 --    94 C    0.973
   134   1 H    1.002 --    99 C    0.973
   135   1 H    1.002 --   100 C    0.974
   136   1 H    1.007 --   106 C    0.975
   137   1 H    1.004 --   106 C    0.986
   138   1 H    1.008 --   106 C    0.973
   139   1 H    0.999 --   107 C    0.971
   140   1 H    1.005 --   109 C    0.978
   141   1 H    1.004 --   109 C    0.986
   142   1 H    1.006 --   109 C    0.974
   143   1 H    1.000 --   110 C    0.970
   144   1 H    1.008 --   112 C    0.973
   145   1 H    1.007 --   112 C    0.975
   146   1 H    1.004 --   112 C    0.986
   147   1 H    1.002 --   114 C    0.974
   148   1 H    0.998 --   115 C    0.975
   149   6 C    3.878 --   150 C    2.444    23 C    1.187   152 C    0.187
   150   6 C    3.937 --   149 C    2.444   151 C    1.342
   151   6 C    3.894 --   152 C    2.340   150 C    1.342   154 C    0.183
   152   6 C    3.927 --   151 C    2.340   153 C    1.367   149 C    0.187
   153   6 C    3.927 --   154 C    2.340   152 C    1.367   156 C    0.187
   154   6 C    3.894 --   153 C    2.340   155 C    1.342   151 C    0.183
   155   6 C    3.937 --   156 C    2.444   154 C    1.342
   156   6 C    3.878 --   155 C    2.444    97 C    1.187   153 C    0.187
 ---------------------------------------------------------------------------

           -------------------------------------------------
          | TOTAL ENERGY             -244.756560092888 Eh   |
          | GRADIENT NORM               0.000799938703 Eh/α |
          | HOMO-LUMO GAP               1.197418159327 eV   |
           -------------------------------------------------

 * finished run on 2022/07/30 at 05:57:02.148
