   * xtb version 6.5.1 (b24c23e) compiled by 'conda@728c89f4b128' on 2022-07-12
          program call               : xtb Fe_Ph2Me_C8_2.xyz --gfn 1 --opt -T 48

   ID    Z sym.   atoms
    1   26 Fe     1, 69
    2    6 C      2-6, 8-11, 13-31, 34-41, 70-74, 76-79, 81-99, 102-109,
                  137-144
    3    7 N      7, 12, 32, 33, 75, 80, 100, 101
    4    1 H      42-68, 110-136
########################################################################
[WARNING] Please study the warnings concerning your input carefully
-1- prog_main_parseArguments: Unknown option '-T' provided
########################################################################

          :  Hamiltonian                  GFN1-xTB          :
 * total energy  :  -228.6527741 Eh     change       -0.1261807E-07 Eh
 * total energy  :  -229.4049716 Eh     change       -0.7521975E+00 Eh
 * total energy  :  -229.5286265 Eh     change       -0.1236549E+00 Eh
 * total energy  :  -229.5803531 Eh     change       -0.5172657E-01 Eh
 * total energy  :  -229.6016187 Eh     change       -0.2126566E-01 Eh
 * total energy  :  -229.6117800 Eh     change       -0.1016128E-01 Eh
 * total energy  :  -229.6190264 Eh     change       -0.7246420E-02 Eh
 * total energy  :  -229.6244795 Eh     change       -0.5453072E-02 Eh
 * total energy  :  -229.6282513 Eh     change       -0.3771806E-02 Eh
 * total energy  :  -229.6313426 Eh     change       -0.3091287E-02 Eh
 * total energy  :  -229.6410504 Eh     change       -0.4592630E-04 Eh
 * total energy  :  -229.6410816 Eh     change       -0.3120827E-04 Eh
 * total energy  :  -229.6411105 Eh     change       -0.2896951E-04 Eh
 * total energy  :  -229.6411275 Eh     change       -0.1699137E-04 Eh
 * total energy  :  -229.6411463 Eh     change       -0.1873648E-04 Eh
 * total energy  :  -229.6411680 Eh     change       -0.2172414E-04 Eh
 * total energy  :  -229.6411858 Eh     change       -0.1781505E-04 Eh
 * total energy  :  -229.6412004 Eh     change       -0.1456309E-04 Eh
 * total energy  :  -229.6412044 Eh     change       -0.4053406E-05 Eh
   *** GEOMETRY OPTIMIZATION CONVERGED AFTER 44 ITERATIONS ***

 final structure:
================
144
 xtb: 6.5.1 (b24c23e)
Fe          12.93398065935621        0.03936784417406       -0.06233424703385
C            9.58327062300850        0.25976973050745       -0.56614315301225
C           10.23496800942628        1.36664440051061       -0.06265980067414
C            9.56579554226127        2.57252963929151        0.32077425309255
C           10.52376584137422        3.42773811937227        0.74954320164758
C           11.77986258911079        2.75050190059545        0.60449164661687
N           11.58663377371330        1.48065934930260        0.13029802934595
C           13.01194442619179        3.33994349760601        0.86510650336909
C           14.21659865732193        2.66749682576165        0.71556827273505
C           15.49824700653057        3.28269542252211        0.89223057608921
C           16.42691238647129        2.32037394962680        0.67730133618772
N           14.36561616152739        1.34562175810188        0.36764462739406
C           15.71099455557924        1.12172361408599        0.37112495774706
C           16.34146751496027       -0.10812990959047        0.15065140424677
C           15.63670370716048       -1.28855288567084       -0.11085098885661
C           16.27181850101110       -2.56043379836101       -0.25930660514374
C           15.29019046278705       -3.45558081199285       -0.52368755199236
C           14.05847448593428       -2.72421999907959       -0.54356396895203
C           12.83898649035518       -3.28417995251442       -0.89395931693722
C           12.79229251862595       -4.73374125144816       -1.21158630952030
C           12.54434125456625       -5.15754254380686       -2.51501021667957
C           12.50700546552347       -6.51474593750294       -2.82015550219939
C           12.23051351991452       -6.96478795697423       -4.22923607430346
C           12.70807289839738       -7.44613191269319       -1.80707315568875
C           12.95227300410133       -7.03674712373890       -0.49854255522494
C           13.17882084853729       -8.06003308303222        0.58131639469603
C           12.99954236758184       -5.67832545657000       -0.20745009731562
C           11.66492548482110       -2.54637205690912       -0.98606013303085
C           10.40179602498899       -3.10286100703362       -1.37584099335797
C            9.49446913816598       -2.10060961513044       -1.30801410588608
C           10.20001205507604       -0.93910082646677       -0.85728355382914
N           11.53076099649215       -1.21749691605954       -0.68476605727999
N           14.28806735828981       -1.39432025520763       -0.28009115996029
C           13.04285724437009        4.75994230704337        1.29141076077888
C           12.56618827965544        5.75665807678452        0.44072651962445
C           12.59723155422772        7.09115777757680        0.82973644726956
C           12.10785742721105        8.16634529991770       -0.10242352614881
C           13.10593981187940        7.42461295604248        2.08172621537418
C           13.58454240645573        6.44112717755689        2.94209484630225
C           14.11127708555038        6.81112455532319        4.30227423142072
C           13.55292724196464        5.10976370149987        2.54053070957978
H            8.51128570577737        0.32697237981176       -0.71419107306296
H            8.49880633490387        2.72197662193126        0.27224384642820
H           10.40340289326945        4.42744951981850        1.13419680391625
H           15.65668370567125        4.31968874860818        1.13933906321525
H           17.50120919771393        2.39892787404990        0.72146004108852
H           17.33280364775592       -2.72989625175649       -0.16998479606151
H           15.38135434149934       -4.51404223052487       -0.70544284322066
H           12.39689086517554       -4.42064155501782       -3.29686607688358
H           12.65565071541960       -7.95151026832010       -4.41325370644340
H           11.15247511656368       -7.02149619664413       -4.39626670498661
H           12.64753038099636       -6.26026320299908       -4.94926276172746
H           12.67568761760638       -8.50593161461824       -2.03824694649944
H           13.09744187658001       -7.60895025604181        1.57009752142613
H           12.45166959547280       -8.86917188009031        0.50226515894953
H           14.17663347177602       -8.49281830677512        0.48184757321366
H           13.18366030245700       -5.34460657327954        0.80779994290538
H           10.24254944345220       -4.13169246853249       -1.65533050256168
H            8.43764941825986       -2.12958640176606       -1.52121029250216
H           12.18537178574852        5.48499024361195       -0.53768629104970
H           11.63803248100434        8.97762183095835        0.45425138409984
H           11.38881447122639        7.76468289695453       -0.81646372759595
H           12.94842114911228        8.58230542003468       -0.66252374724537
H           13.13044826378187        8.46479566822525        2.39005222675841
H           13.29274402925295        6.82589019353876        5.02559106074786
H           14.56672080313976        7.80152695627174        4.28586995030654
H           14.85170241151135        6.08693210220136        4.64238479491731
H           13.91261111677823        4.33287498032333        3.20626731178948
Fe          31.47766202860138        0.04619023878825       -0.05698392673642
C           34.82923549841409        0.46533157276361       -0.40658504399646
C           34.17744258267815       -0.32616952611870       -1.32960829830676
C           34.84654908103001       -1.03106845835723       -2.38050594599727
C           33.88819005091035       -1.67869883295896       -3.08408935244738
C           32.63205182641111       -1.34897747610973       -2.47513778776156
N           32.82541496114971       -0.54091298860597       -1.38693696815171
C           31.39979781295980       -1.76162989644982       -2.96969108840858
C           30.19523117276214       -1.43046713074799       -2.36557332554512
C           28.91366388759464       -1.77098797038155       -2.90775115074364
C           27.98490952116872       -1.29756857754723       -2.04296938985174
N           30.04617678772095       -0.72920673323108       -1.19230803744007
C           28.70069383828936       -0.67077080229281       -0.97631760966574
C           28.07001638258261       -0.11774073789734        0.14387233912541
C           28.77477539785550        0.46188751459351        1.20501923404869
C           28.13963587559836        0.95802516840128        2.38549699556822
C           29.12118499382000        1.46145463907576        3.17160509281274
C           30.35288858256363        1.27778517137033        2.46334841457235
C           31.57224559590094        1.77134480422785        2.90284695561488
C           31.61906744763213        2.48018831352277        4.20642838844615
C           31.87022713649285        3.84948237473285        4.25056277428027
C           31.90809108414274        4.52058552134704        5.46903658110408
C           32.18844257408595        5.99853138016165        5.50850759633511
C           31.70405494362578        3.80766254615279        6.64562451062304
C           31.45648348762908        2.43747579504886        6.61676266130132
C           31.22660897652167        1.68581140071588        7.89999755170324
C           31.40897538101880        1.77952208135981        5.39320924464390
C           32.74630698799117        1.65483552166744        2.16836866337533
C           34.00933620336006        2.18456577001874        2.59417485339065
C           34.91715836868232        1.83861729072037        1.65154435768456
C           34.21198889606336        1.08104005574410        0.66222993109779
N           32.88096952137505        0.99398533927825        0.97683700237658
N           30.12325424691677        0.65453673911317        1.25931664623334
C           31.36865669461558       -2.56583130054049       -4.21513889633614
C           31.84701300980868       -2.02664783935068       -5.40876366319753
C           31.81557482028267       -2.77144506976368       -6.58240532040256
C           32.30682446280987       -2.17592608331273       -7.87408850385330
C           31.30469490720787       -4.06594921559249       -6.55485616113995
C           30.82436278458029       -4.61806254690452       -5.37122835602268
C           30.29503180397222       -6.02650067902503       -5.34845616258029
C           30.85651767606116       -3.86213611612314       -4.20406511679261
H           35.90150550616289        0.58727544589777       -0.51122972254524
H           35.91372703606222       -1.02799336000252       -2.53630154597837
H           34.00839016270459       -2.32612706097802       -3.93747087563923
H           28.75530645919578       -2.29626088846864       -3.83538619800355
H           26.91063158963598       -1.36207061631994       -2.10622055414172
H           27.07868748202286        0.91885574624790        2.57323370744759
H           29.02984484946153        1.93037940990638        4.13775594557866
H           32.01975675165995        4.39474224876495        3.32514639080859
H           31.76435959435889        6.45155927925495        6.40468132171100
H           33.26694583107473        6.17188429955708        5.51649465203205
H           31.77289341533611        6.49459052617585        4.63104368893165
H           31.73676336685849        4.32488685788939        7.59907854801694
H           31.30544448918993        0.61034345972979        7.74203363874573
H           31.95365507307079        1.98509846306459        8.65599115007430
H           30.22889321888551        1.90430057684735        8.28683943781244
H           31.22259474831489        0.71188765039826        5.35540565087358
H           34.16836121293836        2.74078242033739        3.50372320147964
H           35.97404869858408        2.05115703558423        1.62035046671882
H           32.22939220455008       -1.01186451474561       -5.41966899514510
H           32.77725410613674       -2.93675323798439       -8.49748975327803
H           33.02584359246679       -1.37845176973243       -7.68634991651284
H           31.46710516443880       -1.75369360258547       -8.43073908047925
H           31.27983011684201       -4.65133206506354       -7.46827808444025
H           31.11179907503274       -6.72671888663559       -5.15876796383368
H           29.84144454739977       -6.28620419508010       -6.30521530278262
H           29.55243684199968       -6.14967243850565       -4.55994030250464
H           30.49556881166130       -4.28492943568116       -3.27288376095833
C           17.74109591916461       -0.16173806463503        0.21202398295632
C           18.96549995262994       -0.20163529799642        0.25331677829417
C           20.30580904810414       -0.22551743586094        0.28349351453223
C           21.53767321890729       -0.23448877569027        0.29908277034555
C           22.87377406604102       -0.23733911545527        0.29879496543403
C           24.10537702315888       -0.21340001087157        0.28238505407507
C           25.44570878490165       -0.19105973447575        0.25347312221873
C           26.67033022653736       -0.16241300469569        0.21061330865561

          :  Hamiltonian                  GFN1-xTB          :
         :: total energy            -229.641204432822 Eh    ::
         :: gradient norm              0.000996683878 Eh/a0 ::
         :: HOMO-LUMO gap              0.106294641976 eV    ::
         :: SCC energy              -233.484084692644 Eh    ::
         :: repulsion energy           3.964339529031 Eh    ::

    * Orbital Energies and Occupations

         #    Occupation            Energy/Eh            Energy/eV
      -------------------------------------------------------------
         1        2.0000           -0.7670983             -20.8738
       ...           ...                  ...                  ...
       203        2.0000           -0.4250484             -11.5662
       204        2.0000           -0.4158259             -11.3152
       205        2.0000           -0.4114384             -11.1958
       206        2.0000           -0.3948344             -10.7440
       207        2.0000           -0.3948321             -10.7439
       208        1.9994           -0.3902312             -10.6187
       209        1.9926           -0.3879096             -10.5556
       210        1.9885           -0.3874891             -10.5441
       211        1.9370           -0.3858478             -10.4995
       212        1.9367           -0.3858430             -10.4993
       213        1.9360           -0.3858316             -10.4990
       214        1.9356           -0.3858260             -10.4989
       215        1.8053           -0.3847087             -10.4685 (HOMO)
       216        0.2637           -0.3808025             -10.3622 (LUMO)
       217        0.2053           -0.3805333             -10.3548
       218                         -0.3365512              -9.1580
       219                         -0.3297815              -8.9738
       220                         -0.3251089              -8.8467
       221                         -0.3250984              -8.8464
       222                         -0.3019912              -8.2176
       223                         -0.3011610              -8.1950
       224                         -0.3002775              -8.1710
       225                         -0.3002292              -8.1697
       226                         -0.2879724              -7.8361
       ...                                ...                  ...
       478                          1.6012841              43.5732
      -------------------------------------------------------------
                  HL-Gap            0.0039063 Eh            0.1063 eV

Wiberg/Mayer (AO) data.
largest (>0.10) Wiberg bond orders for each atom

     #   Z sym  total        # sym  WBO       # sym  WBO       # sym  WBO
 ---------------------------------------------------------------------------
     1  26 Fe   3.195 --    32 N    0.676     7 N    0.672    12 N    0.670
                            33 N    0.666
     2   6 C    3.930 --    31 C    1.364     3 C    1.361    42 H    0.970
     3   6 C    3.925 --     2 C    1.361     7 N    1.210     4 C    1.174
     4   6 C    3.959 --     5 C    1.648     3 C    1.174    43 H    0.975
     5   6 C    3.962 --     4 C    1.648     6 C    1.176    44 H    0.973
     6   6 C    3.920 --     8 C    1.314     7 N    1.223     5 C    1.176
     7   7 N    3.385 --     6 C    1.223     3 C    1.210     1 Fe   0.672
     8   6 C    3.933 --     9 C    1.333     6 C    1.314    34 C    1.025
     9   6 C    3.916 --     8 C    1.333    12 N    1.200    10 C    1.180
    10   6 C    3.958 --    11 C    1.638     9 C    1.180    45 H    0.973
    11   6 C    3.960 --    10 C    1.638    13 C    1.188    46 H    0.973
    12   7 N    3.386 --    13 C    1.243     9 C    1.200     1 Fe   0.670
    13   6 C    3.905 --    14 C    1.254    12 N    1.243    11 C    1.188
    14   6 C    3.933 --    13 C    1.254    15 C    1.253   137 C    1.198
    15   6 C    3.905 --    14 C    1.253    33 N    1.245    16 C    1.188
    16   6 C    3.960 --    17 C    1.639    15 C    1.188    47 H    0.973
    17   6 C    3.958 --    16 C    1.639    18 C    1.180    48 H    0.973
    18   6 C    3.916 --    19 C    1.335    33 N    1.199    17 C    1.180
    19   6 C    3.933 --    18 C    1.335    28 C    1.316    20 C    1.019
    20   6 C    3.988 --    21 C    1.402    27 C    1.395    19 C    1.019
                            24 C    0.104
    21   6 C    3.987 --    22 C    1.412    20 C    1.402    49 H    0.972
                            25 C    0.104
    22   6 C    3.988 --    24 C    1.420    21 C    1.412    23 C    1.020
                            27 C    0.103
    23   6 C    3.995 --    22 C    1.020    50 H    0.983    52 H    0.982
                            51 H    0.971
    24   6 C    3.990 --    22 C    1.420    25 C    1.411    53 H    0.972
                            20 C    0.104
    25   6 C    3.988 --    27 C    1.420    24 C    1.411    26 C    1.020
                            21 C    0.104
    26   6 C    3.995 --    25 C    1.020    54 H    0.985    55 H    0.979
                            56 H    0.972
    27   6 C    3.987 --    25 C    1.420    20 C    1.395    57 H    0.972
                            22 C    0.103
    28   6 C    3.920 --    19 C    1.316    32 N    1.223    29 C    1.176
    29   6 C    3.962 --    30 C    1.649    28 C    1.176    58 H    0.973
    30   6 C    3.959 --    29 C    1.649    31 C    1.173    59 H    0.975
    31   6 C    3.925 --     2 C    1.364    32 N    1.209    30 C    1.173
    32   7 N    3.386 --    28 C    1.223    31 C    1.209     1 Fe   0.676
    33   7 N    3.385 --    15 C    1.245    18 C    1.199     1 Fe   0.666
    34   6 C    3.988 --    41 C    1.397    35 C    1.394     8 C    1.025
                            38 C    0.103
    35   6 C    3.986 --    36 C    1.418    34 C    1.394    60 H    0.972
                            39 C    0.103
    36   6 C    3.988 --    35 C    1.418    38 C    1.414    37 C    1.020
                            41 C    0.103
    37   6 C    3.995 --    36 C    1.020    62 H    0.984    61 H    0.982
                            63 H    0.971
    38   6 C    3.988 --    39 C    1.416    36 C    1.414    64 H    0.972
                            34 C    0.103
    39   6 C    3.988 --    38 C    1.416    41 C    1.416    40 C    1.020
                            35 C    0.103
    40   6 C    3.995 --    39 C    1.020    67 H    0.983    66 H    0.982
                            65 H    0.971
    41   6 C    3.986 --    39 C    1.416    34 C    1.397    68 H    0.972
                            36 C    0.103
    42   1 H    1.001 --     2 C    0.970
    43   1 H    0.998 --     4 C    0.975
    44   1 H    1.005 --     5 C    0.973
    45   1 H    1.005 --    10 C    0.973
    46   1 H    1.002 --    11 C    0.973
    47   1 H    1.002 --    16 C    0.973
    48   1 H    1.005 --    17 C    0.973
    49   1 H    1.002 --    21 C    0.972
    50   1 H    1.004 --    23 C    0.983
    51   1 H    1.006 --    23 C    0.971
    52   1 H    1.004 --    23 C    0.982
    53   1 H    1.000 --    24 C    0.972
    54   1 H    1.004 --    26 C    0.985
    55   1 H    1.005 --    26 C    0.979
    56   1 H    1.006 --    26 C    0.972
    57   1 H    1.002 --    27 C    0.972
    58   1 H    1.005 --    29 C    0.973
    59   1 H    0.998 --    30 C    0.975
    60   1 H    1.003 --    35 C    0.972
    61   1 H    1.004 --    37 C    0.982
    62   1 H    1.004 --    37 C    0.984
    63   1 H    1.006 --    37 C    0.971
    64   1 H    1.000 --    38 C    0.972
    65   1 H    1.006 --    40 C    0.971
    66   1 H    1.004 --    40 C    0.982
    67   1 H    1.004 --    40 C    0.983
    68   1 H    1.002 --    41 C    0.972
    69  26 Fe   3.196 --   100 N    0.676    75 N    0.672    80 N    0.670
                           101 N    0.666
    70   6 C    3.930 --    99 C    1.364    71 C    1.362   110 H    0.970
    71   6 C    3.925 --    70 C    1.362    75 N    1.210    72 C    1.174
    72   6 C    3.959 --    73 C    1.648    71 C    1.174   111 H    0.975
    73   6 C    3.962 --    72 C    1.648    74 C    1.176   112 H    0.973
    74   6 C    3.920 --    76 C    1.314    75 N    1.223    73 C    1.176
    75   7 N    3.385 --    74 C    1.223    71 C    1.210    69 Fe   0.672
    76   6 C    3.933 --    77 C    1.333    74 C    1.314   102 C    1.026
    77   6 C    3.916 --    76 C    1.333    80 N    1.200    78 C    1.180
    78   6 C    3.958 --    79 C    1.638    77 C    1.180   113 H    0.973
    79   6 C    3.960 --    78 C    1.638    81 C    1.188   114 H    0.973
    80   7 N    3.386 --    81 C    1.243    77 C    1.200    69 Fe   0.670
    81   6 C    3.905 --    82 C    1.254    80 N    1.243    79 C    1.188
    82   6 C    3.933 --    81 C    1.254    83 C    1.253   144 C    1.198
    83   6 C    3.905 --    82 C    1.253   101 N    1.245    84 C    1.188
    84   6 C    3.960 --    85 C    1.639    83 C    1.188   115 H    0.973
    85   6 C    3.958 --    84 C    1.639    86 C    1.180   116 H    0.973
    86   6 C    3.916 --    87 C    1.335   101 N    1.199    85 C    1.180
    87   6 C    3.933 --    86 C    1.335    96 C    1.316    88 C    1.019
    88   6 C    3.988 --    89 C    1.402    95 C    1.395    87 C    1.019
                            92 C    0.104
    89   6 C    3.987 --    90 C    1.412    88 C    1.402   117 H    0.972
                            93 C    0.104
    90   6 C    3.988 --    92 C    1.420    89 C    1.412    91 C    1.020
                            95 C    0.103
    91   6 C    3.995 --    90 C    1.020   118 H    0.983   120 H    0.982
                           119 H    0.971
    92   6 C    3.989 --    90 C    1.420    93 C    1.411   121 H    0.972
                            88 C    0.104
    93   6 C    3.988 --    95 C    1.420    92 C    1.411    94 C    1.020
                            89 C    0.104
    94   6 C    3.995 --    93 C    1.020   122 H    0.985   123 H    0.979
                           124 H    0.972
    95   6 C    3.987 --    93 C    1.420    88 C    1.395   125 H    0.972
                            90 C    0.103
    96   6 C    3.920 --    87 C    1.316   100 N    1.223    97 C    1.176
    97   6 C    3.961 --    98 C    1.649    96 C    1.176   126 H    0.973
    98   6 C    3.959 --    97 C    1.649    99 C    1.173   127 H    0.975
    99   6 C    3.925 --    70 C    1.364   100 N    1.209    98 C    1.173
   100   7 N    3.386 --    96 C    1.223    99 C    1.209    69 Fe   0.676
   101   7 N    3.385 --    83 C    1.245    86 C    1.199    69 Fe   0.666
   102   6 C    3.988 --   109 C    1.397   103 C    1.394    76 C    1.026
                           106 C    0.103
   103   6 C    3.986 --   104 C    1.418   102 C    1.394   128 H    0.972
                           107 C    0.103
   104   6 C    3.988 --   103 C    1.418   106 C    1.414   105 C    1.020
                           109 C    0.103
   105   6 C    3.995 --   104 C    1.020   130 H    0.984   129 H    0.982
                           131 H    0.971
   106   6 C    3.988 --   107 C    1.416   104 C    1.414   132 H    0.972
                           102 C    0.103
   107   6 C    3.988 --   106 C    1.416   109 C    1.416   108 C    1.020
                           103 C    0.103
   108   6 C    3.995 --   107 C    1.020   135 H    0.983   134 H    0.982
                           133 H    0.971
   109   6 C    3.986 --   107 C    1.416   102 C    1.397   136 H    0.972
                           104 C    0.103
   110   1 H    1.001 --    70 C    0.970
   111   1 H    0.998 --    72 C    0.975
   112   1 H    1.005 --    73 C    0.973
   113   1 H    1.005 --    78 C    0.973
   114   1 H    1.002 --    79 C    0.973
   115   1 H    1.002 --    84 C    0.973
   116   1 H    1.005 --    85 C    0.973
   117   1 H    1.002 --    89 C    0.972
   118   1 H    1.004 --    91 C    0.983
   119   1 H    1.006 --    91 C    0.971
   120   1 H    1.004 --    91 C    0.982
   121   1 H    1.000 --    92 C    0.972
   122   1 H    1.004 --    94 C    0.985
   123   1 H    1.005 --    94 C    0.979
   124   1 H    1.006 --    94 C    0.972
   125   1 H    1.002 --    95 C    0.972
   126   1 H    1.005 --    97 C    0.973
   127   1 H    0.998 --    98 C    0.975
   128   1 H    1.003 --   103 C    0.972
   129   1 H    1.004 --   105 C    0.982
   130   1 H    1.004 --   105 C    0.984
   131   1 H    1.006 --   105 C    0.971
   132   1 H    1.000 --   106 C    0.972
   133   1 H    1.006 --   108 C    0.971
   134   1 H    1.004 --   108 C    0.982
   135   1 H    1.004 --   108 C    0.983
   136   1 H    1.002 --   109 C    0.972
   137   6 C    3.868 --   138 C    2.422    14 C    1.198   140 C    0.183
   138   6 C    3.926 --   137 C    2.422   139 C    1.354
   139   6 C    3.883 --   140 C    2.318   138 C    1.354   142 C    0.179
   140   6 C    3.916 --   139 C    2.318   141 C    1.380   137 C    0.183
   141   6 C    3.916 --   142 C    2.318   140 C    1.380   144 C    0.183
   142   6 C    3.883 --   141 C    2.318   143 C    1.354   139 C    0.179
   143   6 C    3.926 --   144 C    2.422   142 C    1.354
   144   6 C    3.868 --   143 C    2.422    82 C    1.198   141 C    0.183
 ---------------------------------------------------------------------------

           -------------------------------------------------
          | TOTAL ENERGY             -229.641204432822 Eh   |
          | GRADIENT NORM               0.000996683878 Eh/α |
          | HOMO-LUMO GAP               0.106294641976 eV   |
           -------------------------------------------------

 * finished run on 2022/07/29 at 19:16:18.266
