   * xtb version 6.5.1 (b24c23e) compiled by 'conda@728c89f4b128' on 2022-07-12
          program call               : xtb Co_Ph3Me_C6_2.xyz --gfn 1 --opt -T 48

   ID    Z sym.   atoms
    1   27 Co     1, 75
    2    6 C      2-6, 8-20, 22-27, 29-42, 76-80, 82-94, 96-101, 103-116,
                  149-154
    3    7 N      7, 21, 28, 43, 81, 95, 102, 117
    4    1 H      44-74, 118-148
########################################################################
[WARNING] Please study the warnings concerning your input carefully
-1- prog_main_parseArguments: Unknown option '-T' provided
########################################################################

          :  Hamiltonian                  GFN1-xTB          :
 * total energy  :  -239.1600873 Eh     change       -0.6185132E-09 Eh
 * total energy  :  -239.2425016 Eh     change       -0.8241426E-01 Eh
 * total energy  :  -239.2867317 Eh     change       -0.4423008E-01 Eh
 * total energy  :  -239.2978919 Eh     change       -0.1116028E-01 Eh
 * total energy  :  -239.3042812 Eh     change       -0.6389252E-02 Eh
 * total energy  :  -239.3076329 Eh     change       -0.3351710E-02 Eh
 * total energy  :  -239.3096297 Eh     change       -0.1996770E-02 Eh
 * total energy  :  -239.3109286 Eh     change       -0.1298918E-02 Eh
 * total energy  :  -239.3118213 Eh     change       -0.8926905E-03 Eh
 * total energy  :  -239.3122316 Eh     change       -0.4103056E-03 Eh
 * total energy  :  -239.3135323 Eh     change       -0.9660489E-05 Eh
 * total energy  :  -239.3135396 Eh     change       -0.7313319E-05 Eh
 * total energy  :  -239.3135447 Eh     change       -0.5165934E-05 Eh
 * total energy  :  -239.3135500 Eh     change       -0.5228086E-05 Eh
 * total energy  :  -239.3135564 Eh     change       -0.6394228E-05 Eh
 * total energy  :  -239.3135636 Eh     change       -0.7250019E-05 Eh
 * total energy  :  -239.3135718 Eh     change       -0.8145522E-05 Eh
 * total energy  :  -239.3135814 Eh     change       -0.9662489E-05 Eh
 * total energy  :  -239.3135850 Eh     change       -0.3566381E-05 Eh
   *** GEOMETRY OPTIMIZATION CONVERGED AFTER 44 ITERATIONS ***

 final structure:
================
154
 xtb: 6.5.1 (b24c23e)
Co          14.51789286117903        0.04558980821394        0.04573496351876
C           11.13052447897557        0.11713210771531       -0.02652435511221
C           11.79387858834868        1.13931927698784        0.61700267941054
C           11.13008584153701        2.22331384312704        1.27600758684186
C           12.09419419930416        3.09267225854588        1.65918940891264
C           13.34429188701732        2.53675929158786        1.23214397348836
N           13.15400447008058        1.32128304009216        0.62608962895690
C           14.55282160385985        3.20821394543915        1.32823487938268
C           14.56945753898578        4.58652891234162        1.89291847291393
C           14.38428995303684        5.68651875477258        1.05070673274257
C           14.16537414084838        5.47583768274336       -0.42373850529074
C           14.40520199238679        6.96852479469494        1.58760031181234
C           14.60588038214215        7.17006831315952        2.94911067798986
C           14.64709142664297        8.56297338627985        3.51721754337810
C           14.78968678878029        6.06748240135923        3.77751449569496
C           14.77382705168723        4.77669404846423        3.26264535457986
C           14.97591798875968        3.58821370114648        4.16427689498182
C           15.74586224250885        2.64283995287483        0.91532146663974
C           17.00707915353792        3.31504733017081        1.00085938284584
C           17.95309354372080        2.41255580381904        0.64832196056823
N           15.91425062370409        1.34975024867744        0.47279379384352
C           17.26590998590306        1.19585728887847        0.34760267745788
C           17.92632261987834       -0.00025228421904        0.05668038484516
C           17.23331258335681       -1.17503097911270       -0.24567949149610
C           17.88535582938269       -2.41572955561012       -0.52485195719450
C           16.91776985900322       -3.28677028304736       -0.89832788607810
C           15.67873250077484       -2.57149028001261       -0.84635155361674
N           15.88142020378613       -1.28137500470314       -0.41024325982969
C           14.47652240611002       -3.09623923745751       -1.28621565789266
C           14.45564525984116       -4.47550160180464       -1.84856889246481
C           14.70012083644610       -4.67702091646382       -3.21055765719914
C           14.98767478919227       -3.50035104982401       -4.10440509510659
C           14.67612940313776       -5.96757255672663       -3.72425985402139
C           14.41454098311449       -7.06018863147836       -2.90236110773506
C           14.38029591941321       -8.44842089354377       -3.48232549572088
C           14.17441321971789       -6.84766193010061       -1.54971332285685
C           14.19222455660882       -5.56460572829613       -1.01373401337509
C           13.93196024169944       -5.34310864301260        0.45241475003237
C           13.29027844499846       -2.38298997513134       -1.21953672807620
C           12.03242099240565       -2.89715405254602       -1.67558364710532
C           11.09025169020988       -1.99235843745135       -1.32156073877343
C           11.77482094028700       -0.92904635535227       -0.65008584818014
N           13.12856985250245       -1.15507627852189       -0.63000338850478
H           10.04712393224947        0.13600781576772       -0.04134931514108
H           10.06213466847285        2.29431669578946        1.40834066928553
H           11.98935276436424        4.03391660421741        2.17448084744907
H           13.26351748205318        4.88409185863942       -0.59182667945342
H           15.00642835168784        4.93238821728348       -0.85827889754559
H           14.05946015184431        6.42858573736153       -0.94163284492272
H           14.26171332323258        7.82255343885583        0.93375112359284
H           14.25123896972796        8.57945097450124        4.53305265303725
H           15.67898019305260        8.92044251238672        3.55000375869796
H           14.06853648027062        9.25186558023055        2.90144310042511
H           14.94702889307514        6.21559869885047        4.84089781856616
H           15.86594676110917        3.03237089127863        3.86304837838925
H           15.09458700111290        3.90174807922211        5.20097950651861
H           14.12201977209535        2.91150612932686        4.09803323339950
H           17.13377040466570        4.34123734044592        1.30571196195837
H           19.02275145629222        2.53826755892708        0.60072937673020
H           18.94853190622193       -2.57772290236950       -0.44904830460401
H           17.01636694433223       -4.31874895579839       -1.19397194318088
H           14.16747419789109       -2.78142888034122       -4.06167580792148
H           15.12014819695765       -3.81970398690031       -5.13766149454706
H           15.89568263652399       -2.99013624080999       -3.77720036074328
H           14.86522241204465       -6.12524999165852       -4.78109692769086
H           15.24210478942503       -8.61509856915077       -4.13010994279473
H           14.38215485167640       -9.20153409833074       -2.69443901336949
H           13.47760588273955       -8.58065529907113       -4.08281797719328
H           13.97085469015848       -7.69288954229943       -0.90039828899994
H           13.04500482858831       -4.72156096960441        0.58966200387599
H           14.77559884739618       -4.82675959640727        0.91407721998677
H           13.77705850595942       -6.29059752161170        0.96764102302652
H           11.90757183181483       -3.83691379889387       -2.18911030713661
H           10.02399349593293       -2.02714950906823       -1.47949252623478
Co          30.50149689576910       -0.06458995875928        0.00057042456044
C           33.88891493970805       -0.06609793046190       -0.10069757157183
C           33.22558667619774       -1.24918023824717       -0.34429069590656
C           33.88948762680587       -2.48751486983318       -0.61947521041660
C           32.92542127586720       -3.38024684109981       -0.94460566853718
C           31.67526054590968       -2.68357974376548       -0.86774114719867
N           31.86547088937474       -1.38685384410851       -0.46369639037328
C           30.46675236984273       -3.23480897693860       -1.26304718775993
C           30.45018480914366       -4.62042040929673       -1.80958356459903
C           30.63465940445405       -4.83130747998520       -3.17892111980423
C           30.85277462538762       -3.65862062304015       -4.09736052663074
C           30.61375100953712       -6.12819545876737       -3.67879785538358
C           30.41375174453664       -7.21610457801380       -2.83555393799487
C           30.37247856058794       -8.61463006055748       -3.38967487928641
C           30.23062338659376       -6.99378347384397       -1.47439034446860
C           30.24647965189182       -5.70580194202382       -0.95253906386835
C           30.04501229883191       -5.47215889439465        0.52092175210306
C           29.27362716470483       -2.54110752527909       -1.16956015669239
C           28.01244989177642       -3.08562099150512       -1.57302260533127
C           27.06634003027021       -2.19041732589539       -1.20259839652699
N           29.10512694067896       -1.30160506151070       -0.59382506328097
C           27.75342498415636       -1.10410545232936       -0.57743076309882
C           27.09301462639354       -0.03948307138647        0.04056188899543
C           27.78600953296849        1.01778000825248        0.63528763362573
C           27.13378141910646        2.10653803851095        1.29228329986550
C           28.10126989183587        2.99373936027860        1.62579971130375
C           29.34042689121563        2.44147072102937        1.16860160868304
N           29.13789045162768        1.20850598223930        0.59027044117274
C           30.54267904848967        3.12451678545738        1.21509085788595
C           30.56345156939042        4.50900064479571        1.76446565589574
C           30.31998101788081        5.59760803172904        0.92123228250913
C           30.03371820373716        5.36778416570107       -0.53871233831105
C           30.34381085810999        6.88436885901648        1.44436825229262
C           30.60429402980466        7.10337257978729        2.79416166153676
C           30.63842793610682        8.50648658170389        3.33713947866173
C           30.84347930097268        6.01329190816995        3.62301774595778
C           30.82578330732262        4.71651239535076        3.12115440154261
C           31.08508073188775        3.54134150309015        4.02565898477323
C           31.72906202661451        2.56364622600941        0.76984251863648
C           32.98694666910406        3.25031322911035        0.79736585962608
C           33.92914704409574        2.35246646290785        0.42615491054228
C           33.24459707878462        1.12041426342859        0.17401686767965
N           31.89080617083041        1.26960281592613        0.34469043412422
H           34.97231032787533       -0.06939986720945       -0.12466427452912
H           34.95746086871423       -2.63023657575282       -0.57325823877342
H           33.03031942001028       -4.41620168624410       -1.22434827359763
H           31.75440315837232       -3.11468920375740       -3.80932651810060
H           30.01136033352481       -2.96606787356732       -4.03466768838488
H           30.95861175514172       -3.98777803015476       -5.13061517908813
H           30.75672892235342       -6.29196600232011       -4.74191112917172
H           30.76845188714488       -9.32966790002649       -2.66799949873117
H           29.34055467578549       -8.89532016159127       -3.61328432234710
H           30.95088081051302       -8.68557913771049       -4.31102920313809
H           30.07375643741502       -7.83676158919355       -0.80936447991118
H           29.15521512024424       -4.86225195725522        0.68863152531517
H           29.92629397089663       -6.41602420204605        1.05211153438849
H           30.89921703430572       -4.93816539139394        0.94121988787816
H           27.88584272583780       -4.03723914955249       -2.06337314752712
H           25.99668172794261       -2.24837616963275       -1.32385900720357
H           26.07055904379994        2.17095049212680        1.45884686209925
H           28.00254644978934        3.94324496068351        2.12659799821396
H           30.85417891034396        4.81926715357567       -1.00495211362784
H           29.90205737761545        6.31373079299112       -1.06312151751959
H           29.12562612861651        4.77341253729005       -0.65682602691624
H           30.15550807643833        7.73002767864668        0.79097239585924
H           29.77708428386576        9.07555509367177        2.98448180716770
H           30.63561545603099        8.50419098790141        4.42706329512119
H           31.54155799169741        9.01747258962393        2.99629383529667
H           31.04616740996565        6.17335729822211        4.67693982976436
H           31.97219131132755        2.99774152206909        3.69492654516272
H           30.24133157253862        2.84929590156574        4.00045686499322
H           31.23924060749927        3.86802437417752        5.05361803479617
H           33.11178607667021        4.28381075794888        1.07797314354559
H           34.99543197537214        2.48690720648133        0.33658976722253
C           23.12416688123046       -0.03395044203575        0.08021580666732
C           21.89515126255221       -0.03409277834255        0.07981292019458
C           20.55247201985799       -0.02718432793953        0.07627032909839
C           19.32811633219700       -0.02018198031588        0.06838352592378
C           24.46685587469925       -0.03473099173274        0.07347881947674
C           25.69121975605167       -0.03306052812325        0.06301209673115

          :  Hamiltonian                  GFN1-xTB          :
         :: total energy            -239.313584980527 Eh    ::
         :: gradient norm              0.000344108931 Eh/a0 ::
         :: HOMO-LUMO gap              0.008591364493 eV    ::
         :: SCC energy              -243.195964355429 Eh    ::
         :: repulsion energy           4.019490165554 Eh    ::

    * Orbital Energies and Occupations

         #    Occupation            Energy/Eh            Energy/eV
      -------------------------------------------------------------
         1        2.0000           -0.7699358             -20.9510
       ...           ...                  ...                  ...
       212        2.0000           -0.4206196             -11.4456
       213        2.0000           -0.4152538             -11.2996
       214        2.0000           -0.3960926             -10.7782
       215        2.0000           -0.3960887             -10.7781
       216        2.0000           -0.3950428             -10.7497
       217        2.0000           -0.3943923             -10.7320
       218        2.0000           -0.3943895             -10.7319
       219        1.9998           -0.3912816             -10.6473
       220        1.9998           -0.3912802             -10.6473
       221        1.9998           -0.3912038             -10.6452
       222        1.9998           -0.3912031             -10.6452
       223        1.8888           -0.3849601             -10.4753
       224        1.1386           -0.3825342             -10.4093 (HOMO)
       225        0.9733           -0.3822185             -10.4007 (LUMO)
       226                         -0.3382518              -9.2043
       227                         -0.3265015              -8.8846
       228                         -0.3249851              -8.8433
       229                         -0.3249799              -8.8432
       230                         -0.2978640              -8.1053
       231                         -0.2950563              -8.0289
       232                         -0.2950291              -8.0282
       233                         -0.2905159              -7.9053
       234                         -0.2856663              -7.7734
       235                         -0.2623387              -7.1386
       ...                                ...                  ...
       502                          1.5782659              42.9468
      -------------------------------------------------------------
                  HL-Gap            0.0003157 Eh            0.0086 eV

Wiberg/Mayer (AO) data.
largest (>0.10) Wiberg bond orders for each atom

     #   Z sym  total        # sym  WBO       # sym  WBO       # sym  WBO
 ---------------------------------------------------------------------------
     1  27 Co   3.029 --    43 N    0.638     7 N    0.635    21 N    0.632
                            28 N    0.631
     2   6 C    3.927 --    42 C    1.365     3 C    1.364    44 H    0.970
     3   6 C    3.926 --     2 C    1.364     7 N    1.204     4 C    1.175
     4   6 C    3.960 --     5 C    1.649     3 C    1.175    45 H    0.975
     5   6 C    3.963 --     4 C    1.649     6 C    1.176    46 H    0.974
     6   6 C    3.919 --     8 C    1.322     7 N    1.211     5 C    1.176
     7   7 N    3.346 --     6 C    1.211     3 C    1.204     1 Co   0.635
     8   6 C    3.931 --    18 C    1.340     6 C    1.322     9 C    1.004
     9   6 C    3.987 --    10 C    1.381    16 C    1.379     8 C    1.004
                            13 C    0.104
    10   6 C    3.984 --    12 C    1.420     9 C    1.381    11 C    1.021
                            15 C    0.103
    11   6 C    3.995 --    10 C    1.021    49 H    0.986    48 H    0.974
                            47 H    0.974
    12   6 C    3.993 --    10 C    1.420    13 C    1.415    50 H    0.970
                            16 C    0.103
    13   6 C    3.988 --    12 C    1.415    15 C    1.413    14 C    1.020
                             9 C    0.104
    14   6 C    3.996 --    13 C    1.020    53 H    0.983    51 H    0.982
                            52 H    0.971
    15   6 C    3.993 --    16 C    1.421    13 C    1.413    54 H    0.970
                            10 C    0.103
    16   6 C    3.984 --    15 C    1.421     9 C    1.379    17 C    1.021
                            12 C    0.103
    17   6 C    3.995 --    16 C    1.021    56 H    0.986    57 H    0.974
                            55 H    0.973
    18   6 C    3.917 --     8 C    1.340    21 N    1.190    19 C    1.180
    19   6 C    3.959 --    20 C    1.639    18 C    1.180    58 H    0.974
    20   6 C    3.962 --    19 C    1.639    22 C    1.189    59 H    0.973
    21   7 N    3.346 --    22 C    1.236    18 C    1.190     1 Co   0.632
    22   6 C    3.905 --    23 C    1.257    21 N    1.236    20 C    1.189
    23   6 C    3.932 --    22 C    1.257    24 C    1.257   152 C    1.195
    24   6 C    3.905 --    23 C    1.257    28 N    1.236    25 C    1.190
    25   6 C    3.961 --    26 C    1.638    24 C    1.190    60 H    0.973
    26   6 C    3.959 --    25 C    1.638    27 C    1.180    61 H    0.974
    27   6 C    3.916 --    29 C    1.339    28 N    1.191    26 C    1.180
    28   7 N    3.347 --    24 C    1.236    27 C    1.191     1 Co   0.631
    29   6 C    3.931 --    27 C    1.339    39 C    1.324    30 C    1.004
    30   6 C    3.987 --    37 C    1.383    31 C    1.377    29 C    1.004
                            34 C    0.104
    31   6 C    3.985 --    33 C    1.425    30 C    1.377    32 C    1.021
                            36 C    0.102
    32   6 C    3.995 --    31 C    1.021    63 H    0.986    62 H    0.974
                            64 H    0.973
    33   6 C    3.993 --    31 C    1.425    34 C    1.410    65 H    0.971
                            37 C    0.103
    34   6 C    3.988 --    36 C    1.418    33 C    1.410    35 C    1.020
                            30 C    0.104
    35   6 C    3.996 --    34 C    1.020    67 H    0.985    66 H    0.979
                            68 H    0.973
    36   6 C    3.992 --    34 C    1.418    37 C    1.417    69 H    0.970
                            31 C    0.102
    37   6 C    3.984 --    36 C    1.417    30 C    1.383    38 C    1.021
                            33 C    0.103
    38   6 C    3.996 --    37 C    1.021    72 H    0.986    71 H    0.974
                            70 H    0.973
    39   6 C    3.919 --    29 C    1.324    43 N    1.211    40 C    1.175
    40   6 C    3.963 --    41 C    1.649    39 C    1.175    73 H    0.974
    41   6 C    3.960 --    40 C    1.649    42 C    1.174    74 H    0.975
    42   6 C    3.926 --     2 C    1.365    43 N    1.203    41 C    1.174
    43   7 N    3.345 --    39 C    1.211    42 C    1.203     1 Co   0.638
    44   1 H    1.000 --     2 C    0.970
    45   1 H    0.998 --     4 C    0.975
    46   1 H    1.001 --     5 C    0.974
    47   1 H    1.007 --    11 C    0.974
    48   1 H    1.007 --    11 C    0.974
    49   1 H    1.004 --    11 C    0.986
    50   1 H    1.000 --    12 C    0.970
    51   1 H    1.004 --    14 C    0.982
    52   1 H    1.006 --    14 C    0.971
    53   1 H    1.004 --    14 C    0.983
    54   1 H    1.000 --    15 C    0.970
    55   1 H    1.007 --    17 C    0.973
    56   1 H    1.004 --    17 C    0.986
    57   1 H    1.007 --    17 C    0.974
    58   1 H    1.001 --    19 C    0.974
    59   1 H    1.002 --    20 C    0.973
    60   1 H    1.002 --    25 C    0.973
    61   1 H    1.001 --    26 C    0.974
    62   1 H    1.007 --    32 C    0.974
    63   1 H    1.004 --    32 C    0.986
    64   1 H    1.008 --    32 C    0.973
    65   1 H    0.999 --    33 C    0.971
    66   1 H    1.005 --    35 C    0.979
    67   1 H    1.004 --    35 C    0.985
    68   1 H    1.006 --    35 C    0.973
    69   1 H    1.000 --    36 C    0.970
    70   1 H    1.008 --    38 C    0.973
    71   1 H    1.007 --    38 C    0.974
    72   1 H    1.004 --    38 C    0.986
    73   1 H    1.002 --    40 C    0.974
    74   1 H    0.998 --    41 C    0.975
    75  27 Co   3.029 --   117 N    0.638    81 N    0.635    95 N    0.632
                           102 N    0.631
    76   6 C    3.927 --   116 C    1.365    77 C    1.364   118 H    0.970
    77   6 C    3.926 --    76 C    1.364    81 N    1.204    78 C    1.175
    78   6 C    3.960 --    79 C    1.649    77 C    1.175   119 H    0.975
    79   6 C    3.963 --    78 C    1.649    80 C    1.176   120 H    0.974
    80   6 C    3.919 --    82 C    1.322    81 N    1.211    79 C    1.176
    81   7 N    3.346 --    80 C    1.211    77 C    1.204    75 Co   0.635
    82   6 C    3.931 --    92 C    1.340    80 C    1.322    83 C    1.004
    83   6 C    3.987 --    84 C    1.381    90 C    1.379    82 C    1.004
                            87 C    0.104
    84   6 C    3.984 --    86 C    1.420    83 C    1.381    85 C    1.021
                            89 C    0.103
    85   6 C    3.995 --    84 C    1.021   123 H    0.986   122 H    0.974
                           121 H    0.974
    86   6 C    3.993 --    84 C    1.420    87 C    1.415   124 H    0.970
                            90 C    0.103
    87   6 C    3.988 --    86 C    1.415    89 C    1.413    88 C    1.020
                            83 C    0.104
    88   6 C    3.996 --    87 C    1.020   127 H    0.983   125 H    0.982
                           126 H    0.971
    89   6 C    3.993 --    90 C    1.421    87 C    1.413   128 H    0.970
                            84 C    0.103
    90   6 C    3.984 --    89 C    1.421    83 C    1.379    91 C    1.021
                            86 C    0.103
    91   6 C    3.995 --    90 C    1.021   130 H    0.986   131 H    0.974
                           129 H    0.973
    92   6 C    3.917 --    82 C    1.340    95 N    1.190    93 C    1.180
    93   6 C    3.959 --    94 C    1.639    92 C    1.180   132 H    0.974
    94   6 C    3.962 --    93 C    1.639    96 C    1.189   133 H    0.973
    95   7 N    3.346 --    96 C    1.236    92 C    1.190    75 Co   0.632
    96   6 C    3.905 --    97 C    1.257    95 N    1.236    94 C    1.189
    97   6 C    3.932 --    96 C    1.257    98 C    1.257   154 C    1.195
    98   6 C    3.905 --    97 C    1.257   102 N    1.236    99 C    1.190
    99   6 C    3.961 --   100 C    1.638    98 C    1.190   134 H    0.973
   100   6 C    3.959 --    99 C    1.638   101 C    1.180   135 H    0.974
   101   6 C    3.916 --   103 C    1.339   102 N    1.191   100 C    1.180
   102   7 N    3.347 --    98 C    1.236   101 C    1.191    75 Co   0.631
   103   6 C    3.931 --   101 C    1.339   113 C    1.324   104 C    1.004
   104   6 C    3.987 --   111 C    1.383   105 C    1.377   103 C    1.004
                           108 C    0.104
   105   6 C    3.985 --   107 C    1.425   104 C    1.377   106 C    1.021
                           110 C    0.102
   106   6 C    3.995 --   105 C    1.021   137 H    0.986   136 H    0.974
                           138 H    0.973
   107   6 C    3.993 --   105 C    1.425   108 C    1.410   139 H    0.971
                           111 C    0.103
   108   6 C    3.988 --   110 C    1.418   107 C    1.410   109 C    1.020
                           104 C    0.104
   109   6 C    3.996 --   108 C    1.020   141 H    0.985   140 H    0.979
                           142 H    0.973
   110   6 C    3.992 --   108 C    1.418   111 C    1.417   143 H    0.970
                           105 C    0.102
   111   6 C    3.984 --   110 C    1.417   104 C    1.383   112 C    1.021
                           107 C    0.103
   112   6 C    3.996 --   111 C    1.021   146 H    0.986   145 H    0.974
                           144 H    0.973
   113   6 C    3.919 --   103 C    1.324   117 N    1.211   114 C    1.175
   114   6 C    3.963 --   115 C    1.649   113 C    1.175   147 H    0.974
   115   6 C    3.960 --   114 C    1.649   116 C    1.174   148 H    0.975
   116   6 C    3.926 --    76 C    1.365   117 N    1.203   115 C    1.174
   117   7 N    3.345 --   113 C    1.211   116 C    1.203    75 Co   0.638
   118   1 H    1.000 --    76 C    0.970
   119   1 H    0.998 --    78 C    0.975
   120   1 H    1.001 --    79 C    0.974
   121   1 H    1.007 --    85 C    0.974
   122   1 H    1.007 --    85 C    0.974
   123   1 H    1.004 --    85 C    0.986
   124   1 H    1.000 --    86 C    0.970
   125   1 H    1.004 --    88 C    0.982
   126   1 H    1.006 --    88 C    0.971
   127   1 H    1.004 --    88 C    0.983
   128   1 H    1.000 --    89 C    0.970
   129   1 H    1.007 --    91 C    0.973
   130   1 H    1.004 --    91 C    0.986
   131   1 H    1.007 --    91 C    0.974
   132   1 H    1.001 --    93 C    0.974
   133   1 H    1.002 --    94 C    0.973
   134   1 H    1.002 --    99 C    0.973
   135   1 H    1.001 --   100 C    0.974
   136   1 H    1.007 --   106 C    0.974
   137   1 H    1.004 --   106 C    0.986
   138   1 H    1.008 --   106 C    0.973
   139   1 H    0.999 --   107 C    0.971
   140   1 H    1.005 --   109 C    0.979
   141   1 H    1.004 --   109 C    0.985
   142   1 H    1.006 --   109 C    0.973
   143   1 H    1.000 --   110 C    0.970
   144   1 H    1.008 --   112 C    0.973
   145   1 H    1.007 --   112 C    0.974
   146   1 H    1.004 --   112 C    0.986
   147   1 H    1.002 --   114 C    0.974
   148   1 H    0.998 --   115 C    0.975
   149   6 C    3.920 --   150 C    2.356   153 C    1.342   152 C    0.189
   150   6 C    3.920 --   149 C    2.356   151 C    1.342   154 C    0.189
   151   6 C    3.929 --   152 C    2.438   150 C    1.342
   152   6 C    3.884 --   151 C    2.438    23 C    1.195   149 C    0.189
   153   6 C    3.929 --   154 C    2.438   149 C    1.342
   154   6 C    3.884 --   153 C    2.438    97 C    1.195   150 C    0.189
 ---------------------------------------------------------------------------

           -------------------------------------------------
          | TOTAL ENERGY             -239.313584980527 Eh   |
          | GRADIENT NORM               0.000344108931 Eh/α |
          | HOMO-LUMO GAP               0.008591364493 eV   |
           -------------------------------------------------

 * finished run on 2022/07/30 at 03:27:25.245
