   * xtb version 6.5.1 (b24c23e) compiled by 'conda@728c89f4b128' on 2022-07-12
          program call               : xtb Co_C2Py_C4_3.xyz --gfn 1 --opt -T 48

   ID    Z sym.   atoms
    1   27 Co     1, 59, 125
    2    6 C      2-6, 8-13, 15-19, 21-26, 28-33, 35-40, 60-64, 66-71, 73-77,
                  79-84, 86-91, 93-98, 117-124, 126-130, 132-137, 139-143,
                  145-150, 152-157, 159-164
    3    7 N      7, 14, 20, 27, 34, 41, 65, 72, 78, 85, 92, 99, 131, 138,
                  144, 151, 158, 165
    4    1 H      42-58, 100-116, 166-181
########################################################################
[WARNING] Please study the warnings concerning your input carefully
-1- prog_main_parseArguments: Unknown option '-T' provided
########################################################################

          :  Hamiltonian                  GFN1-xTB          :
 * total energy  :  -326.1987751 Eh     change       -0.7646918E-08 Eh
 * total energy  :  -326.4520569 Eh     change       -0.2532819E+00 Eh
 * total energy  :  -326.5972805 Eh     change       -0.1452236E+00 Eh
 * total energy  :  -326.6848601 Eh     change       -0.8757959E-01 Eh
 * total energy  :  -326.7403118 Eh     change       -0.5545168E-01 Eh
 * total energy  :  -326.7728312 Eh     change       -0.3251943E-01 Eh
 * total energy  :  -326.7956037 Eh     change       -0.2277246E-01 Eh
 * total energy  :  -326.8093872 Eh     change       -0.1378348E-01 Eh
 * total energy  :  -326.8182576 Eh     change       -0.8870481E-02 Eh
 * total energy  :  -326.8255421 Eh     change       -0.7284446E-02 Eh
 * total energy  :  -326.8536685 Eh     change       -0.8345458E-05 Eh
 * total energy  :  -326.8536026 Eh     change        0.6587654E-04 Eh
 * total energy  :  -326.8536759 Eh     change       -0.7328924E-04 Eh
 * total energy  :  -326.8536875 Eh     change       -0.1160822E-04 Eh
 * total energy  :  -326.8536499 Eh     change        0.3765596E-04 Eh
 * total energy  :  -326.8536888 Eh     change       -0.3893840E-04 Eh
 * total energy  :  -326.8536915 Eh     change       -0.2715148E-05 Eh
 * total energy  :  -326.8536995 Eh     change       -0.7932638E-05 Eh
 * total energy  :  -326.8537030 Eh     change       -0.3544771E-05 Eh
   *** GEOMETRY OPTIMIZATION CONVERGED AFTER 76 ITERATIONS ***

 final structure:
================
181
 xtb: 6.5.1 (b24c23e)
Co          32.39817262604068        0.00183137640804        0.00533543231338
C           29.01715363770605        0.08055923833408       -0.14262288776864
C           29.64437947630518        0.75495653735347        0.88256984074102
C           28.95109958365530        1.46609000881283        1.91305055194131
C           29.89362165097274        2.11504715356120        2.63750333674326
C           31.15654692312845        1.80487941809572        2.04010148004237
N           31.00163376008589        0.93614662052042        0.99618302352269
C           32.35051760764186        2.43466287028256        2.38989783252499
C           32.33087835434112        3.42286232079842        3.39735037002455
C           32.30680512994780        4.26810996721796        4.26742165733948
C           32.27460552952359        5.25306806329970        5.28119803331394
C           33.42753059038684        5.95576774871268        5.64992108114257
C           33.34017531889664        6.90881512805219        6.64908170540742
N           32.20661180747599        7.19493057617575        7.28440477461660
C           31.10619106928687        6.53105117707500        6.93971928028717
C           31.08632169532138        5.56021692037495        5.95427881718523
C           33.55782239622353        2.12865233598977        1.76439129592698
C           34.78954957552726        2.79217070933363        2.05565617797998
C           35.75776983581476        2.12846703629757        1.37808156720587
N           33.75592519723242        1.09706853966882        0.88408247202024
C           35.11131098797027        1.05923348078601        0.68501257024362
C           35.80091231669250        0.03512580885616        0.03767645632559
C           35.13978820382111       -1.01228184230333       -0.60534281164507
C           35.81341492685320       -2.10191501755005       -1.23787722133347
C           34.86708381411271       -2.81087030348097       -1.90055220433206
C           33.62292314325695       -2.14663173786380       -1.67126481300785
N           33.79118284169532       -1.07146579257069       -0.83751679676637
C           32.44178292419367       -2.47503435698176       -2.33414538013511
C           32.46149656462709       -3.50790671257513       -3.29586743382815
C           32.47952569079319       -4.38825127025367       -4.13060763260687
C           32.50528324774564       -5.41044588259171       -5.10711262130113
C           33.68663694479233       -6.10033399002989       -5.40344117913986
C           33.66050052506238       -7.08891587905962       -6.37095034047322
N           32.56018415847495       -7.42184872008745       -7.04102620321063
C           31.43301207244949       -6.77107443347048       -6.76469864361059
C           31.35238003831948       -5.76705614184292       -5.81615729659750
C           31.24486787874358       -1.80381927374382       -2.08697715015612
C           30.01933349104974       -2.09214610419664       -2.76723265920237
C           29.05482644581294       -1.36416902758390       -2.15589430737838
C           29.69603696099935       -0.63858841558355       -1.10166715811992
N           31.04988333865423       -0.87727214590224       -1.10140559965016
H           27.93474961106953        0.10565135176976       -0.18861542790862
H           27.88056025934626        1.46295474015327        2.04264285629555
H           29.76414550578822        2.76316287883484        3.48944635903470
H           34.37157190149684        5.75407416144875        5.15837057915778
H           34.21870546248143        7.46936454672807        6.95535927560881
H           30.19893467857116        6.78941785995084        7.47822296383215
H           30.16752742391307        5.04329159789457        5.70489323316888
H           34.88443088113852        3.64725849368155        2.70541956650788
H           36.81870279010035        2.31866979354804        1.35397706407477
H           36.87505208861818       -2.28065640454298       -1.18200470065443
H           34.98586510302465       -3.69519103281459       -2.50570424059542
H           34.60526317563593       -5.86052073909864       -4.88173852672307
H           34.56247417937941       -7.63976037383829       -6.62167179073799
H           30.55429915938707       -7.06801935496612       -7.32998911358456
H           30.41351878518066       -5.26227564351302       -5.62305316875463
H           29.92765750226725       -2.77655775069189       -3.59538128357584
H           27.99905960374936       -1.32189439648099       -2.37135135971338
Co          59.13477273032002       -0.07564015312697       -0.01941505666627
C           62.51972514481834       -0.16220122956228       -0.14562497914526
C           61.83169677846071       -1.35369492604699       -0.21586771206119
C           62.46532749049689       -2.63285291769113       -0.31914464001458
C           61.47914439430047       -3.53773208599351       -0.52521823241977
C           60.24951447154541       -2.80634499204706       -0.54832542432191
N           60.46684389551361       -1.47654398640934       -0.31860875567205
C           59.02268744697685       -3.37415207196372       -0.88800385739243
C           58.97236047999689       -4.74080341638876       -1.23775597370555
C           58.92503929843772       -5.91480136855971       -1.54027306997215
C           58.85879601118351       -7.28333112223248       -1.88940555610813
C           57.64235727802220       -7.88336859445652       -2.23543726636679
C           57.62846797810652       -9.22581354519258       -2.56950354090480
N           58.72184957693180       -9.98408784971103       -2.57948548384214
C           59.88212994815507       -9.42094219824924       -2.25237428124712
C           60.00405127645832       -8.08775994992769       -1.90289282335356
C           57.84230476650423       -2.63384392444594       -0.89503465986956
C           56.57339965525684       -3.18365330163238       -1.25468806191218
C           55.64879137564228       -2.22835560904579       -0.99330150249749
N           57.70919662593973       -1.34023349436761       -0.46085203660363
C           56.35974065583478       -1.10232905378358       -0.47520281786270
C           55.73019189142544        0.02715428949774        0.04751123986874
C           56.44753626187861        1.11763980618219        0.53616978553666
C           55.82985826495935        2.27894728511501        1.09352490280676
C           56.81948842527165        3.18081235352374        1.30356636485031
C           58.03400070156819        2.56314785464826        0.87274478119975
N           57.80438500728538        1.28293051199174        0.44009068044513
C           59.25204004267616        3.23563428585519        0.79617588764155
C           59.30567453737215        4.60281465449287        1.14325706985877
C           59.36254230950090        5.77867184355606        1.43681213209344
C           59.43637827634290        7.14896389841511        1.77729842287611
C           58.31046939745916        7.85028563882453        2.22381890357281
C           58.43911752471860        9.19042532687613        2.54280051596664
N           59.58827766474520        9.85419476470667        2.44620385473327
C           60.66327824378916        9.19447128960404        2.02241104196073
C           60.64133788728978        7.85454141467175        1.67874064105021
C           60.42389219806958        2.60013388909981        0.38825984820573
C           61.68915217198657        3.26265347138406        0.29608414317418
C           62.61034267537009        2.30605830868904        0.03249749830340
C           61.90225921885965        1.06406763998349       -0.03562588059859
N           60.55310282598000        1.26243721935618        0.13829117324918
H           63.60254613017683       -0.19127255330892       -0.17751479915423
H           63.52944754629659       -2.79394175658115       -0.25167669572817
H           61.55741851224755       -4.60405919331811       -0.66471015401306
H           56.72808055674897       -7.30227118285880       -2.24025254089506
H           56.69876723575874       -9.71724473782707       -2.84156248374168
H           60.75407565551462      -10.06841352788947       -2.27123636987720
H           60.96914191089842       -7.66976715267902       -1.64325914020019
H           56.42572119031214       -4.17846126362093       -1.64302803751943
H           54.57932827739265       -2.27109845592029       -1.12148948366335
H           54.77280911991586        2.37759549938624        1.28135514584630
H           56.74985333138757        4.18036647369346        1.70156776058675
H           57.35504185688798        7.34832429850437        2.31704541782019
H           57.58217691081715        9.75935681119329        2.89180911190006
H           61.58430714354955        9.76638789611841        1.95534483631813
H           61.54061624957536        7.35577952309984        1.33793192676009
H           61.83451872962983        4.32222921876954        0.43300398049261
H           63.67635183687404        2.40829316474029       -0.09403689250646
C           38.42935761479674        0.02013732120551        0.01996313542000
C           37.20879290531464        0.04170603523457        0.03952029443797
C           39.77963480752792       -0.03860788042970       -0.02220998810189
C           40.99609711549109       -0.12399019120539       -0.08618438170240
C           51.75049899524210       -0.01327505454244        0.03361525580629
C           50.53472089285862       -0.10755776877940       -0.02740246139763
C           53.10151778693336        0.04040747906426        0.07041428295362
C           54.32210554286281        0.05648849308847        0.07354187670190
Co          45.76764655859563       -0.52390169791201       -0.35585163760745
C           42.39252895712985       -0.26580853896045       -0.18740810084542
C           43.07608343840191        0.45209077372137       -1.17001257369664
C           42.42017137825758        1.26678633146545       -2.14369171180280
C           43.35073065134123        1.57612008320344       -3.08021978834485
C           44.57734546310416        0.98580981011025       -2.64790603443326
N           44.40593043869507        0.31260068659616       -1.46950823688055
C           45.78292547408628        1.10994045452865       -3.33977584652842
C           45.78035426657380        1.71767802096280       -4.61276594782727
C           45.77649538623380        2.23227691689923       -5.71171896767376
C           45.77603354690308        2.83976528677966       -6.98826723322617
C           46.96012098068262        2.99047267821725       -7.71940241406127
C           46.90683998074894        3.59430473750189       -8.96307865957239
N           45.77795727024181        4.04391256053617       -9.50511579149796
C           44.64816817855291        3.90446363360630       -8.81632040127910
C           44.59292847842006        3.31498882333855       -7.56580658491918
C           46.99993443889249        0.74378274593132       -2.76644101085263
C           48.26755949560110        1.07310084036085       -3.33786465514146
C           49.20275342868565        0.77566996809373       -2.40247751749044
N           47.15588451459659        0.19069615157246       -1.52261978765140
C           48.50320361356567        0.22515134849933       -1.28520108157707
C           49.13928351425840       -0.25634496886106       -0.13882371679759
C           48.45823185819797       -0.99984417093526        0.82613025263199
C           49.11450831238189       -1.68718133874211        1.89314484990002
C           48.18521593404759       -2.49217951441510        2.46506245922258
C           46.95927051882182       -2.25867476354142        1.77039503005365
N           47.12982982813242       -1.33295157236145        0.77774550887420
C           45.75524859784068       -2.88671567294171        2.09246096158760
C           45.75830255304967       -3.91275246867235        3.06070586335516
C           45.76134425045098       -4.79667932394370        3.89208326485500
C           45.76102425077278       -5.81963605102249        4.86795103658284
C           44.56670636485051       -6.40625592174989        5.30245899039836
C           44.61974819107083       -7.40004670696509        6.26359001109911
N           45.75785740374097       -7.83177848318446        6.80085031781200
C           46.89746866821416       -7.27959472213683        6.39264136651092
C           46.95369199211422       -6.27936794499950        5.43832268090221
C           44.53839855431753       -2.46153777196281        1.56136044986866
C           43.27103186260678       -2.92442382345367        2.03185622836977
C           42.33217383124970       -2.13327106988834        1.45678818856511
C           43.03022384576317       -1.22152094241208        0.60711177315015
N           44.37967823971761       -1.44197400493311        0.65961351900877
H           41.37580283796155        1.53263581197040       -2.11610849877942
H           43.23618703940463        2.16178684842843       -3.97809643819413
H           47.90122693868977        2.63858231296253       -7.31445323083762
H           47.80973832676413        3.72442683752308       -9.55262012144899
H           43.74615464727830        4.28289702627898       -9.28846157384006
H           43.65115797007778        3.22181877370520       -7.03864590031746
H           48.40434832591105        1.50586398073915       -4.31573060358089
H           50.27238788944415        0.89909735591015       -2.45488853672849
H           50.15800188210356       -1.57823055288037        2.14097144568288
H           48.30025381425326       -3.17528001306801        3.29116962845483
H           43.61782622921026       -6.08362530144778        4.89129807737935
H           43.70891442606764       -7.87219085349248        6.62024383289382
H           47.80693019107752       -7.65596261935664        6.85196184888755
H           47.90365150830745       -5.85629790401380        5.13490896387755
H           43.13624217899233       -3.72994310464162        2.73556691054607
H           41.26127622989277       -2.15966114320769        1.57770256959876

          :  Hamiltonian                  GFN1-xTB          :
         :: total energy            -326.853703005825 Eh    ::
         :: gradient norm              0.000440458484 Eh/a0 ::
         :: HOMO-LUMO gap              0.004499778145 eV    ::
         :: SCC energy              -332.459890103149 Eh    ::
         :: repulsion energy           5.758954891233 Eh    ::

    * Orbital Energies and Occupations

         #    Occupation            Energy/Eh            Energy/eV
      -------------------------------------------------------------
         1        2.0000           -0.7826835             -21.2979
       ...           ...                  ...                  ...
       292        2.0000           -0.4045167             -11.0075
       293        2.0000           -0.4044522             -11.0057
       294        1.9999           -0.4019434             -10.9374
       295        1.9999           -0.4018388             -10.9346
       296        1.9997           -0.4011398             -10.9156
       297        1.9997           -0.4010815             -10.9140
       298        1.9997           -0.4009055             -10.9092
       299        1.9997           -0.4008728             -10.9083
       300        1.9896           -0.3976111             -10.8195
       301        1.9707           -0.3966127             -10.7924
       302        1.9160           -0.3955772             -10.7642
       303        1.0891           -0.3926224             -10.6838
       304        1.0573           -0.3925552             -10.6820 (HOMO)
       305        0.9788           -0.3923898             -10.6775 (LUMO)
       306                         -0.3480414              -9.4707
       307                         -0.3466884              -9.4339
       308                         -0.3447708              -9.3817
       309                         -0.3444942              -9.3742
       310                         -0.3402427              -9.2585
       311                         -0.3399578              -9.2507
       312                         -0.3233093              -8.7977
       313                         -0.3163512              -8.6084
       314                         -0.3160224              -8.5994
       315                         -0.3049740              -8.2988
       ...                                ...                  ...
       639                          1.5040969              40.9286
      -------------------------------------------------------------
                  HL-Gap            0.0001654 Eh            0.0045 eV

Wiberg/Mayer (AO) data.
largest (>0.10) Wiberg bond orders for each atom

     #   Z sym  total        # sym  WBO       # sym  WBO       # sym  WBO
 ---------------------------------------------------------------------------
     1  27 Co   3.024 --    41 N    0.637     7 N    0.635    20 N    0.633
                            27 N    0.631
     2   6 C    3.933 --    40 C    1.369     3 C    1.365    42 H    0.970
     3   6 C    3.916 --     2 C    1.365     7 N    1.195     4 C    1.176
     4   6 C    3.959 --     5 C    1.645     3 C    1.176    43 H    0.975
     5   6 C    3.962 --     4 C    1.645     6 C    1.183    44 H    0.974
     6   6 C    3.911 --     8 C    1.274     7 N    1.228     5 C    1.183
     7   7 N    3.349 --     6 C    1.228     3 C    1.195     1 Co   0.635
     8   6 C    3.934 --    17 C    1.279     6 C    1.274     9 C    1.157
     9   6 C    3.957 --    10 C    2.626     8 C    1.157
    10   6 C    3.933 --     9 C    2.626    11 C    1.141
    11   6 C    3.987 --    12 C    1.351    16 C    1.350    10 C    1.141
    12   6 C    3.973 --    13 C    1.456    11 C    1.351    45 H    0.974
                            15 C    0.104
    13   6 C    3.973 --    12 C    1.456    14 N    1.407    46 H    0.972
                            16 C    0.104
    14   7 N    2.994 --    13 C    1.407    15 C    1.407
    15   6 C    3.973 --    16 C    1.457    14 N    1.407    47 H    0.972
                            12 C    0.104
    16   6 C    3.973 --    15 C    1.457    11 C    1.350    48 H    0.974
                            13 C    0.104
    17   6 C    3.906 --     8 C    1.279    20 N    1.215    18 C    1.190
    18   6 C    3.960 --    19 C    1.634    17 C    1.190    49 H    0.974
    19   6 C    3.960 --    18 C    1.634    21 C    1.190    50 H    0.973
    20   7 N    3.348 --    17 C    1.215    21 C    1.215     1 Co   0.633
    21   6 C    3.900 --    22 C    1.274    20 N    1.215    19 C    1.190
    22   6 C    3.937 --    21 C    1.274    23 C    1.268   118 C    1.170
    23   6 C    3.899 --    22 C    1.268    27 N    1.217    24 C    1.191
    24   6 C    3.960 --    25 C    1.632    23 C    1.191    51 H    0.973
    25   6 C    3.959 --    24 C    1.632    26 C    1.190    52 H    0.974
    26   6 C    3.906 --    28 C    1.280    27 N    1.213    25 C    1.190
    27   7 N    3.350 --    23 C    1.217    26 C    1.213     1 Co   0.631
    28   6 C    3.934 --    26 C    1.280    37 C    1.273    29 C    1.157
    29   6 C    3.957 --    30 C    2.626    28 C    1.157
    30   6 C    3.933 --    29 C    2.626    31 C    1.141
    31   6 C    3.987 --    36 C    1.351    32 C    1.351    30 C    1.141
    32   6 C    3.973 --    33 C    1.457    31 C    1.351    53 H    0.974
                            35 C    0.104
    33   6 C    3.973 --    32 C    1.457    34 N    1.407    54 H    0.972
                            36 C    0.104
    34   7 N    2.994 --    35 C    1.407    33 C    1.407
    35   6 C    3.973 --    36 C    1.456    34 N    1.407    55 H    0.972
                            32 C    0.104
    36   6 C    3.973 --    35 C    1.456    31 C    1.351    56 H    0.974
                            33 C    0.104
    37   6 C    3.912 --    28 C    1.273    41 N    1.230    38 C    1.183
    38   6 C    3.962 --    39 C    1.645    37 C    1.183    57 H    0.974
    39   6 C    3.959 --    38 C    1.645    40 C    1.175    58 H    0.975
    40   6 C    3.916 --     2 C    1.369    41 N    1.192    39 C    1.175
    41   7 N    3.347 --    37 C    1.230    40 C    1.192     1 Co   0.637
    42   1 H    1.000 --     2 C    0.970
    43   1 H    0.997 --     4 C    0.975
    44   1 H    1.002 --     5 C    0.974
    45   1 H    1.002 --    12 C    0.974
    46   1 H    1.013 --    13 C    0.972
    47   1 H    1.013 --    15 C    0.972
    48   1 H    1.002 --    16 C    0.974
    49   1 H    1.002 --    18 C    0.974
    50   1 H    1.001 --    19 C    0.973
    51   1 H    1.001 --    24 C    0.973
    52   1 H    1.002 --    25 C    0.974
    53   1 H    1.002 --    32 C    0.974
    54   1 H    1.013 --    33 C    0.972
    55   1 H    1.013 --    35 C    0.972
    56   1 H    1.002 --    36 C    0.974
    57   1 H    1.002 --    38 C    0.974
    58   1 H    0.997 --    39 C    0.975
    59  27 Co   3.021 --    99 N    0.637    65 N    0.634    78 N    0.633
                            85 N    0.631
    60   6 C    3.935 --    98 C    1.369    61 C    1.366   100 H    0.970
    61   6 C    3.916 --    60 C    1.366    65 N    1.195    62 C    1.176
    62   6 C    3.959 --    63 C    1.645    61 C    1.176   101 H    0.975
    63   6 C    3.962 --    62 C    1.645    64 C    1.183   102 H    0.974
    64   6 C    3.912 --    66 C    1.274    65 N    1.229    63 C    1.183
    65   7 N    3.349 --    64 C    1.229    61 C    1.195    59 Co   0.634
    66   6 C    3.936 --    75 C    1.280    64 C    1.274    67 C    1.157
    67   6 C    3.957 --    68 C    2.627    66 C    1.157
    68   6 C    3.934 --    67 C    2.627    69 C    1.140
    69   6 C    3.987 --    74 C    1.351    70 C    1.350    68 C    1.140
    70   6 C    3.973 --    71 C    1.457    69 C    1.350   103 H    0.974
                            73 C    0.104
    71   6 C    3.973 --    70 C    1.457    72 N    1.407   104 H    0.972
                            74 C    0.104
    72   7 N    2.994 --    73 C    1.408    71 C    1.407
    73   6 C    3.973 --    74 C    1.456    72 N    1.408   105 H    0.972
                            70 C    0.104
    74   6 C    3.973 --    73 C    1.456    69 C    1.351   106 H    0.974
                            71 C    0.104
    75   6 C    3.906 --    66 C    1.280    78 N    1.214    76 C    1.189
    76   6 C    3.960 --    77 C    1.634    75 C    1.189   107 H    0.973
    77   6 C    3.960 --    76 C    1.634    79 C    1.190   108 H    0.973
    78   7 N    3.349 --    79 C    1.216    75 C    1.214    59 Co   0.633
    79   6 C    3.900 --    80 C    1.272    78 N    1.216    77 C    1.190
    80   6 C    3.939 --    81 C    1.274    79 C    1.272   124 C    1.167
    81   6 C    3.900 --    80 C    1.274    85 N    1.216    82 C    1.190
    82   6 C    3.960 --    83 C    1.633    81 C    1.190   109 H    0.973
    83   6 C    3.960 --    82 C    1.633    84 C    1.190   110 H    0.974
    84   6 C    3.906 --    86 C    1.279    85 N    1.215    83 C    1.190
    85   7 N    3.350 --    81 C    1.216    84 C    1.215    59 Co   0.631
    86   6 C    3.936 --    84 C    1.279    95 C    1.275    87 C    1.157
    87   6 C    3.957 --    88 C    2.627    86 C    1.157
    88   6 C    3.933 --    87 C    2.627    89 C    1.141
    89   6 C    3.987 --    90 C    1.351    94 C    1.350    88 C    1.141
    90   6 C    3.973 --    91 C    1.456    89 C    1.351   111 H    0.974
                            93 C    0.104
    91   6 C    3.973 --    90 C    1.456    92 N    1.407   112 H    0.972
                            94 C    0.104
    92   7 N    2.994 --    91 C    1.407    93 C    1.407
    93   6 C    3.973 --    94 C    1.457    92 N    1.407   113 H    0.972
                            90 C    0.104
    94   6 C    3.973 --    93 C    1.457    89 C    1.350   114 H    0.974
                            91 C    0.104
    95   6 C    3.912 --    86 C    1.275    99 N    1.229    96 C    1.182
    96   6 C    3.962 --    97 C    1.646    95 C    1.182   115 H    0.973
    97   6 C    3.960 --    96 C    1.646    98 C    1.175   116 H    0.975
    98   6 C    3.916 --    60 C    1.369    99 N    1.193    97 C    1.175
    99   7 N    3.348 --    95 C    1.229    98 C    1.193    59 Co   0.637
   100   1 H    1.000 --    60 C    0.970
   101   1 H    0.997 --    62 C    0.975
   102   1 H    1.002 --    63 C    0.974
   103   1 H    1.002 --    70 C    0.974
   104   1 H    1.013 --    71 C    0.972
   105   1 H    1.013 --    73 C    0.972
   106   1 H    1.002 --    74 C    0.974
   107   1 H    1.002 --    76 C    0.973
   108   1 H    1.001 --    77 C    0.973
   109   1 H    1.001 --    82 C    0.973
   110   1 H    1.002 --    83 C    0.974
   111   1 H    1.002 --    90 C    0.974
   112   1 H    1.013 --    91 C    0.972
   113   1 H    1.013 --    93 C    0.972
   114   1 H    1.002 --    94 C    0.974
   115   1 H    1.002 --    96 C    0.973
   116   1 H    0.997 --    97 C    0.975
   117   6 C    3.933 --   118 C    2.490   119 C    1.294
   118   6 C    3.915 --   117 C    2.490    22 C    1.170   120 C    0.196
   119   6 C    3.928 --   120 C    2.487   117 C    1.294
   120   6 C    3.918 --   119 C    2.487   126 C    1.174   118 C    0.196
   121   6 C    3.928 --   122 C    2.490   123 C    1.292
   122   6 C    3.918 --   121 C    2.490   146 C    1.172   124 C    0.196
   123   6 C    3.934 --   124 C    2.493   121 C    1.292
   124   6 C    3.915 --   123 C    2.493    80 C    1.167   122 C    0.196
   125  27 Co   3.029 --   144 N    0.629   165 N    0.629   151 N    0.627
                           131 N    0.626
   126   6 C    3.929 --   127 C    1.270   164 C    1.263   120 C    1.174
   127   6 C    3.899 --   126 C    1.270   131 N    1.215   128 C    1.191
   128   6 C    3.960 --   129 C    1.630   127 C    1.191   166 H    0.973
   129   6 C    3.961 --   128 C    1.630   130 C    1.192   167 H    0.974
   130   6 C    3.905 --   132 C    1.269   131 N    1.223   129 C    1.192
   131   7 N    3.345 --   130 C    1.223   127 C    1.215   125 Co   0.626
   132   6 C    3.930 --   141 C    1.277   130 C    1.269   133 C    1.160
   133   6 C    3.957 --   134 C    2.623   132 C    1.160
   134   6 C    3.929 --   133 C    2.623   135 C    1.141
   135   6 C    3.987 --   140 C    1.351   136 C    1.350   134 C    1.141
   136   6 C    3.973 --   137 C    1.456   135 C    1.350   168 H    0.974
                           139 C    0.104
   137   6 C    3.972 --   136 C    1.456   138 N    1.407   169 H    0.972
                           140 C    0.104
   138   7 N    2.994 --   139 C    1.408   137 C    1.407
   139   6 C    3.972 --   140 C    1.456   138 N    1.408   170 H    0.972
                           136 C    0.104
   140   6 C    3.973 --   139 C    1.456   135 C    1.351   171 H    0.974
                           137 C    0.104
   141   6 C    3.905 --   132 C    1.277   144 N    1.215   142 C    1.189
   142   6 C    3.960 --   143 C    1.631   141 C    1.189   172 H    0.974
   143   6 C    3.960 --   142 C    1.631   145 C    1.192   173 H    0.973
   144   7 N    3.344 --   145 C    1.223   141 C    1.215   125 Co   0.629
   145   6 C    3.900 --   146 C    1.265   144 N    1.223   143 C    1.192
   146   6 C    3.929 --   147 C    1.271   145 C    1.265   122 C    1.172
   147   6 C    3.900 --   146 C    1.271   151 N    1.215   148 C    1.191
   148   6 C    3.960 --   149 C    1.630   147 C    1.191   174 H    0.973
   149   6 C    3.961 --   148 C    1.630   150 C    1.192   175 H    0.974
   150   6 C    3.906 --   152 C    1.268   151 N    1.224   149 C    1.192
   151   7 N    3.345 --   150 C    1.224   147 C    1.215   125 Co   0.627
   152   6 C    3.929 --   161 C    1.278   150 C    1.268   153 C    1.160
   153   6 C    3.957 --   154 C    2.623   152 C    1.160
   154   6 C    3.929 --   153 C    2.623   155 C    1.141
   155   6 C    3.987 --   160 C    1.351   156 C    1.350   154 C    1.141
   156   6 C    3.973 --   157 C    1.456   155 C    1.350   176 H    0.974
                           159 C    0.104
   157   6 C    3.972 --   156 C    1.456   158 N    1.408   177 H    0.972
                           160 C    0.104
   158   7 N    2.994 --   159 C    1.408   157 C    1.408
   159   6 C    3.972 --   160 C    1.456   158 N    1.408   178 H    0.972
                           156 C    0.104
   160   6 C    3.973 --   159 C    1.456   155 C    1.351   179 H    0.974
                           157 C    0.104
   161   6 C    3.905 --   152 C    1.278   165 N    1.215   162 C    1.190
   162   6 C    3.960 --   163 C    1.631   161 C    1.190   180 H    0.974
   163   6 C    3.960 --   162 C    1.631   164 C    1.192   181 H    0.973
   164   6 C    3.900 --   126 C    1.263   165 N    1.224   163 C    1.192
   165   7 N    3.344 --   164 C    1.224   161 C    1.215   125 Co   0.629
   166   1 H    1.001 --   128 C    0.973
   167   1 H    1.002 --   129 C    0.974
   168   1 H    1.002 --   136 C    0.974
   169   1 H    1.013 --   137 C    0.972
   170   1 H    1.013 --   139 C    0.972
   171   1 H    1.002 --   140 C    0.974
   172   1 H    1.002 --   142 C    0.974
   173   1 H    1.001 --   143 C    0.973
   174   1 H    1.001 --   148 C    0.973
   175   1 H    1.002 --   149 C    0.974
   176   1 H    1.002 --   156 C    0.974
   177   1 H    1.013 --   157 C    0.972
   178   1 H    1.013 --   159 C    0.972
   179   1 H    1.002 --   160 C    0.974
   180   1 H    1.002 --   162 C    0.974
   181   1 H    1.001 --   163 C    0.973
 ---------------------------------------------------------------------------

           -------------------------------------------------
          | TOTAL ENERGY             -326.853703005825 Eh   |
          | GRADIENT NORM               0.000440458484 Eh/α |
          | HOMO-LUMO GAP               0.004499778145 eV   |
           -------------------------------------------------

 * finished run on 2022/07/29 at 23:52:23.651
