   * xtb version 6.5.1 (b24c23e) compiled by 'conda@728c89f4b128' on 2022-07-12
          program call               : xtb p-CP_C8_3.xyz --gfn 1 --opt -T 48

   ID    Z sym.   atoms
    1    6 C      1-5, 7-10, 12-23, 26-31, 34-38, 41, 42, 64-68, 70-73,
                  75-86, 89-94, 97-101, 104, 105, 127-147, 149-152, 154-165,
                  168-173, 176-180, 183, 184
    2    7 N      6, 11, 32, 33, 69, 74, 95, 96, 148, 153, 174, 175
    3    8 O      24, 25, 39, 40, 87, 88, 102, 103, 166, 167, 181, 182
    4    1 H      43-63, 106-126, 185-204

          :  Hamiltonian                  GFN1-xTB          :
 * total energy  :  -376.0927422 Eh     change        0.1434836E-07 Eh
 * total energy  :  -376.4488315 Eh     change       -0.3560893E+00 Eh
 * total energy  :  -376.5890201 Eh     change       -0.1401886E+00 Eh
 * total energy  :  -376.6383607 Eh     change       -0.4934054E-01 Eh
 * total energy  :  -376.6597632 Eh     change       -0.2140257E-01 Eh
 * total energy  :  -376.6739925 Eh     change       -0.1422927E-01 Eh
 * total energy  :  -376.6845457 Eh     change       -0.1055324E-01 Eh
 * total energy  :  -376.6936435 Eh     change       -0.9097782E-02 Eh
 * total energy  :  -376.7028701 Eh     change       -0.9226598E-02 Eh
 * total energy  :  -376.7151634 Eh     change       -0.1229330E-01 Eh
 * total energy  :  -377.1488268 Eh     change       -0.2588843E-04 Eh
 * total energy  :  -377.1488381 Eh     change       -0.1133367E-04 Eh
 * total energy  :  -377.1488534 Eh     change       -0.1527367E-04 Eh
 * total energy  :  -377.1488645 Eh     change       -0.1105393E-04 Eh
 * total energy  :  -377.1488721 Eh     change       -0.7658710E-05 Eh
 * total energy  :  -377.1488816 Eh     change       -0.9508483E-05 Eh
 * total energy  :  -377.1488910 Eh     change       -0.9401531E-05 Eh
 * total energy  :  -377.1488980 Eh     change       -0.7005971E-05 Eh
 * total energy  :  -377.1489028 Eh     change       -0.4712131E-05 Eh
   *** GEOMETRY OPTIMIZATION CONVERGED AFTER 110 ITERATIONS ***

 final structure:
================
204
 xtb: 6.5.1 (b24c23e)
C           27.14088080133637       -0.07516937516005       -0.01004675232457
C           27.75312887735638       -1.31047289036342       -0.17687262532495
C           27.10567935067080       -2.57074366781387       -0.31063761607810
C           28.07080474504968       -3.52579969704207       -0.46281701748331
C           29.33912079730737       -2.87785425500184       -0.43735597331535
N           29.09686567190831       -1.54660294042329       -0.25310262124412
C           30.60409773666226       -3.46600718780808       -0.55110613364656
C           31.81941641386467       -2.78094298139779       -0.47614310475376
C           33.11599120849225       -3.40902099831433       -0.65846028068775
C           34.03650080633674       -2.43334313786763       -0.51612973418993
N           31.97368909534178       -1.44757618402521       -0.24927705571167
C           33.30115416429850       -1.21038575676028       -0.25722488929842
C           33.93786202968398        0.02926177769304       -0.04384838536674
C           33.29923105781293        1.26537085252298        0.17139882072138
C           33.94017798677967        2.50941128503948        0.41300130465800
C           32.97057444922512        3.46157902209276        0.56331247890849
C           31.70604765152172        2.82825687984601        0.40859943468608
C           30.44192543535410        3.42101976859084        0.49773879010279
C           30.40380603183434        4.88396256636373        0.73004983978413
C           30.97737688414958        5.76457655652626       -0.19125684016964
C           30.93211588768132        7.12933260561207        0.02586192996949
C           30.31797713418291        7.63990503373835        1.17109585887844
C           30.29591765187643        9.11001008762351        1.36004854293494
O           29.67822999299068        9.49746239843971        2.48630570384881
O           30.77826324438431        9.90205280881620        0.59087430803230
C           29.74744162759118        6.76503257369594        2.09626086540782
C           29.78914212989670        5.39988406566735        1.87421721178298
C           29.22535232501892        2.73886150746186        0.38504401354236
C           27.92048156026538        3.38178415659333        0.42140572397211
C           27.00718779451838        2.40048758993263        0.27997459725669
C           27.75271649293624        1.16123154236356        0.14657318220079
N           29.08533649876845        1.40474220113666        0.20472103152282
N           31.95669230330646        1.50083376904433        0.18180483869660
C           30.63529106478596       -4.93223283032961       -0.76800942201514
C           30.04252474694668       -5.49164478783467       -1.90297576835737
C           30.06464492869607       -6.86031667990971       -2.10658167415532
C           30.67711741078534       -7.69464976675266       -1.17097881607273
C           30.72158666962824       -9.16685630479730       -1.33917085811733
O           30.12583540815076       -9.59725707768785       -2.46175226383171
O           31.23465312906267       -9.92587495010109       -0.55675632052968
C           31.26979584877802       -7.14021293756320       -0.03480685733307
C           31.25155797830249       -5.77204563109481        0.16358752159486
H           26.05565665533290       -0.08709399215548       -0.00300991972186
H           26.03738368939402       -2.71503441138445       -0.28528015992800
H           27.92323139867466       -4.58774311435634       -0.57407357325424
H           29.81916133401549       -0.83805102630884       -0.17930418492975
H           33.27730364008902       -4.45160600387326       -0.87948409040052
H           35.11010052859992       -2.50601254241928       -0.58374381509521
H           35.00790870796479        2.64700166242781        0.46913178004022
H           33.11506528756175        4.50875936403066        0.77320470715182
H           31.44122656814097        5.37186756774659       -1.08901105953450
H           31.36876175642058        7.81837052959329       -0.68876772575047
H           29.70652248041328       10.46681056863605        2.53443431061484
H           29.27335425064476        7.15646398422357        2.98854957833047
H           29.35685614289310        4.71974130739204        2.59940558196306
H           27.75147974463465        4.44135574721913        0.52628688572752
H           25.93147954468051        2.47701172034490        0.25565252861580
H           31.23685805846441        0.79778245144930        0.05067899528375
H           29.57769880239255       -4.84290321129263       -2.63692616405516
H           29.60765860887292       -7.28560442239191       -2.99228355199201
H           30.19849179468494      -10.56488146681829       -2.49640287085093
H           31.74061348674031       -7.79817445098091        0.68733567120494
H           31.70069194987731       -5.34463854862335        1.05279065931906
C           71.10222606873408        0.08003492923473        0.02267066158407
C           70.48368305281986        1.25726758613192        0.42281627542963
C           71.12458707277543        2.44930204010719        0.86290523731530
C           70.15440903738438        3.36729496876905        1.15059803537218
C           68.88938101929864        2.76883212635668        0.88467204830738
N           69.13863355893191        1.49534050592617        0.45926239074200
C           67.62126914008147        3.34037710916035        1.04008013266605
C           66.40967950649873        2.68708148571534        0.80041380552450
C           65.11016146257252        3.32634397980744        0.90679224013627
C           64.19457836127846        2.38337835165749        0.60336494511120
N           66.26214425582818        1.38880820107975        0.41877242441100
C           64.93584531374081        1.17335402735926        0.30392906817778
C           64.30502483776735       -0.03984706870102       -0.03959716835750
C           64.95000134810023       -1.24381429959364       -0.38080806127669
C           64.31630810577416       -2.47342121897267       -0.70201395351306
C           65.29113156681751       -3.38817858769273       -0.98923071563355
C           66.55160937486404       -2.74112274341392       -0.86050651886889
C           67.81877094423724       -3.30259648555143       -1.05174358213156
C           67.86470511635365       -4.71646262242689       -1.49268708760913
C           67.28433024091328       -5.10043282505583       -2.70474111387518
C           67.33899348061681       -6.41855856098575       -3.11854469593852
C           67.96940967455566       -7.37956722383275       -2.32581167798731
C           68.00207116039500       -8.77950352620725       -2.81220034771823
O           68.63548525613361       -9.62181666135597       -1.98193690490502
O           67.51526290155329       -9.15057799848265       -3.84998838132039
C           68.54603777320028       -7.00269630804863       -1.11242509540903
C           68.49492119499727       -5.68193420786160       -0.70289569449025
C           69.03173274101691       -2.63160100852730       -0.86052205549368
C           70.33931321737441       -3.21461379272498       -1.12087948164116
C           71.24768588954770       -2.26597558766242       -0.81761698798668
C           70.49637885841368       -1.10130090680875       -0.38354437875144
N           69.16521811078249       -1.35457959378224       -0.43216390903003
N           66.29360916345081       -1.45030566952408       -0.48184962471995
C           67.58136457850895        4.75041247897032        1.49580873068825
C           68.17465410410851        5.75830525765415        0.73120329497941
C           68.14406156247678        7.07489645833692        1.15650794814020
C           67.52213357366196        7.40427634974489        2.36120483185492
C           67.46828878620462        8.79775043811903        2.86408868366122
O           68.06722145298455        9.68429950819810        2.05438043352082
O           66.94495646326558        9.12829946932720        3.89768590561369
C           66.92859093124613        6.40038409430007        3.12896926300337
C           66.95561950320153        5.08653725101229        2.69937883467136
H           72.18740413263282        0.09422462772958        0.03140833867750
H           72.19220024267651        2.57306183715602        0.95007356833063
H           70.29652542047945        4.36882827433559        1.52288911724708
H           68.42008410731128        0.82380231577300        0.21042100329560
H           64.94364575573789        4.35969262413332        1.16427567125832
H           63.12076046194792        2.47426726357028        0.57032769746979
H           63.24965320687505       -2.62963397902861       -0.70483091185823
H           65.15296960673717       -4.42300532441911       -1.25682260209978
H           66.80804664157893       -4.35354611939803       -3.32977245149786
H           66.89758797578595       -6.72147416609965       -4.06169100903755
H           68.61364348853090      -10.51118807195766       -2.37093120059334
H           69.03252705530288       -7.74589014491197       -0.49181557038934
H           68.93231777395761       -5.39170196314825        0.24568860627716
H           70.51332911356840       -4.20955381328050       -1.49778482474841
H           72.32343708882458       -2.31620012330633       -0.87951790316439
H           67.00928195923247       -0.75487977447196       -0.29792588903059
H           68.64648893699692        5.50516556032013       -0.21161732850854
H           68.60167543240667        7.85127033828610        0.55483346637705
H           67.98776956980409       10.56639960707785        2.45234576084924
H           66.45031082316646        6.66713677187838        4.06501351600593
H           66.50596964500876        4.30671257172538        3.30335984840898
C           35.34395736580288        0.04672624164828       -0.04103883681556
C           36.56859373248145        0.06018033875478       -0.03159825669942
C           37.91154575392386        0.07177077861118       -0.01965871828891
C           39.14226315751221        0.08191411322826       -0.00507921110710
C           40.48039538466676        0.08946605750662        0.01032493354798
C           41.71124930248658        0.09605947055562        0.02429097396013
C           43.05398451488800        0.09995210476538        0.04036546282106
C           44.27881668403284        0.09946419639505        0.05827475681307
C           53.96432579201744       -0.01231273388346        0.05520212585481
C           55.18898708826030       -0.03627110765371        0.04124583256415
C           56.53161004742625       -0.05583062532919        0.02378285195555
C           57.76233931951706       -0.06797732135401        0.00502527301273
C           59.10049119679422       -0.07764011644443       -0.01122988810745
C           60.33124888430618       -0.08040826620036       -0.02649598341944
C           61.67431693760654       -0.07618591596888       -0.03683900234684
C           62.89897229667547       -0.06192535688095       -0.04190856815715
C           45.68384032944110        0.09665639487853        0.07097657732031
C           46.32213005803297        1.02754954183595       -0.77108061188721
C           45.68630375692794        1.94933126527539       -1.64238758117358
C           46.66074534469694        2.68045663776904       -2.26467684541557
C           47.92103346861293        2.23046022717644       -1.78416269567853
N           47.66557577694286        1.22447095105924       -0.89148102209765
C           49.18634917247967        2.69902982545622       -2.15872607462415
C           50.40845695256919        2.19739164847320       -1.70686939147675
C           51.69760758490963        2.75362713144558       -2.07868120949665
C           52.63108398115407        2.00301100674865       -1.45836217643347
N           50.57967909996524        1.14592596885018       -0.85975096454706
C           51.91096128459073        0.99786758868596       -0.70186459392490
C           52.55946843084073        0.01132468295127        0.06788995381445
C           51.92054614990137       -0.96203940959174        0.86002482591518
C           52.55473050041292       -1.97396802639617        1.62603528743605
C           51.58020748258112       -2.68946942556799        2.26632896325745
C           50.32182084240510       -2.12879886802607        1.91477216663925
C           49.05736150035663       -2.55302529731030        2.34155461609930
C           49.03421243677580       -3.67169869118072        3.31538790261972
C           48.41858676448964       -4.88265046501803        2.98804418548365
C           48.40091439857579       -5.92437256319962        3.89703252701398
C           48.99329578653879       -5.77322910328456        5.15225484149618
C           48.94614991965632       -6.91764125361423        6.09370427561290
O           49.54138381679279       -6.66962498235846        7.27020001846324
O           48.42992093233323       -7.97839473336956        5.84959877863016
C           49.60681501737786       -4.56521807527901        5.48499944592846
C           49.62885783271386       -3.52603536050023        4.57126790935185
C           47.83561706639473       -2.01646779998788        1.93120112420434
C           46.54797749181902       -2.45457997198826        2.44071056227487
C           45.61426478778159       -1.71887408312352        1.80319638998977
C           46.33303003403917       -0.82556988645056        0.91625083415906
N           47.66369935584436       -1.01782275042309        1.02235608564077
N           50.57793128961273       -1.09522030109872        1.05441273340380
C           49.21062611181164        3.82574692554421       -3.12303578802125
C           48.63346056240382        5.05439295717670       -2.79134113142343
C           48.65829873145461        6.10298718769771       -3.69229920102458
C           49.25511977838976        5.94111513097877       -4.94400768388476
C           49.25278907823564        7.09329031988386       -5.87708385449208
O           49.85290970422572        6.83619630231118       -7.04901787890939
O           48.76498459469811        8.16694449020190       -5.63057693746154
C           49.83051631913807        4.71557654250054       -5.28102682760990
C           49.80939097662696        3.66919396870360       -4.37566113956619
H           44.61958181080286        2.03231788115974       -1.77377648924607
H           46.52094665080698        3.45655700493661       -2.99921816588439
H           48.37837797951244        0.69823924577382       -0.39730945649707
H           51.84609575073939        3.61006102563344       -2.71607874925595
H           53.70419677763835        2.10360899969939       -1.48656283834200
H           53.62034691094074       -2.13023942295354        1.67202954647811
H           51.71833854127104       -3.53740584024463        2.91703115029200
H           47.96816681990802       -5.00546656508279        2.00973135977436
H           47.92980631718682       -6.86881625919896        3.64770971942740
H           49.46634717782150       -7.46239415438068        7.82582005664127
H           50.06412938019603       -4.44190182474088        6.45957468574615
H           50.09477575494391       -2.58314817780411        4.83481765066322
H           46.40084877145834       -3.21253362835989        3.19278565102446
H           44.54199488111144       -1.75077481931339        1.91131023582960
H           49.86609498598812       -0.51575460422023        0.62229530105212
H           48.18099615085064        5.18648383506470       -1.81504415887326
H           48.21771948407746        7.06104069598533       -3.43904942106149
H           49.80925330114960        7.63538220497917       -7.59875654869050
H           50.29180532815383        4.58448318072966       -6.25269156518556
H           50.24572760824161        2.71313996155979       -4.64188933394478

          :  Hamiltonian                  GFN1-xTB          :
         :: total energy            -377.148902751450 Eh    ::
         :: gradient norm              0.000421496292 Eh/a0 ::
         :: HOMO-LUMO gap              0.961564840877 eV    ::
         :: SCC energy              -383.094001622523 Eh    ::
         :: repulsion energy           6.114628148961 Eh    ::

    * Orbital Energies and Occupations

         #    Occupation            Energy/Eh            Energy/eV
      -------------------------------------------------------------
         1        2.0000           -0.8330434             -22.6683
       ...           ...                  ...                  ...
       321        2.0000           -0.4250320             -11.5657
       322        2.0000           -0.4246440             -11.5552
       323        2.0000           -0.4242516             -11.5445
       324        2.0000           -0.4226269             -11.5003
       325        2.0000           -0.4191939             -11.4068
       326        2.0000           -0.4177645             -11.3680
       327        2.0000           -0.4152936             -11.3007
       328        2.0000           -0.4091424             -11.1333
       329        2.0000           -0.4082966             -11.1103
       330        2.0000           -0.4078751             -11.0988
       331        2.0000           -0.3940705             -10.7232
       332        2.0000           -0.3917649             -10.6605
       333        2.0000           -0.3876442             -10.5483 (HOMO)
       334                         -0.3523073              -9.5868 (LUMO)
       335                         -0.3463341              -9.4242
       336                         -0.3443417              -9.3700
       337                         -0.3424095              -9.3174
       338                         -0.3420493              -9.3076
       339                         -0.3415571              -9.2942
       340                         -0.3219057              -8.7595
       341                         -0.3169072              -8.6235
       342                         -0.3165262              -8.6131
       343                         -0.3096016              -8.4247
       344                         -0.3094280              -8.4200
       ...                                ...                  ...
       692                          1.5967834              43.4507
      -------------------------------------------------------------
                  HL-Gap            0.0353369 Eh            0.9616 eV

Wiberg/Mayer (AO) data.
largest (>0.10) Wiberg bond orders for each atom

     #   Z sym  total        # sym  WBO       # sym  WBO       # sym  WBO
 ---------------------------------------------------------------------------
     1   6 C    3.927 --    31 C    1.367     2 C    1.347    43 H    0.971
     2   6 C    3.901 --     1 C    1.347     3 C    1.229     6 N    1.169
     3   6 C    3.954 --     4 C    1.596     2 C    1.229    44 H    0.976
     4   6 C    3.959 --     3 C    1.596     5 C    1.233    45 H    0.974
     5   6 C    3.897 --     7 C    1.301     4 C    1.233     6 N    1.179
     6   7 N    3.470 --     5 C    1.179     2 C    1.169    46 H    0.873
     7   6 C    3.938 --     8 C    1.334     5 C    1.301    34 C    1.032
     8   6 C    3.914 --     7 C    1.334    11 N    1.287     9 C    1.124
     9   6 C    3.966 --    10 C    1.711     8 C    1.124    47 H    0.973
    10   6 C    3.964 --     9 C    1.711    12 C    1.127    48 H    0.974
    11   7 N    3.022 --    12 C    1.343     8 C    1.287
    12   6 C    3.907 --    11 N    1.343    13 C    1.255    10 C    1.127
    13   6 C    3.938 --    12 C    1.255    14 C    1.252   127 C    1.190
    14   6 C    3.884 --    13 C    1.252    15 C    1.248    33 N    1.189
    15   6 C    3.959 --    16 C    1.584    14 C    1.248    49 H    0.975
    16   6 C    3.955 --    15 C    1.584    17 C    1.240    50 H    0.974
    17   6 C    3.898 --    18 C    1.309    16 C    1.240    33 N    1.166
    18   6 C    3.925 --    28 C    1.318    17 C    1.309    19 C    1.034
    19   6 C    3.986 --    27 C    1.385    20 C    1.384    18 C    1.034
    20   6 C    3.986 --    21 C    1.464    19 C    1.384    51 H    0.972
                            26 C    0.102
    21   6 C    3.990 --    20 C    1.464    22 C    1.385    52 H    0.968
                            27 C    0.102
    22   6 C    3.981 --    26 C    1.388    21 C    1.385    23 C    1.010
    23   6 C    3.836 --    25 O    1.689    24 O    1.088    22 C    1.010
    24   8 O    2.096 --    23 C    1.088    53 H    0.838    25 O    0.128
    25   8 O    1.957 --    23 C    1.689    24 O    0.128
    26   6 C    3.991 --    27 C    1.462    22 C    1.388    54 H    0.970
                            20 C    0.102
    27   6 C    3.987 --    26 C    1.462    19 C    1.385    55 H    0.972
                            21 C    0.102
    28   6 C    3.928 --    32 N    1.319    18 C    1.318    29 C    1.117
    29   6 C    3.967 --    30 C    1.724    28 C    1.117    56 H    0.973
    30   6 C    3.966 --    29 C    1.724    31 C    1.116    57 H    0.976
    31   6 C    3.928 --     1 C    1.367    32 N    1.299    30 C    1.116
    32   7 N    3.013 --    28 C    1.319    31 C    1.299
    33   7 N    3.474 --    14 C    1.189    17 C    1.166    58 H    0.873
    34   6 C    3.986 --    35 C    1.386    42 C    1.384     7 C    1.032
    35   6 C    3.987 --    36 C    1.462    34 C    1.386    59 H    0.972
                            41 C    0.102
    36   6 C    3.991 --    35 C    1.462    37 C    1.388    60 H    0.970
                            42 C    0.103
    37   6 C    3.982 --    36 C    1.388    41 C    1.385    38 C    1.009
    38   6 C    3.836 --    40 O    1.690    39 O    1.088    37 C    1.009
    39   8 O    2.096 --    38 C    1.088    61 H    0.838    40 O    0.128
    40   8 O    1.958 --    38 C    1.690    39 O    0.128
    41   6 C    3.990 --    42 C    1.464    37 C    1.385    62 H    0.968
                            35 C    0.102
    42   6 C    3.987 --    41 C    1.464    34 C    1.384    63 H    0.972
                            36 C    0.103
    43   1 H    1.002 --     1 C    0.971
    44   1 H    0.997 --     3 C    0.976
    45   1 H    1.004 --     4 C    0.974
    46   1 H    0.986 --     6 N    0.873
    47   1 H    1.004 --     9 C    0.973
    48   1 H    1.002 --    10 C    0.974
    49   1 H    1.001 --    15 C    0.975
    50   1 H    1.004 --    16 C    0.974
    51   1 H    1.004 --    20 C    0.972
    52   1 H    1.005 --    21 C    0.968
    53   1 H    0.873 --    24 O    0.838
    54   1 H    1.005 --    26 C    0.970
    55   1 H    1.004 --    27 C    0.972
    56   1 H    1.004 --    29 C    0.973
    57   1 H    0.998 --    30 C    0.976
    58   1 H    0.987 --    33 N    0.873
    59   1 H    1.004 --    35 C    0.972
    60   1 H    1.005 --    36 C    0.970
    61   1 H    0.873 --    39 O    0.838
    62   1 H    1.005 --    41 C    0.968
    63   1 H    1.004 --    42 C    0.972
    64   6 C    3.927 --    94 C    1.367    65 C    1.347   106 H    0.971
    65   6 C    3.901 --    64 C    1.347    66 C    1.229    69 N    1.169
    66   6 C    3.954 --    67 C    1.596    65 C    1.229   107 H    0.976
    67   6 C    3.959 --    66 C    1.596    68 C    1.233   108 H    0.974
    68   6 C    3.897 --    70 C    1.302    67 C    1.233    69 N    1.179
    69   7 N    3.470 --    68 C    1.179    65 C    1.169   109 H    0.873
    70   6 C    3.938 --    71 C    1.334    68 C    1.302    97 C    1.032
    71   6 C    3.914 --    70 C    1.334    74 N    1.287    72 C    1.124
    72   6 C    3.966 --    73 C    1.711    71 C    1.124   110 H    0.973
    73   6 C    3.964 --    72 C    1.711    75 C    1.127   111 H    0.974
    74   7 N    3.022 --    75 C    1.343    71 C    1.287
    75   6 C    3.907 --    74 N    1.343    76 C    1.255    73 C    1.127
    76   6 C    3.938 --    75 C    1.255    77 C    1.252   142 C    1.190
    77   6 C    3.884 --    76 C    1.252    78 C    1.248    96 N    1.188
    78   6 C    3.959 --    79 C    1.584    77 C    1.248   112 H    0.975
    79   6 C    3.955 --    78 C    1.584    80 C    1.240   113 H    0.974
    80   6 C    3.898 --    81 C    1.308    79 C    1.240    96 N    1.166
    81   6 C    3.925 --    91 C    1.318    80 C    1.308    82 C    1.034
    82   6 C    3.986 --    90 C    1.385    83 C    1.384    81 C    1.034
    83   6 C    3.986 --    84 C    1.465    82 C    1.384   114 H    0.972
                            89 C    0.102
    84   6 C    3.990 --    83 C    1.465    85 C    1.385   115 H    0.968
                            90 C    0.102
    85   6 C    3.981 --    89 C    1.388    84 C    1.385    86 C    1.010
    86   6 C    3.836 --    88 O    1.689    87 O    1.088    85 C    1.010
    87   8 O    2.096 --    86 C    1.088   116 H    0.838    88 O    0.128
    88   8 O    1.957 --    86 C    1.689    87 O    0.128
    89   6 C    3.991 --    90 C    1.462    85 C    1.388   117 H    0.970
                            83 C    0.102
    90   6 C    3.987 --    89 C    1.462    82 C    1.385   118 H    0.972
                            84 C    0.102
    91   6 C    3.928 --    95 N    1.319    81 C    1.318    92 C    1.117
    92   6 C    3.967 --    93 C    1.724    91 C    1.117   119 H    0.973
    93   6 C    3.966 --    92 C    1.724    94 C    1.116   120 H    0.976
    94   6 C    3.928 --    64 C    1.367    95 N    1.299    93 C    1.116
    95   7 N    3.013 --    91 C    1.319    94 C    1.299
    96   7 N    3.474 --    77 C    1.188    80 C    1.166   121 H    0.873
    97   6 C    3.986 --    98 C    1.386   105 C    1.384    70 C    1.032
    98   6 C    3.987 --    99 C    1.462    97 C    1.386   122 H    0.972
                           104 C    0.102
    99   6 C    3.991 --    98 C    1.462   100 C    1.388   123 H    0.970
                           105 C    0.102
   100   6 C    3.982 --    99 C    1.388   104 C    1.385   101 C    1.009
   101   6 C    3.836 --   103 O    1.690   102 O    1.088   100 C    1.009
   102   8 O    2.096 --   101 C    1.088   124 H    0.838   103 O    0.128
   103   8 O    1.958 --   101 C    1.690   102 O    0.128
   104   6 C    3.990 --   105 C    1.465   100 C    1.385   125 H    0.968
                            98 C    0.102
   105   6 C    3.987 --   104 C    1.465    97 C    1.384   126 H    0.972
                            99 C    0.102
   106   1 H    1.002 --    64 C    0.971
   107   1 H    0.997 --    66 C    0.976
   108   1 H    1.004 --    67 C    0.974
   109   1 H    0.986 --    69 N    0.873
   110   1 H    1.004 --    72 C    0.973
   111   1 H    1.002 --    73 C    0.974
   112   1 H    1.001 --    78 C    0.975
   113   1 H    1.004 --    79 C    0.974
   114   1 H    1.004 --    83 C    0.972
   115   1 H    1.005 --    84 C    0.968
   116   1 H    0.873 --    87 O    0.838
   117   1 H    1.005 --    89 C    0.970
   118   1 H    1.004 --    90 C    0.972
   119   1 H    1.004 --    92 C    0.973
   120   1 H    0.998 --    93 C    0.976
   121   1 H    0.987 --    96 N    0.873
   122   1 H    1.004 --    98 C    0.972
   123   1 H    1.005 --    99 C    0.970
   124   1 H    0.873 --   102 O    0.838
   125   1 H    1.005 --   104 C    0.968
   126   1 H    1.004 --   105 C    0.972
   127   6 C    3.877 --   128 C    2.440    13 C    1.190   130 C    0.186
   128   6 C    3.933 --   127 C    2.440   129 C    1.343
   129   6 C    3.891 --   130 C    2.336   128 C    1.343   132 C    0.182
   130   6 C    3.924 --   129 C    2.336   131 C    1.368   127 C    0.186
   131   6 C    3.922 --   132 C    2.335   130 C    1.368   134 C    0.186
   132   6 C    3.892 --   131 C    2.335   133 C    1.344   129 C    0.182
   133   6 C    3.929 --   134 C    2.437   132 C    1.344
   134   6 C    3.877 --   133 C    2.437   143 C    1.194   131 C    0.186
   135   6 C    3.877 --   136 C    2.437   155 C    1.193   138 C    0.186
   136   6 C    3.929 --   135 C    2.437   137 C    1.344
   137   6 C    3.892 --   138 C    2.335   136 C    1.344   140 C    0.182
   138   6 C    3.922 --   137 C    2.335   139 C    1.368   135 C    0.186
   139   6 C    3.924 --   140 C    2.336   138 C    1.368   142 C    0.186
   140   6 C    3.891 --   139 C    2.336   141 C    1.343   137 C    0.182
   141   6 C    3.933 --   142 C    2.440   140 C    1.343
   142   6 C    3.877 --   141 C    2.440    76 C    1.190   139 C    0.186
   143   6 C    3.927 --   173 C    1.254   144 C    1.248   134 C    1.194
   144   6 C    3.884 --   145 C    1.252   143 C    1.248   148 N    1.189
   145   6 C    3.956 --   146 C    1.579   144 C    1.252   185 H    0.975
   146   6 C    3.955 --   145 C    1.579   147 C    1.245   186 H    0.974
   147   6 C    3.893 --   149 C    1.299   146 C    1.245   148 N    1.168
   148   7 N    3.472 --   144 C    1.189   147 C    1.168   187 H    0.874
   149   6 C    3.927 --   150 C    1.336   147 C    1.299   176 C    1.030
   150   6 C    3.916 --   149 C    1.336   153 N    1.286   151 C    1.124
   151   6 C    3.966 --   152 C    1.711   150 C    1.124   188 H    0.973
   152   6 C    3.964 --   151 C    1.711   154 C    1.128   189 H    0.974
   153   7 N    3.010 --   154 C    1.343   150 C    1.286
   154   6 C    3.907 --   153 N    1.343   155 C    1.254   152 C    1.128
   155   6 C    3.927 --   154 C    1.254   156 C    1.248   135 C    1.193
   156   6 C    3.885 --   157 C    1.253   155 C    1.248   175 N    1.189
   157   6 C    3.956 --   158 C    1.578   156 C    1.253   190 H    0.975
   158   6 C    3.955 --   157 C    1.578   159 C    1.245   191 H    0.974
   159   6 C    3.893 --   160 C    1.299   158 C    1.245   175 N    1.168
   160   6 C    3.927 --   170 C    1.337   159 C    1.299   161 C    1.030
   161   6 C    3.986 --   169 C    1.387   162 C    1.385   160 C    1.030
   162   6 C    3.987 --   163 C    1.464   161 C    1.385   192 H    0.972
                           168 C    0.103
   163   6 C    3.990 --   162 C    1.464   164 C    1.385   193 H    0.968
                           169 C    0.103
   164   6 C    3.982 --   168 C    1.389   163 C    1.385   165 C    1.009
   165   6 C    3.836 --   167 O    1.690   166 O    1.088   164 C    1.009
   166   8 O    2.096 --   165 C    1.088   194 H    0.838   167 O    0.129
   167   8 O    1.958 --   165 C    1.690   166 O    0.129
   168   6 C    3.991 --   169 C    1.461   164 C    1.389   195 H    0.969
                           162 C    0.103
   169   6 C    3.987 --   168 C    1.461   161 C    1.387   196 H    0.972
                           163 C    0.103
   170   6 C    3.916 --   160 C    1.337   174 N    1.285   171 C    1.124
   171   6 C    3.966 --   172 C    1.711   170 C    1.124   197 H    0.973
   172   6 C    3.964 --   171 C    1.711   173 C    1.128   198 H    0.974
   173   6 C    3.907 --   174 N    1.343   143 C    1.254   172 C    1.128
   174   7 N    3.010 --   173 C    1.343   170 C    1.285
   175   7 N    3.472 --   156 C    1.189   159 C    1.168   199 H    0.874
   176   6 C    3.986 --   184 C    1.386   177 C    1.385   149 C    1.030
   177   6 C    3.986 --   178 C    1.464   176 C    1.385   200 H    0.972
                           183 C    0.102
   178   6 C    3.990 --   177 C    1.464   179 C    1.385   201 H    0.968
                           184 C    0.103
   179   6 C    3.982 --   183 C    1.389   178 C    1.385   180 C    1.009
   180   6 C    3.836 --   182 O    1.690   181 O    1.088   179 C    1.009
   181   8 O    2.097 --   180 C    1.088   202 H    0.838   182 O    0.129
   182   8 O    1.958 --   180 C    1.690   181 O    0.129
   183   6 C    3.991 --   184 C    1.461   179 C    1.389   203 H    0.969
                           177 C    0.102
   184   6 C    3.987 --   183 C    1.461   176 C    1.386   204 H    0.972
                           178 C    0.103
   185   1 H    1.001 --   145 C    0.975
   186   1 H    1.004 --   146 C    0.974
   187   1 H    0.987 --   148 N    0.874
   188   1 H    1.004 --   151 C    0.973
   189   1 H    1.002 --   152 C    0.974
   190   1 H    1.001 --   157 C    0.975
   191   1 H    1.004 --   158 C    0.974
   192   1 H    1.004 --   162 C    0.972
   193   1 H    1.005 --   163 C    0.968
   194   1 H    0.873 --   166 O    0.838
   195   1 H    1.005 --   168 C    0.969
   196   1 H    1.004 --   169 C    0.972
   197   1 H    1.004 --   171 C    0.973
   198   1 H    1.002 --   172 C    0.974
   199   1 H    0.987 --   175 N    0.874
   200   1 H    1.004 --   177 C    0.972
   201   1 H    1.005 --   178 C    0.968
   202   1 H    0.873 --   181 O    0.838
   203   1 H    1.005 --   183 C    0.969
   204   1 H    1.004 --   184 C    0.972
 ---------------------------------------------------------------------------

           -------------------------------------------------
          | TOTAL ENERGY             -377.148902751450 Eh   |
          | GRADIENT NORM               0.000421496292 Eh/α |
          | HOMO-LUMO GAP               0.961564840877 eV   |
           -------------------------------------------------

 * finished run on 2022/07/30 at 21:57:42.975
