   * xtb version 6.5.1 (b24c23e) compiled by 'conda@728c89f4b128' on 2022-07-12
          program call               : xtb Ni_BSA_C8_2.xyz --gfn 1 --opt -T 48

   ID    Z sym.   atoms
    1   28 Ni     1, 65
    2    6 C      2-6, 8-12, 17-21, 23-28, 30-34, 39-44, 66-70, 72-76, 81-85,
                  87-92, 94-98, 103-108, 129-136
    3    7 N      7, 22, 29, 45, 71, 86, 93, 109
    4   16 S      13, 35, 77, 99
    5    8 O      14-16, 36-38, 78-80, 100-102
    6    1 H      46-64, 110-128
########################################################################
[WARNING] Please study the warnings concerning your input carefully
-1- prog_main_parseArguments: Unknown option '-T' provided
########################################################################

          :  Hamiltonian                  GFN1-xTB          :
 * total energy  :  -276.7016941 Eh     change       -0.2489230E-08 Eh
 * total energy  :  -276.9436530 Eh     change       -0.2419590E+00 Eh
 * total energy  :  -277.0390146 Eh     change       -0.9536160E-01 Eh
 * total energy  :  -277.0718586 Eh     change       -0.3284400E-01 Eh
 * total energy  :  -277.0877571 Eh     change       -0.1589845E-01 Eh
 * total energy  :  -277.0972434 Eh     change       -0.9486307E-02 Eh
 * total energy  :  -277.1031383 Eh     change       -0.5894894E-02 Eh
 * total energy  :  -277.1074049 Eh     change       -0.4266649E-02 Eh
 * total energy  :  -277.1105876 Eh     change       -0.3182625E-02 Eh
 * total energy  :  -277.1132667 Eh     change       -0.2679109E-02 Eh
 * total energy  :  -277.1216528 Eh     change        0.1599543E-05 Eh
 * total energy  :  -277.1216631 Eh     change       -0.1022722E-04 Eh
 * total energy  :  -277.1216638 Eh     change       -0.7650648E-06 Eh
 * total energy  :  -277.1216778 Eh     change       -0.1394841E-04 Eh
 * total energy  :  -277.1216941 Eh     change       -0.1628088E-04 Eh
 * total energy  :  -277.1217058 Eh     change       -0.1169251E-04 Eh
 * total energy  :  -277.1217149 Eh     change       -0.9121288E-05 Eh
 * total energy  :  -277.1217267 Eh     change       -0.1185564E-04 Eh
 * total energy  :  -277.1217310 Eh     change       -0.4228398E-05 Eh
   *** GEOMETRY OPTIMIZATION CONVERGED AFTER 57 ITERATIONS ***

 final structure:
================
136
 xtb: 6.5.1 (b24c23e)
Ni          14.46132635171982        0.03194606260587        0.04099785699605
C           11.07148415216106        0.14114676150946        0.08452040588942
C           11.72036198588780       -0.30552401030407        1.21676736803351
C           11.04212283781863       -0.75400518013435        2.39461663521968
C           11.99694649853361       -1.00778930270840        3.31960660443412
C           13.25776081634501       -0.70156053226777        2.70884241011274
N           13.07989584030035       -0.31063596266861        1.40579472622331
C           14.47555887410403       -0.74596942792881        3.37519644583236
C           14.48433333590245       -1.08591949092046        4.81773877763536
C           13.83060883486450       -0.26462576954127        5.73951771635898
C           13.84001632059083       -0.57650912846700        7.08909122474610
C           14.50353110635317       -1.72031949403417        7.50245363438343
S           14.52574842584505       -2.11757730680290        9.20984541750530
O           14.30687391894214       -0.94718432715582       10.00737665382838
O           13.17897793063571       -3.02496966962914        9.25726961908981
O           15.64204483787346       -2.96030090696440        9.52342729545691
C           15.16147647243523       -2.55362736595990        6.61247841138166
C           15.15069056472276       -2.22900763842401        5.26597717194452
C           15.68635502435449       -0.48254520976524        2.74819106615473
C           16.94721417631105       -0.45735633147753        3.42587411435670
C           17.89562872872282       -0.25975443169729        2.47902868736956
N           15.85868496886591       -0.25750541855564        1.40158203970503
C           17.21200107648971       -0.15771458054305        1.22916708282531
C           17.87220126136273       -0.05823160835114        0.00117432224390
C           17.18949660242163        0.06775350592479       -1.21201906475302
C           17.84747298708464        0.12329668403202       -2.47826052954177
C           16.88821819291087        0.36202347354169       -3.40467779688485
C           15.64740541512457        0.46270605631213       -2.69761251156600
N           15.83949318997086        0.23717294968250       -1.35368103014337
C           14.43976834965699        0.79864595219030       -3.29594409596985
C           14.43280242677967        1.13667389519564       -4.73873569324826
C           13.68666932071516        0.37268709415209       -5.63937697790794
C           13.67385048458728        0.68907464071486       -6.98799288701842
C           14.41290118364309        1.77710218805144       -7.42267564850511
S           14.38843245260308        2.19336327555574       -9.12697611188304
O           14.71030923517187        3.57687332546106       -9.32511207004713
O           15.67181456839797        1.32537518835240       -9.61545978690907
O           13.21190291784180        1.66424690338742       -9.74807188727401
C           15.15997731473366        2.55547754820752       -6.55356417659465
C           15.16812588948193        2.22824683700412       -5.20770759679763
C           13.23941756934633        0.83625701921355       -2.59778688422825
C           11.98605533695172        1.22657627720559       -3.17529218745262
C           11.04120473296045        1.03709536120732       -2.22510172083519
C           11.71878299541609        0.54413517759067       -1.06482960005868
N           13.07030082832060        0.45895370440321       -1.28947166799467
H            9.98852494964619        0.17711066380585        0.09886109263601
H            9.97222171746454       -0.85487476306763        2.48279442859827
H           11.87234407953656       -1.37185285861014        4.32645576680284
H           13.32724848551783        0.63146255468477        5.39582069632319
H           13.34684063346035        0.05882446438510        7.81399224017869
H           13.04178569998916       -3.37118458628549       10.14750261129331
H           15.67487265681402       -3.43683220120156        6.97124034746889
H           15.65169160699817       -2.87154972174498        4.55140505160959
H           17.07920965522065       -0.57077448200791        4.48942078919342
H           18.96442254812179       -0.18975563617650        2.60028409764090
H           18.90787876830864       -0.00537162221844       -2.62317550028299
H           17.00014110833848        0.45777234163848       -4.47227030472592
H           13.12398639808597       -0.48101797414772       -5.28010955836129
H           13.09747863097073        0.10516013821160       -7.69446433650496
H           16.03189887943246        1.69935551485918      -10.42858678408961
H           15.71702317347548        3.40625307102136       -6.92543422601359
H           15.73511830893729        2.83206017524224       -4.50885132180340
H           11.85910851683324        1.59982473499504       -4.17842436783866
H            9.97848708177408        1.20922303222033       -2.28520589007163
Ni          33.02416695338827        0.04448047663566       -0.02790622106191
C           36.41403440560273        0.16221012913659       -0.02845602023015
C           35.76491232812526        0.16600814207894       -1.24548371715789
C           36.44299925768953        0.18527451789286       -2.50574781171902
C           35.48806229264770        0.29186028053685       -3.45885752353498
C           34.22728538331291        0.35006605070157       -2.77801504432744
N           34.40533274759130        0.23111786958055       -1.42284011712355
C           33.00929237189452        0.55409497544569       -3.41365464096637
C           33.00073891539698        0.77190686585364       -4.87959952480897
C           33.65490390602921        1.87576250830053       -5.43203929496009
C           33.64676451607095        2.08475479220248       -6.80133142107392
C           32.98392491530306        1.17476675764990       -7.60878667124125
S           32.96397436926152        1.43617815269973       -9.34220924625452
O           33.18582288564037        2.81792440828225       -9.65094514671561
O           34.30949629267779        0.60779592131094       -9.72002625376600
O           31.84703985618360        0.77091949825154       -9.94598329331283
C           32.32508091113889        0.07182169361285       -7.09032807899295
C           32.33472752565351       -0.12427850577594       -5.71919405898388
C           31.79839117108783        0.56506117324262       -2.73383071490350
C           30.53709254832795        0.83685928341028       -3.35425913046625
C           29.58893003530786        0.66933240208688       -2.40139502096014
N           31.62644723935197        0.27645632402555       -1.39930405534966
C           30.27313937726663        0.30371797404443       -1.20215176440648
C           29.61334968587506       -0.05734006155195       -0.02399634964249
C           30.29638798345744       -0.38717640944169        1.15007925757613
C           29.63888115500023       -0.80316597811018        2.34757530577051
C           30.59832391468311       -0.92223008258573        3.29662010539916
C           31.83878661110873       -0.56691777528838        2.67638276395668
N           31.64637004346059       -0.28092932249154        1.34408696920188
C           33.04636151360567       -0.47459153144747        3.35643497093564
C           33.05312555647696       -0.69256828506483        4.82223005075334
C           33.79769554432681       -1.73592623646195        5.37762633080565
C           33.80908631103388       -1.93999298780875        6.74777821444067
C           33.07038238265475       -1.08853400626917        7.55293900977816
S           33.09265947506947       -1.33187303697020        9.29036824692770
O           32.77146773340338       -0.11902273751617        9.98541351208622
O           31.80808098833095       -2.31725301793489        9.42271232593253
O           34.26789240493088       -2.05461944271579        9.67300756706048
C           32.32550791317986       -0.04289229499709        7.03217029435765
C           32.31861265577202        0.14992893062260        5.66059487774744
C           34.24659354182831       -0.18188519867759        2.72137826656721
C           35.50007655117832       -0.03255505590290        3.40199996900582
C           36.44481763548122        0.14178245546891        2.44880975934530
C           35.76701375845203        0.11212733433510        1.18861121323192
N           34.41551421940871       -0.04972900735410        1.36614147703420
H           37.49700221187794        0.20073744761270       -0.02873182964236
H           37.51288217820752        0.12421378169715       -2.62515207047644
H           35.61257652394977        0.32621954594099       -4.52896043885853
H           34.15777409857039        2.58135495579212       -4.78108927457845
H           34.14054203698915        2.94290803602663       -7.23963779258198
H           34.44691716671019        0.61374864414351      -10.67516441387296
H           31.81201832052445       -0.61610319569609       -7.75052930628542
H           31.83325559389745       -0.98540997738671       -5.29321903875200
H           30.40458330442353        1.12400886171979       -4.38450774307694
H           28.51996936931006        0.77753906683763       -2.48821484622933
H           28.57861228636881       -0.97700872278635        2.43491084438687
H           30.48682605264339       -1.22718130031992        4.32424488312535
H           34.36014976396289       -2.39727421184443        4.72897214796284
H           34.38400940164796       -2.74437928169226        7.18900721144385
H           31.44589236466989       -2.26745917577699       10.31543150634581
H           31.76912053989016        0.61125659429777        7.69166821971604
H           31.75308616446238        0.96989529750635        5.23360790376187
H           35.62715850238791       -0.05606418904868        4.47205102026995
H           37.50759233984227        0.27932599023151        2.56798709759757
C           19.27646502495322       -0.08399219195446       -0.01265347468999
C           20.50046168470140       -0.09630422019887       -0.01576220310128
C           21.84339950291811       -0.10912254540184       -0.02093751066461
C           23.07366632790093       -0.11236936969099       -0.01997802083678
C           24.41186848544041       -0.11488651690492       -0.02057615658114
C           25.64213260601952       -0.11051884212631       -0.02042236142793
C           26.98509433865215       -0.09926925184847       -0.02057640490025
C           28.20907679147134       -0.08647380447269       -0.02002590812040

          :  Hamiltonian                  GFN1-xTB          :
         :: total energy            -277.121730967890 Eh    ::
         :: gradient norm              0.000997589653 Eh/a0 ::
         :: HOMO-LUMO gap              1.229844136859 eV    ::
         :: SCC energy              -280.898657552593 Eh    ::
         :: repulsion energy           3.899931650419 Eh    ::

    * Orbital Energies and Occupations

         #    Occupation            Energy/Eh            Energy/eV
      -------------------------------------------------------------
         1        2.0000           -1.0367160             -28.2105
       ...           ...                  ...                  ...
       229        2.0000           -0.4231459             -11.5144
       230        2.0000           -0.4157286             -11.3125
       231        2.0000           -0.4157259             -11.3125
       232        2.0000           -0.4153518             -11.3023
       233        2.0000           -0.4153487             -11.3022
       234        2.0000           -0.4144680             -11.2782
       235        2.0000           -0.4144646             -11.2782
       236        2.0000           -0.4133861             -11.2488
       237        2.0000           -0.4133821             -11.2487
       238        2.0000           -0.4132900             -11.2462
       239        2.0000           -0.4132857             -11.2461
       240        2.0000           -0.4112805             -11.1915
       241        2.0000           -0.4018221             -10.9341 (HOMO)
       242                         -0.3566261              -9.7043 (LUMO)
       243                         -0.3488865              -9.4937
       244                         -0.3488845              -9.4936
       245                         -0.3467808              -9.4364
       246                         -0.3452907              -9.3958
       247                         -0.3452631              -9.3951
       248                         -0.3227376              -8.7821
       249                         -0.3191751              -8.6852
       250                         -0.3147319              -8.5643
       251                         -0.3101792              -8.4404
       252                         -0.3101294              -8.4391
       ...                                ...                  ...
       498                          1.5924785              43.3335
      -------------------------------------------------------------
                  HL-Gap            0.0451959 Eh            1.2298 eV

Wiberg/Mayer (AO) data.
largest (>0.10) Wiberg bond orders for each atom

     #   Z sym  total        # sym  WBO       # sym  WBO       # sym  WBO
 ---------------------------------------------------------------------------
     1  28 Ni   3.013 --    45 N    0.664     7 N    0.664    29 N    0.660
                            22 N    0.660
     2   6 C    3.936 --    44 C    1.365     3 C    1.364    46 H    0.970
     3   6 C    3.921 --     2 C    1.364     7 N    1.212     4 C    1.174
     4   6 C    3.960 --     5 C    1.651     3 C    1.174    47 H    0.975
     5   6 C    3.963 --     4 C    1.651     6 C    1.175    48 H    0.973
     6   6 C    3.921 --     8 C    1.322     7 N    1.222     5 C    1.175
     7   7 N    3.401 --     6 C    1.222     3 C    1.212     1 Ni   0.664
     8   6 C    3.938 --    19 C    1.326     6 C    1.322     9 C    1.028
     9   6 C    3.986 --    10 C    1.391    18 C    1.391     8 C    1.028
    10   6 C    3.987 --    11 C    1.450     9 C    1.391    49 H    0.971
                            17 C    0.106
    11   6 C    3.989 --    10 C    1.450    12 C    1.407    50 H    0.967
                            18 C    0.106
    12   6 C    3.931 --    11 C    1.407    17 C    1.407    13 S    0.754
    13  16 S    5.264 --    14 O    1.720    16 O    1.719    15 O    1.012
                            12 C    0.754
    14   8 O    2.079 --    13 S    1.720    16 O    0.139
    15   8 O    2.087 --    13 S    1.012    51 H    0.828
    16   8 O    2.077 --    13 S    1.719    14 O    0.139
    17   6 C    3.989 --    18 C    1.450    12 C    1.407    52 H    0.967
                            10 C    0.106
    18   6 C    3.987 --    17 C    1.450     9 C    1.391    53 H    0.971
                            11 C    0.106
    19   6 C    3.915 --     8 C    1.326    22 N    1.207    20 C    1.183
    20   6 C    3.958 --    21 C    1.636    19 C    1.183    54 H    0.973
    21   6 C    3.961 --    20 C    1.636    23 C    1.191    55 H    0.973
    22   7 N    3.406 --    23 C    1.237    19 C    1.207     1 Ni   0.660
    23   6 C    3.901 --    24 C    1.263    22 N    1.237    21 C    1.191
    24   6 C    3.946 --    23 C    1.263    25 C    1.263   129 C    1.186
    25   6 C    3.901 --    24 C    1.263    29 N    1.237    26 C    1.191
    26   6 C    3.961 --    27 C    1.636    25 C    1.191    56 H    0.973
    27   6 C    3.958 --    26 C    1.636    28 C    1.183    57 H    0.973
    28   6 C    3.915 --    30 C    1.326    29 N    1.207    27 C    1.183
    29   7 N    3.406 --    25 C    1.237    28 C    1.207     1 Ni   0.660
    30   6 C    3.938 --    28 C    1.326    41 C    1.322    31 C    1.029
    31   6 C    3.986 --    32 C    1.391    40 C    1.390    30 C    1.029
    32   6 C    3.987 --    33 C    1.449    31 C    1.391    58 H    0.971
                            39 C    0.106
    33   6 C    3.989 --    32 C    1.449    34 C    1.408    59 H    0.966
                            40 C    0.106
    34   6 C    3.931 --    33 C    1.408    39 C    1.407    35 S    0.753
    35  16 S    5.268 --    38 O    1.730    36 O    1.712    37 O    1.015
                            34 C    0.753
    36   8 O    2.071 --    35 S    1.712    38 O    0.138
    37   8 O    2.089 --    35 S    1.015    60 H    0.828
    38   8 O    2.088 --    35 S    1.730    36 O    0.138
    39   6 C    3.989 --    40 C    1.450    34 C    1.407    61 H    0.967
                            32 C    0.106
    40   6 C    3.987 --    39 C    1.450    31 C    1.390    62 H    0.971
                            33 C    0.106
    41   6 C    3.921 --    30 C    1.322    45 N    1.222    42 C    1.175
    42   6 C    3.963 --    43 C    1.651    41 C    1.175    63 H    0.972
    43   6 C    3.960 --    42 C    1.651    44 C    1.174    64 H    0.974
    44   6 C    3.921 --     2 C    1.365    45 N    1.212    43 C    1.174
    45   7 N    3.402 --    41 C    1.222    44 C    1.212     1 Ni   0.664
    46   1 H    1.000 --     2 C    0.970
    47   1 H    0.997 --     4 C    0.975
    48   1 H    1.003 --     5 C    0.973
    49   1 H    1.003 --    10 C    0.971
    50   1 H    0.999 --    11 C    0.967
    51   1 H    0.854 --    15 O    0.828
    52   1 H    0.999 --    17 C    0.967
    53   1 H    1.003 --    18 C    0.971
    54   1 H    1.003 --    20 C    0.973
    55   1 H    1.001 --    21 C    0.973
    56   1 H    1.001 --    26 C    0.973
    57   1 H    1.003 --    27 C    0.973
    58   1 H    1.003 --    32 C    0.971
    59   1 H    0.999 --    33 C    0.966
    60   1 H    0.855 --    37 O    0.828
    61   1 H    1.000 --    39 C    0.967
    62   1 H    1.003 --    40 C    0.971
    63   1 H    1.003 --    42 C    0.972
    64   1 H    0.997 --    43 C    0.974
    65  28 Ni   3.013 --   109 N    0.664    71 N    0.664    93 N    0.660
                            86 N    0.660
    66   6 C    3.936 --   108 C    1.365    67 C    1.364   110 H    0.970
    67   6 C    3.921 --    66 C    1.364    71 N    1.212    68 C    1.174
    68   6 C    3.960 --    69 C    1.651    67 C    1.174   111 H    0.975
    69   6 C    3.963 --    68 C    1.651    70 C    1.175   112 H    0.973
    70   6 C    3.921 --    72 C    1.322    71 N    1.222    69 C    1.175
    71   7 N    3.401 --    70 C    1.222    67 C    1.212    65 Ni   0.664
    72   6 C    3.938 --    83 C    1.326    70 C    1.322    73 C    1.028
    73   6 C    3.986 --    74 C    1.391    82 C    1.391    72 C    1.028
    74   6 C    3.987 --    75 C    1.450    73 C    1.391   113 H    0.971
                            81 C    0.106
    75   6 C    3.989 --    74 C    1.450    76 C    1.407   114 H    0.967
                            82 C    0.106
    76   6 C    3.931 --    75 C    1.407    81 C    1.407    77 S    0.754
    77  16 S    5.264 --    78 O    1.721    80 O    1.719    79 O    1.012
                            76 C    0.754
    78   8 O    2.079 --    77 S    1.721    80 O    0.139
    79   8 O    2.087 --    77 S    1.012   115 H    0.828
    80   8 O    2.077 --    77 S    1.719    78 O    0.139
    81   6 C    3.989 --    82 C    1.450    76 C    1.407   116 H    0.967
                            74 C    0.106
    82   6 C    3.987 --    81 C    1.450    73 C    1.391   117 H    0.971
                            75 C    0.106
    83   6 C    3.915 --    72 C    1.326    86 N    1.207    84 C    1.183
    84   6 C    3.958 --    85 C    1.637    83 C    1.183   118 H    0.973
    85   6 C    3.961 --    84 C    1.637    87 C    1.191   119 H    0.973
    86   7 N    3.406 --    87 C    1.237    83 C    1.207    65 Ni   0.660
    87   6 C    3.901 --    88 C    1.263    86 N    1.237    85 C    1.191
    88   6 C    3.946 --    87 C    1.263    89 C    1.263   136 C    1.186
    89   6 C    3.901 --    88 C    1.263    93 N    1.237    90 C    1.191
    90   6 C    3.961 --    91 C    1.636    89 C    1.191   120 H    0.973
    91   6 C    3.958 --    90 C    1.636    92 C    1.183   121 H    0.973
    92   6 C    3.915 --    94 C    1.326    93 N    1.208    91 C    1.183
    93   7 N    3.406 --    89 C    1.237    92 C    1.208    65 Ni   0.660
    94   6 C    3.938 --    92 C    1.326   105 C    1.322    95 C    1.029
    95   6 C    3.986 --    96 C    1.391   104 C    1.390    94 C    1.029
    96   6 C    3.987 --    97 C    1.449    95 C    1.391   122 H    0.971
                           103 C    0.106
    97   6 C    3.989 --    96 C    1.449    98 C    1.408   123 H    0.966
                           104 C    0.106
    98   6 C    3.931 --    97 C    1.408   103 C    1.407    99 S    0.753
    99  16 S    5.268 --   102 O    1.730   100 O    1.712   101 O    1.015
                            98 C    0.753
   100   8 O    2.071 --    99 S    1.712   102 O    0.138
   101   8 O    2.089 --    99 S    1.015   124 H    0.828
   102   8 O    2.088 --    99 S    1.730   100 O    0.138
   103   6 C    3.989 --   104 C    1.450    98 C    1.407   125 H    0.967
                            96 C    0.106
   104   6 C    3.987 --   103 C    1.450    95 C    1.390   126 H    0.971
                            97 C    0.106
   105   6 C    3.921 --    94 C    1.322   109 N    1.222   106 C    1.175
   106   6 C    3.963 --   107 C    1.651   105 C    1.175   127 H    0.972
   107   6 C    3.960 --   106 C    1.651   108 C    1.174   128 H    0.974
   108   6 C    3.921 --    66 C    1.365   109 N    1.212   107 C    1.174
   109   7 N    3.401 --   105 C    1.222   108 C    1.212    65 Ni   0.664
   110   1 H    1.000 --    66 C    0.970
   111   1 H    0.997 --    68 C    0.975
   112   1 H    1.003 --    69 C    0.973
   113   1 H    1.003 --    74 C    0.971
   114   1 H    0.999 --    75 C    0.967
   115   1 H    0.854 --    79 O    0.828
   116   1 H    0.999 --    81 C    0.967
   117   1 H    1.003 --    82 C    0.971
   118   1 H    1.003 --    84 C    0.973
   119   1 H    1.001 --    85 C    0.973
   120   1 H    1.001 --    90 C    0.973
   121   1 H    1.003 --    91 C    0.973
   122   1 H    1.003 --    96 C    0.971
   123   1 H    0.999 --    97 C    0.966
   124   1 H    0.855 --   101 O    0.828
   125   1 H    1.000 --   103 C    0.967
   126   1 H    1.003 --   104 C    0.971
   127   1 H    1.003 --   106 C    0.972
   128   1 H    0.997 --   107 C    0.974
   129   6 C    3.879 --   130 C    2.446    24 C    1.186   132 C    0.187
   130   6 C    3.938 --   129 C    2.446   131 C    1.341
   131   6 C    3.895 --   132 C    2.341   130 C    1.341   134 C    0.183
   132   6 C    3.928 --   131 C    2.341   133 C    1.366   129 C    0.187
   133   6 C    3.928 --   134 C    2.341   132 C    1.366   136 C    0.187
   134   6 C    3.895 --   133 C    2.341   135 C    1.341   131 C    0.183
   135   6 C    3.938 --   136 C    2.446   134 C    1.341
   136   6 C    3.879 --   135 C    2.446    88 C    1.186   133 C    0.187
 ---------------------------------------------------------------------------

           -------------------------------------------------
          | TOTAL ENERGY             -277.121730967890 Eh   |
          | GRADIENT NORM               0.000997589653 Eh/α |
          | HOMO-LUMO GAP               1.229844136859 eV   |
           -------------------------------------------------

 * finished run on 2022/07/30 at 11:15:04.101
