   * xtb version 6.5.1 (b24c23e) compiled by 'conda@728c89f4b128' on 2022-07-12
          program call               : xtb Fe_m-CP_C6_3.xyz --gfn 1 --opt -T 48

   ID    Z sym.   atoms
    1   26 Fe     1, 63, 137
    2    6 C      2-6, 8-12, 15-20, 22-27, 29-35, 38-42, 64-68, 70-74, 77-82,
                  84-89, 91-97, 100-104, 125-136, 138-142, 144-148, 151-156,
                  158-163, 165-171, 174-178
    3    7 N      7, 21, 28, 43, 69, 83, 90, 105, 143, 157, 164, 179
    4    8 O      13, 14, 36, 37, 75, 76, 98, 99, 149, 150, 172, 173
    5    1 H      44-62, 106-124, 180-197
########################################################################
[WARNING] Please study the warnings concerning your input carefully
-1- prog_main_parseArguments: Unknown option '-T' provided
########################################################################

          :  Hamiltonian                  GFN1-xTB          :
 * total energy  :  -373.8613951 Eh     change       -0.5563265E-08 Eh
 * total energy  :  -374.1016201 Eh     change       -0.2402251E+00 Eh
 * total energy  :  -374.2554025 Eh     change       -0.1537824E+00 Eh
 * total energy  :  -374.3331732 Eh     change       -0.7777068E-01 Eh
 * total energy  :  -374.3893405 Eh     change       -0.5616730E-01 Eh
 * total energy  :  -374.4290424 Eh     change       -0.3970186E-01 Eh
 * total energy  :  -374.4581777 Eh     change       -0.2913536E-01 Eh
 * total energy  :  -374.4812559 Eh     change       -0.2307821E-01 Eh
 * total energy  :  -374.5013775 Eh     change       -0.2012152E-01 Eh
 * total energy  :  -374.5238710 Eh     change       -0.2249358E-01 Eh
 * total energy  :  -374.6846029 Eh     change       -0.5655374E-06 Eh
 * total energy  :  -374.6846013 Eh     change        0.1605708E-05 Eh
 * total energy  :  -374.6846223 Eh     change       -0.2100626E-04 Eh
 * total energy  :  -374.6845425 Eh     change        0.7977841E-04 Eh
 * total energy  :  -374.6846233 Eh     change       -0.8073114E-04 Eh
 * total energy  :  -374.6846252 Eh     change       -0.1972876E-05 Eh
 * total energy  :  -374.6846073 Eh     change        0.1790203E-04 Eh
 * total energy  :  -374.6846431 Eh     change       -0.3578692E-04 Eh
 * total energy  :  -374.6846473 Eh     change       -0.4152775E-05 Eh
   *** GEOMETRY OPTIMIZATION CONVERGED AFTER 102 ITERATIONS ***

 final structure:
================
197
 xtb: 6.5.1 (b24c23e)
Fe          29.19929950568013        0.06362332278945       -0.23198521173546
C           25.81633238115820        0.10098534708267       -0.12493873749926
C           26.47475375197458        1.31357691436947       -0.14475284512309
C           25.81134364819444        2.58245587100925       -0.16336733879856
C           26.77676078637167        3.52698127822109       -0.06957874166238
C           28.02853042534199        2.83229570833495        0.02643207717131
N           27.83274062452961        1.48137270846184       -0.07180084917523
C           29.25075756741579        3.45056743481815        0.26928268417108
C           29.28011111559180        4.91927054762390        0.46494307864405
C           28.56768645317845        5.51422249188777        1.50222365661880
C           28.60007091106246        6.89688622297103        1.67951513868807
C           27.82050707914236        7.47237486625553        2.80455492739195
O           27.92571390872256        8.80553147457228        2.90226570061482
O           27.14982237681926        6.82583072761427        3.56773243292047
C           29.34646917321173        7.69603345924447        0.81367775606179
C           30.05596466539460        7.10592102371642       -0.22050743234925
C           30.02652072202580        5.72960741326041       -0.39430760320959
C           30.44667636594647        2.74951046038899        0.34149481471542
C           31.70786315169735        3.34165879244031        0.67605752581294
C           32.64460217416962        2.37277560638631        0.53406880667751
N           30.61054200994129        1.41717387981123        0.04740456777072
C           31.95312388249511        1.19289732593189        0.11818155777355
C           32.60395603724094        0.01578190660948       -0.27399648154868
C           31.91321414044431       -1.13904452230742       -0.66337701469438
C           32.56156968430271       -2.32768763989154       -1.12136894324455
C           31.59220966081216       -3.26071985267458       -1.28282175054999
C           30.35537102813749       -2.64078113272200       -0.90907448403286
N           30.56560849524441       -1.32311234359585       -0.57855705372105
C           29.14204186108445       -3.30888114634551       -0.82401058211277
C           29.11411587765174       -4.76748697571010       -1.08615559536044
C           29.85821353754508       -5.64406468431346       -0.29326416324355
C           29.83220395146483       -7.01057262340840       -0.53474694358846
C           29.06741995560319       -7.51815179746026       -1.57166311697261
C           28.32025023634931       -6.65212354234070       -2.37156855236180
C           27.51405362720095       -7.23516190665795       -3.47348739863746
O           26.82349061705003       -6.32377993296794       -4.17382137867162
O           27.46735255476052       -8.41046965000528       -3.73231320197321
C           28.34282725329831       -5.28065312874042       -2.12680869229419
C           27.95021653005787       -2.66920301664577       -0.49764301621071
C           26.69183465399410       -3.33999308913901       -0.33996049787146
C           25.75877165787599       -2.37963005183650       -0.13879508245181
C           26.44838226274787       -1.12495588869050       -0.16616442186823
N           27.79343504116553       -1.31891139376819       -0.34356020568215
H           24.73300800677836        0.11228951869350       -0.08444308856859
H           24.74371851323576        2.71346082554211       -0.24000557934130
H           26.66358177880448        4.59887757750001       -0.06335533410776
H           27.99325933343185        4.90773682421826        2.19386686472917
H           27.39082581879449        9.10257585463787        3.65630374181225
H           29.36817381524034        8.77022393298808        0.95171192232550
H           30.63606219683235        7.72120159419700       -0.89893200263511
H           30.57420355467583        5.27512916357182       -1.21232920875344
H           31.84765759902796        4.36440679762638        0.98625330942542
H           33.70952813162594        2.43772718090678        0.68891355728871
H           33.62196036322619       -2.42135313954684       -1.29199561662573
H           31.69533283263054       -4.27713057237000       -1.62632072847878
H           30.44760563714298       -5.24947855306115        0.52679549658996
H           30.41129288013030       -7.67931298316885        0.09177159350430
H           29.03684884858868       -8.58262994245863       -1.77497229743980
H           26.32681220575672       -6.78216021014156       -4.87098406879171
H           27.77206064016624       -4.60902592582713       -2.75709500150965
H           26.55347924207925       -4.40839103960622       -0.37668249183807
H           24.69675262290649       -2.49084508647512        0.01172163367392
Fe          61.01517618811975        0.11346272385173       -0.10234877906481
C           64.40274035917426        0.09098560156747       -0.23030777888459
C           63.73611895256020       -1.06385396207891       -0.58424155250779
C           64.39291768331827       -2.25199084308623       -1.03943241642771
C           63.42844134930301       -3.18518589802953       -1.21559350214403
C           62.18497347437140       -2.57074442457029       -0.84788844772420
N           62.38241102514229       -1.26075257447085       -0.50434567246498
C           60.96906716798793       -3.24380775742151       -0.79406397214914
C           60.94573600480594       -4.69106773157745       -1.11438077722067
C           61.67988661999359       -5.59861001618871       -0.35621798935393
C           61.65980664205803       -6.95784338596237       -0.66647516786438
C           62.46579874135121       -7.87579966086189        0.17752997763936
O           62.37688624746878       -9.16130820772650       -0.19332169155104
O           63.14498268072135       -7.52378442217021        1.10761164827382
C           60.90262823499677       -7.41834584716444       -1.74353403091180
C           60.17025100310779       -6.51651592046194       -2.49946479180384
C           60.18864618076345       -5.16418152920456       -2.18888432867202
C           59.77690960162754       -2.62140323182445       -0.45184353878344
C           58.52512613442442       -3.30604338976436       -0.31876698780097
C           57.58750646516724       -2.36063233492161       -0.06858785382128
N           59.60795381271997       -1.27409273222468       -0.23837675873923
C           58.26978439929817       -1.10483991095249       -0.04192928919842
C           57.60923521559776        0.12357878394941        0.08549807597609
C           58.28511056861143        1.34913755229069        0.13959173139330
C           57.61542279155145        2.60933474050414        0.22528176114253
C           58.57983562578928        3.55446138092183        0.33325788524534
C           59.83614593978942        2.86524960661648        0.32439560413656
N           59.63747572833505        1.51360144761543        0.17027190192316
C           61.06300832697993        3.48849547975058        0.49602165515583
C           61.08875267445318        4.95321800663119        0.73001138689738
C           60.50898046953127        5.50050961391707        1.87611102045532
C           60.53456879965051        6.87119446909964        2.09401088313732
C           61.13115717784289        7.71067534028312        1.16822659901610
C           61.71078206772403        7.17497431430588        0.01707481117922
C           62.33348279707261        8.10856170558684       -0.95502515301277
O           62.85750970626902        7.49657960479233       -2.02678569545981
O           62.37467583695715        9.30431021898192       -0.81731270426779
C           61.69278791402589        5.79844967221248       -0.19787181337326
C           62.27254052499659        2.80358459999095        0.45728052943188
C           63.54773873789787        3.41597738604203        0.69597304795111
C           64.48387734876198        2.45720640217107        0.50385130415647
C           63.77969365738335        1.26144486304989        0.15012339059373
N           62.42641856173694        1.47756646022766        0.15813361862852
H           65.48624550112294        0.08211487010877       -0.26674488055207
H           65.45548163868938       -2.33985065094259       -1.20094324952147
H           63.53697229452844       -4.19976493293633       -1.56281124051711
H           62.26367333868379       -5.26058050968031        0.49295353753260
H           62.93027025166221       -9.69266766164681        0.40195115585172
H           60.89079163796910       -8.47432280986599       -1.98477821209813
H           59.58165913046589       -6.86716909916720       -3.33967810424301
H           59.62410883459810       -4.46206917057566       -2.79219825889067
H           58.39228121890399       -4.37260773553567       -0.39950348897231
H           56.52798076856460       -2.48644796860364        0.08593131557983
H           56.54531890946610        2.73837431958978        0.20386628717854
H           58.46192155314398        4.62313108909403        0.40906395721265
H           60.04868614085886        4.84330724503304        2.60533509209236
H           60.08607572739577        7.28242155603873        2.99115046854955
H           61.15683508902855        8.78365992656529        1.32133704578430
H           63.23899978742945        8.17137593906067       -2.61156148847231
H           62.13578766097674        5.38433646226791       -1.09585697134204
H           63.69307856323113        4.44609625459172        0.97835149198342
H           65.55649679762246        2.53419483142496        0.58428847763582
C           37.79683303838134        0.05706257163386       -0.44313996795017
C           36.56793188100727        0.02441183021541       -0.38011054788401
C           35.22892780649674        0.00636739310748       -0.32824552356345
C           34.00318449776763        0.00300955019788       -0.29749862923649
C           39.13237710199435        0.11201622269031       -0.53391923145322
C           40.35281883100956        0.17905860875092       -0.63613974317259
C           53.64432085352330        0.17043253772197        0.08378602961840
C           52.41594257931177        0.19891957747748        0.01018400451127
C           51.08251031451100        0.23777487533720       -0.11700824550399
C           49.86640330388446        0.27888520308178       -0.27099761830111
C           54.98388058298648        0.14668204194387        0.12461883525079
C           56.20985037072268        0.13063970159016        0.12627110291039
Fe          45.12450226431964        0.40873062115428       -0.91739043197978
C           41.74183153684476        0.26733224338612       -0.76636229802101
C           42.42008827377256       -0.75357756047023       -1.45119040869393
C           41.75845750267428       -1.80075337910059       -2.16340041167505
C           42.72935751568054       -2.56022364254749       -2.72802951448310
C           43.98195663990161       -2.00565849459600       -2.30825347312109
N           43.77060886317065       -0.86330195283248       -1.57279513584974
C           45.21540001892507       -2.61842565066421       -2.48790179317095
C           45.28483438695437       -3.89751714340390       -3.23186085197253
C           44.57356130419205       -5.01631114617018       -2.80830781191926
C           44.64614701386947       -6.21136144640166       -3.52293161476003
C           43.85803779790089       -7.36727088631657       -3.02435449423418
O           43.99887089803113       -8.47244258388539       -3.76949705767177
O           43.15072570586064       -7.33681631712117       -2.05029343338953
C           45.43630939942557       -6.29448371265175       -4.66904467630407
C           46.15168098580345       -5.18359954902823       -5.08835005766154
C           46.08061008202960       -3.99498547514790       -4.37629483217082
C           46.39153654571958       -2.12081979203977       -1.93391469418080
C           47.62510038063137       -2.84546977503116       -1.87932186093080
C           48.51898422325793       -2.04789893972996       -1.24353541244108
N           46.53200730107141       -0.89718164052129       -1.33294133136835
C           47.83643295224604       -0.82912915379452       -0.94132554943420
C           48.48615424248351        0.32854089629594       -0.48959161174669
C           47.82953981956962        1.56334918996772       -0.36650383528452
C           48.50910930053482        2.80080300608290       -0.14590472706474
C           47.55798408600699        3.76689545509032       -0.11684486404032
C           46.29617685736367        3.10647023483533       -0.26934220322106
N           46.48723749040999        1.76031915858951       -0.47194586944213
C           45.06183216711709        3.71858032798884       -0.09506073701263
C           45.00927746473452        5.17179106806656        0.19288044116192
C           44.34470493520327        6.02893149529885       -0.68704031519682
C           44.28445222517163        7.39211591411204       -0.43438731058976
C           44.87664685880092        7.91354884558891        0.70377079340611
C           45.53408509486329        7.06506110123763        1.59563078512599
C           46.14427615643203        7.66222666683205        2.81084176650090
O           46.74982505030383        6.76604911180167        3.60259898520807
O           46.11164126184818        8.83563261898691        3.07916627404185
C           45.60210915139157        5.69721994535470        1.33840851823346
C           43.86232379279711        3.01401045253307       -0.10505083249886
C           42.60661401335291        3.55842302941928        0.31531383582369
C           41.69337643549461        2.56167826438018        0.20793588920745
C           42.38815938987219        1.42530843595151       -0.31064028200262
N           43.71417150212587        1.70023154842973       -0.46705556596320
H           40.68883015945696       -1.91519200981857       -2.23362165178953
H           42.61351374460127       -3.42449092093424       -3.36111008674663
H           43.97029805724593       -4.97756758218851       -1.90796623437817
H           43.45377485526421       -9.17714155705466       -3.38309284632932
H           45.48896008433336       -7.22327633209837       -5.22398605065839
H           46.76903613496712       -5.24143591964914       -5.97760535762840
H           46.63407030511800       -3.12610966453553       -4.71448645169669
H           47.77307191703267       -3.84333750418998       -2.25901677150815
H           49.55293040251401       -2.24698997998999       -1.01227509864390
H           49.57749061519060        2.90550644545516       -0.04668815109094
H           47.69066419830189        4.82898296242558        0.00900704269642
H           43.88503526817426        5.62064913410511       -1.58012525356550
H           43.77157470369652        8.04678974684911       -1.12963922751910
H           44.83620553341668        8.97543117437961        0.91863281071483
H           47.11815568435986        7.23180254351172        4.37099669014209
H           46.09925332377630        5.03867761827342        2.04064994889870
H           42.45745803902111        4.56607751752398        0.66772870458904
H           40.63969627482511        2.58676839397796        0.43440136633457

          :  Hamiltonian                  GFN1-xTB          :
         :: total energy            -374.684647287529 Eh    ::
         :: gradient norm              0.000468088223 Eh/a0 ::
         :: HOMO-LUMO gap              0.057487974055 eV    ::
         :: SCC energy              -380.309545061963 Eh    ::
         :: repulsion energy           5.802219202879 Eh    ::

    * Orbital Energies and Occupations

         #    Occupation            Energy/Eh            Energy/eV
      -------------------------------------------------------------
         1        2.0000           -0.8375804             -22.7917
       ...           ...                  ...                  ...
       322        2.0000           -0.4035167             -10.9802
       323        2.0000           -0.4034213             -10.9777
       324        1.9991           -0.3976756             -10.8213
       325        1.9952           -0.3961071             -10.7786
       326        1.9925           -0.3956794             -10.7670
       327        1.9919           -0.3956111             -10.7651
       328        1.9777           -0.3946449             -10.7388
       329        1.9730           -0.3944578             -10.7337
       330        1.9502           -0.3938673             -10.7177
       331        1.9490           -0.3938444             -10.7171
       332        1.9461           -0.3937889             -10.7155
       333        1.9441           -0.3937545             -10.7146
       334        1.3060           -0.3909830             -10.6392 (HOMO)
       335        0.3384           -0.3888703             -10.5817 (LUMO)
       336        0.3374           -0.3888672             -10.5816
       337        0.2995           -0.3887324             -10.5779
       338                         -0.3532654              -9.6128
       339                         -0.3416834              -9.2977
       340                         -0.3398275              -9.2472
       341                         -0.3352152              -9.1217
       342                         -0.3350694              -9.1177
       343                         -0.3348792              -9.1125
       344                         -0.3181661              -8.6577
       345                         -0.3156107              -8.5882
       ...                                ...                  ...
       691                          1.5634513              42.5437
      -------------------------------------------------------------
                  HL-Gap            0.0021126 Eh            0.0575 eV

Wiberg/Mayer (AO) data.
largest (>0.10) Wiberg bond orders for each atom

     #   Z sym  total        # sym  WBO       # sym  WBO       # sym  WBO
 ---------------------------------------------------------------------------
     1  26 Fe   3.110 --     7 N    0.667    43 N    0.666    21 N    0.659
                            28 N    0.658
     2   6 C    3.919 --    42 C    1.364     3 C    1.363    44 H    0.970
     3   6 C    3.923 --     2 C    1.363     7 N    1.208     4 C    1.172
     4   6 C    3.959 --     5 C    1.650     3 C    1.172    45 H    0.975
     5   6 C    3.962 --     4 C    1.650     6 C    1.174    46 H    0.972
     6   6 C    3.921 --     8 C    1.314     7 N    1.224     5 C    1.174
     7   7 N    3.380 --     6 C    1.224     3 C    1.208     1 Fe   0.667
     8   6 C    3.922 --    18 C    1.333     6 C    1.314     9 C    1.029
     9   6 C    3.988 --    10 C    1.408    17 C    1.386     8 C    1.029
                            15 C    0.102
    10   6 C    3.983 --     9 C    1.408    11 C    1.396    47 H    0.968
                            16 C    0.104
    11   6 C    3.988 --    10 C    1.396    15 C    1.391    12 C    1.004
    12   6 C    3.836 --    14 O    1.693    13 O    1.090    11 C    1.004
    13   8 O    2.099 --    12 C    1.090    48 H    0.838    14 O    0.129
    14   8 O    1.962 --    12 C    1.693    13 O    0.129
    15   6 C    3.986 --    16 C    1.447    11 C    1.391    49 H    0.970
                             9 C    0.102
    16   6 C    3.994 --    15 C    1.447    17 C    1.442    50 H    0.972
                            10 C    0.104
    17   6 C    3.987 --    16 C    1.442     9 C    1.386    51 H    0.972
    18   6 C    3.918 --     8 C    1.333    21 N    1.200    19 C    1.179
    19   6 C    3.956 --    20 C    1.637    18 C    1.179    52 H    0.973
    20   6 C    3.960 --    19 C    1.637    22 C    1.188    53 H    0.973
    21   7 N    3.378 --    22 C    1.245    18 C    1.200     1 Fe   0.659
    22   6 C    3.902 --    23 C    1.248    21 N    1.245    20 C    1.188
    23   6 C    3.920 --    24 C    1.248    22 C    1.248   128 C    1.208
    24   6 C    3.902 --    23 C    1.248    28 N    1.246    25 C    1.188
    25   6 C    3.960 --    26 C    1.638    24 C    1.188    54 H    0.973
    26   6 C    3.956 --    25 C    1.638    27 C    1.179    55 H    0.973
    27   6 C    3.918 --    29 C    1.335    28 N    1.198    26 C    1.179
    28   7 N    3.377 --    24 C    1.246    27 C    1.198     1 Fe   0.658
    29   6 C    3.922 --    27 C    1.335    39 C    1.312    30 C    1.028
    30   6 C    3.988 --    38 C    1.405    31 C    1.388    29 C    1.028
                            33 C    0.102
    31   6 C    3.987 --    32 C    1.440    30 C    1.388    56 H    0.972
    32   6 C    3.994 --    33 C    1.450    31 C    1.440    57 H    0.972
                            38 C    0.104
    33   6 C    3.985 --    32 C    1.450    34 C    1.388    58 H    0.969
                            30 C    0.102
    34   6 C    3.988 --    38 C    1.400    33 C    1.388    35 C    1.005
    35   6 C    3.836 --    37 O    1.693    36 O    1.090    34 C    1.005
    36   8 O    2.099 --    35 C    1.090    59 H    0.838    37 O    0.129
    37   8 O    1.961 --    35 C    1.693    36 O    0.129
    38   6 C    3.984 --    30 C    1.405    34 C    1.400    60 H    0.969
                            32 C    0.104
    39   6 C    3.920 --    29 C    1.312    43 N    1.225    40 C    1.175
    40   6 C    3.962 --    41 C    1.650    39 C    1.175    61 H    0.973
    41   6 C    3.959 --    40 C    1.650    42 C    1.173    62 H    0.975
    42   6 C    3.923 --     2 C    1.364    43 N    1.207    41 C    1.173
    43   7 N    3.379 --    39 C    1.225    42 C    1.207     1 Fe   0.666
    44   1 H    1.000 --     2 C    0.970
    45   1 H    0.997 --     4 C    0.975
    46   1 H    1.003 --     5 C    0.972
    47   1 H    1.007 --    10 C    0.968
    48   1 H    0.873 --    13 O    0.838
    49   1 H    1.005 --    15 C    0.970
    50   1 H    1.002 --    16 C    0.972
    51   1 H    1.004 --    17 C    0.972
    52   1 H    1.003 --    19 C    0.973
    53   1 H    1.001 --    20 C    0.973
    54   1 H    1.001 --    25 C    0.973
    55   1 H    1.004 --    26 C    0.973
    56   1 H    1.004 --    31 C    0.972
    57   1 H    1.001 --    32 C    0.972
    58   1 H    1.005 --    33 C    0.969
    59   1 H    0.873 --    36 O    0.838
    60   1 H    1.007 --    38 C    0.969
    61   1 H    1.003 --    40 C    0.973
    62   1 H    0.997 --    41 C    0.975
    63  26 Fe   3.097 --    69 N    0.666   105 N    0.665    83 N    0.657
                            90 N    0.656
    64   6 C    3.919 --   104 C    1.364    65 C    1.363   106 H    0.970
    65   6 C    3.923 --    64 C    1.363    69 N    1.209    66 C    1.172
    66   6 C    3.959 --    67 C    1.651    65 C    1.172   107 H    0.975
    67   6 C    3.962 --    66 C    1.651    68 C    1.173   108 H    0.972
    68   6 C    3.921 --    70 C    1.314    69 N    1.224    67 C    1.173
    69   7 N    3.380 --    68 C    1.224    65 C    1.209    63 Fe   0.666
    70   6 C    3.922 --    80 C    1.334    68 C    1.314    71 C    1.027
    71   6 C    3.988 --    72 C    1.408    79 C    1.387    70 C    1.027
                            77 C    0.102
    72   6 C    3.983 --    71 C    1.408    73 C    1.396   109 H    0.968
                            78 C    0.104
    73   6 C    3.988 --    72 C    1.396    77 C    1.391    74 C    1.004
                            79 C    0.100
    74   6 C    3.836 --    76 O    1.693    75 O    1.090    73 C    1.004
    75   8 O    2.098 --    74 C    1.090   110 H    0.838    76 O    0.129
    76   8 O    1.962 --    74 C    1.693    75 O    0.129
    77   6 C    3.987 --    78 C    1.448    73 C    1.391   111 H    0.970
                            71 C    0.102
    78   6 C    3.994 --    77 C    1.448    79 C    1.441   112 H    0.972
                            72 C    0.104
    79   6 C    3.987 --    78 C    1.441    71 C    1.387   113 H    0.972
                            73 C    0.100
    80   6 C    3.918 --    70 C    1.334    83 N    1.200    81 C    1.179
    81   6 C    3.956 --    82 C    1.638    80 C    1.179   114 H    0.973
    82   6 C    3.960 --    81 C    1.638    84 C    1.188   115 H    0.973
    83   7 N    3.378 --    84 C    1.246    80 C    1.200    63 Fe   0.657
    84   6 C    3.903 --    85 C    1.249    83 N    1.246    82 C    1.188
    85   6 C    3.921 --    84 C    1.249    86 C    1.249   136 C    1.207
    86   6 C    3.903 --    85 C    1.249    90 N    1.248    87 C    1.187
    87   6 C    3.960 --    88 C    1.639    86 C    1.187   116 H    0.973
    88   6 C    3.956 --    87 C    1.639    89 C    1.178   117 H    0.973
    89   6 C    3.918 --    91 C    1.337    90 N    1.199    88 C    1.178
    90   7 N    3.377 --    86 C    1.248    89 C    1.199    63 Fe   0.656
    91   6 C    3.922 --    89 C    1.337   101 C    1.313    92 C    1.023
    92   6 C    3.988 --   100 C    1.407    93 C    1.390    91 C    1.023
                            95 C    0.103
    93   6 C    3.987 --    94 C    1.439    92 C    1.390   118 H    0.973
                            96 C    0.100
    94   6 C    3.994 --    95 C    1.451    93 C    1.439   119 H    0.972
                           100 C    0.104
    95   6 C    3.986 --    94 C    1.451    96 C    1.388   120 H    0.969
                            92 C    0.103
    96   6 C    3.988 --   100 C    1.400    95 C    1.388    97 C    1.005
                            93 C    0.100
    97   6 C    3.836 --    99 O    1.693    98 O    1.090    96 C    1.005
    98   8 O    2.099 --    97 C    1.090   121 H    0.838    99 O    0.129
    99   8 O    1.961 --    97 C    1.693    98 O    0.129
   100   6 C    3.985 --    92 C    1.407    96 C    1.400   122 H    0.969
                            94 C    0.104
   101   6 C    3.920 --    91 C    1.313   105 N    1.226   102 C    1.174
   102   6 C    3.962 --   103 C    1.651   101 C    1.174   123 H    0.973
   103   6 C    3.959 --   102 C    1.651   104 C    1.172   124 H    0.975
   104   6 C    3.923 --    64 C    1.364   105 N    1.208   103 C    1.172
   105   7 N    3.380 --   101 C    1.226   104 C    1.208    63 Fe   0.665
   106   1 H    1.000 --    64 C    0.970
   107   1 H    0.997 --    66 C    0.975
   108   1 H    1.004 --    67 C    0.972
   109   1 H    1.007 --    72 C    0.968
   110   1 H    0.873 --    75 O    0.838
   111   1 H    1.005 --    77 C    0.970
   112   1 H    1.002 --    78 C    0.972
   113   1 H    1.004 --    79 C    0.972
   114   1 H    1.004 --    81 C    0.973
   115   1 H    1.001 --    82 C    0.973
   116   1 H    1.001 --    87 C    0.973
   117   1 H    1.004 --    88 C    0.973
   118   1 H    1.004 --    93 C    0.973
   119   1 H    1.001 --    94 C    0.972
   120   1 H    1.005 --    95 C    0.969
   121   1 H    0.873 --    98 O    0.838
   122   1 H    1.007 --   100 C    0.969
   123   1 H    1.003 --   102 C    0.973
   124   1 H    0.997 --   103 C    0.975
   125   6 C    3.914 --   126 C    2.331   129 C    1.360   128 C    0.186
   126   6 C    3.911 --   125 C    2.331   127 C    1.358   130 C    0.185
   127   6 C    3.923 --   128 C    2.416   126 C    1.358
   128   6 C    3.875 --   127 C    2.416    23 C    1.208   125 C    0.186
   129   6 C    3.917 --   130 C    2.410   125 C    1.360
   130   6 C    3.881 --   129 C    2.410   138 C    1.216   126 C    0.185
   131   6 C    3.912 --   132 C    2.332   135 C    1.357   134 C    0.185
   132   6 C    3.915 --   131 C    2.332   133 C    1.359   136 C    0.186
   133   6 C    3.917 --   134 C    2.412   132 C    1.359
   134   6 C    3.881 --   133 C    2.412   159 C    1.215   131 C    0.185
   135   6 C    3.924 --   136 C    2.418   131 C    1.357
   136   6 C    3.875 --   135 C    2.418    85 C    1.207   132 C    0.186
   137  26 Fe   3.139 --   143 N    0.653   164 N    0.653   179 N    0.650
                           157 N    0.650
   138   6 C    3.911 --   178 C    1.246   139 C    1.236   130 C    1.216
   139   6 C    3.904 --   143 N    1.256   138 C    1.236   140 C    1.191
   140   6 C    3.959 --   141 C    1.635   139 C    1.191   180 H    0.973
   141   6 C    3.959 --   140 C    1.635   142 C    1.180   181 H    0.972
   142   6 C    3.916 --   144 C    1.331   143 N    1.198   141 C    1.180
   143   7 N    3.371 --   139 C    1.256   142 C    1.198   137 Fe   0.653
   144   6 C    3.920 --   142 C    1.331   154 C    1.312   145 C    1.030
   145   6 C    3.988 --   146 C    1.407   153 C    1.385   144 C    1.030
                           151 C    0.102
   146   6 C    3.983 --   145 C    1.407   147 C    1.396   182 H    0.967
                           152 C    0.104
   147   6 C    3.988 --   146 C    1.396   151 C    1.392   148 C    1.003
                           153 C    0.100
   148   6 C    3.837 --   150 O    1.693   149 O    1.091   147 C    1.003
   149   8 O    2.099 --   148 C    1.091   183 H    0.837   150 O    0.130
   150   8 O    1.963 --   148 C    1.693   149 O    0.130
   151   6 C    3.986 --   152 C    1.447   147 C    1.392   184 H    0.970
                           145 C    0.102
   152   6 C    3.994 --   151 C    1.447   153 C    1.443   185 H    0.972
                           146 C    0.104
   153   6 C    3.985 --   152 C    1.443   145 C    1.385   186 H    0.973
                           147 C    0.100
   154   6 C    3.915 --   144 C    1.312   157 N    1.213   155 C    1.185
   155   6 C    3.960 --   156 C    1.633   154 C    1.185   187 H    0.973
   156   6 C    3.959 --   155 C    1.633   158 C    1.191   188 H    0.973
   157   7 N    3.369 --   158 C    1.242   154 C    1.213   137 Fe   0.650
   158   6 C    3.904 --   159 C    1.247   157 N    1.242   156 C    1.191
   159   6 C    3.911 --   158 C    1.247   160 C    1.237   134 C    1.215
   160   6 C    3.905 --   164 N    1.255   159 C    1.237   161 C    1.191
   161   6 C    3.959 --   162 C    1.634   160 C    1.191   189 H    0.973
   162   6 C    3.959 --   161 C    1.634   163 C    1.181   190 H    0.972
   163   6 C    3.916 --   165 C    1.330   164 N    1.199   162 C    1.181
   164   7 N    3.371 --   160 C    1.255   163 C    1.199   137 Fe   0.653
   165   6 C    3.920 --   163 C    1.330   175 C    1.315   166 C    1.026
   166   6 C    3.988 --   174 C    1.406   167 C    1.388   165 C    1.026
                           169 C    0.103
   167   6 C    3.985 --   168 C    1.441   166 C    1.388   191 H    0.973
                           170 C    0.101
   168   6 C    3.994 --   169 C    1.450   167 C    1.441   192 H    0.972
                           174 C    0.104
   169   6 C    3.986 --   168 C    1.450   170 C    1.389   193 H    0.969
                           166 C    0.103
   170   6 C    3.988 --   174 C    1.399   169 C    1.389   171 C    1.004
                           167 C    0.101
   171   6 C    3.837 --   173 O    1.694   172 O    1.091   170 C    1.004
   172   8 O    2.100 --   171 C    1.091   194 H    0.837   173 O    0.129
   173   8 O    1.962 --   171 C    1.694   172 O    0.129
   174   6 C    3.985 --   166 C    1.406   170 C    1.399   195 H    0.969
                           168 C    0.104
   175   6 C    3.915 --   165 C    1.315   179 N    1.211   176 C    1.184
   176   6 C    3.960 --   177 C    1.634   175 C    1.184   196 H    0.974
   177   6 C    3.959 --   176 C    1.634   178 C    1.190   197 H    0.973
   178   6 C    3.904 --   138 C    1.246   179 N    1.243   177 C    1.190
   179   7 N    3.369 --   178 C    1.243   175 C    1.211   137 Fe   0.650
   180   1 H    1.001 --   140 C    0.973
   181   1 H    1.003 --   141 C    0.972
   182   1 H    1.008 --   146 C    0.967
   183   1 H    0.872 --   149 O    0.837
   184   1 H    1.005 --   151 C    0.970
   185   1 H    1.001 --   152 C    0.972
   186   1 H    1.004 --   153 C    0.973
   187   1 H    1.003 --   155 C    0.973
   188   1 H    1.001 --   156 C    0.973
   189   1 H    1.001 --   161 C    0.973
   190   1 H    1.003 --   162 C    0.972
   191   1 H    1.003 --   167 C    0.973
   192   1 H    1.001 --   168 C    0.972
   193   1 H    1.005 --   169 C    0.969
   194   1 H    0.872 --   172 O    0.837
   195   1 H    1.007 --   174 C    0.969
   196   1 H    1.003 --   176 C    0.974
   197   1 H    1.001 --   177 C    0.973
 ---------------------------------------------------------------------------

           -------------------------------------------------
          | TOTAL ENERGY             -374.684647287529 Eh   |
          | GRADIENT NORM               0.000468088223 Eh/α |
          | HOMO-LUMO GAP               0.057487974055 eV   |
           -------------------------------------------------

 * finished run on 2022/07/29 at 17:21:36.475
