   * xtb version 6.5.1 (b24c23e) compiled by 'conda@728c89f4b128' on 2022-07-12
          program call               : xtb Zn_H_C4_3.xyz --gfn 1 --opt -T 48

   ID    Z sym.   atoms
    1   30 Zn     1, 37, 81
    2    6 C      2-6, 8-11, 13-18, 20-24, 38-42, 44-47, 49-54, 56-60, 73-80,
                  82-86, 88-91, 93-98, 100-104
    3    7 N      7, 12, 19, 25, 43, 48, 55, 61, 87, 92, 99, 105
    4    1 H      26-36, 62-72, 106-115

          :  Hamiltonian                  GFN1-xTB          :
 * total energy  :  -199.2130608 Eh     change        0.1325418E-08 Eh
 * total energy  :  -200.7716343 Eh     change       -0.1558573E+01 Eh
 * total energy  :  -201.0106468 Eh     change       -0.2390125E+00 Eh
 * total energy  :  -201.1382497 Eh     change       -0.1276028E+00 Eh
 * total energy  :  -201.2353850 Eh     change       -0.9713537E-01 Eh
 * total energy  :  -201.3187003 Eh     change       -0.8331531E-01 Eh
 * total energy  :  -201.3770023 Eh     change       -0.5830197E-01 Eh
 * total energy  :  -201.4039020 Eh     change       -0.2689969E-01 Eh
 * total energy  :  -201.4202241 Eh     change       -0.1632214E-01 Eh
 * total energy  :  -201.4271619 Eh     change       -0.6937758E-02 Eh
 * total energy  :  -201.4743717 Eh     change       -0.1621934E-03 Eh
 * total energy  :  -201.4744826 Eh     change       -0.1108990E-03 Eh
 * total energy  :  -201.4745629 Eh     change       -0.8032904E-04 Eh
 * total energy  :  -201.4746205 Eh     change       -0.5754704E-04 Eh
 * total energy  :  -201.4746608 Eh     change       -0.4033127E-04 Eh
 * total energy  :  -201.4746874 Eh     change       -0.2654578E-04 Eh
 * total energy  :  -201.4747049 Eh     change       -0.1752059E-04 Eh
 * total energy  :  -201.4747158 Eh     change       -0.1089384E-04 Eh
 * total energy  :  -201.4747202 Eh     change       -0.4400338E-05 Eh
   *** GEOMETRY OPTIMIZATION CONVERGED AFTER 41 ITERATIONS ***

 final structure:
================
115
 xtb: 6.5.1 (b24c23e)
Zn          16.11970691792798       -0.01738475398707       -0.02239097470314
C           12.69235584259335       -0.03518020840656       -0.04843584749246
C           13.32775649905170       -0.90935592922242       -0.92374607859877
C           12.66650558292398       -1.80958744779988       -1.83051816368015
C           13.63519716933517       -2.48098673079858       -2.50242152193570
C           14.89929293759654       -1.99935772811255       -2.01342790977574
N           14.67772088166954       -1.04947440983658       -1.06021107782227
C           16.14905614920093       -2.43331245793988       -2.44235747978552
C           17.38741823579878       -1.99195263824297       -1.99217274309090
C           18.65881021485274       -2.46823981456629       -2.46091649942852
C           19.61457408653815       -1.78962260829829       -1.77572855332320
N           17.59350510575676       -1.03612911900070       -1.03421733683307
C           18.93576660647908       -0.89293703127864       -0.88291390823288
C           19.57131117890453       -0.00294346405325        0.00745587817302
C           18.91300016249728        0.88169672438515        0.88636453152210
C           19.56869315989538        1.78476305414512        1.78988420583526
C           18.59553447471936        2.45703247348455        2.45660610306347
C           17.33646714990378        1.97001322594030        1.96607596759938
N           17.56710085394743        1.01450789353667        1.01342771821334
C           16.08694950386436        2.40259776355813        2.39344026385818
C           14.84832334895337        1.95646130578467        1.94513838196425
C           13.57198126337561        2.42762020468602        2.41208572244202
C           12.62065637190376        1.74347862390967        1.72833156971077
C           13.30496012346204        0.84690022027967        0.83512842268787
N           14.65115205906778        1.00129030530001        0.99188726359083
H           11.60680988901640       -0.04125139507557       -0.05655050816441
H           11.59636024622585       -1.90500451428086       -1.93004015555094
H           13.51849755996013       -3.23706733114559       -3.26331975433748
H           16.15880655314419       -3.19963718691470       -3.21146347600393
H           18.79146982433882       -3.22548618211488       -3.21781543510107
H           20.68608734551804       -1.88047152901466       -1.85978616273151
H           20.63781972664494        1.88365547863873        1.89311860693591
H           18.70861781985993        3.21626498012030        3.21468996342522
H           16.07731399477237        3.17157148457734        3.15989897874863
H           13.43581998263979        3.18589225246390        3.16755141370685
H           11.54818670253029        1.82836183037349        1.81097749861131
Zn          43.14551338728649        0.01184477946271       -0.01735264073047
C           46.57244858361743        0.04906391892832       -0.00148528324421
C           45.93521029691424        1.28406538148234       -0.05320546004753
C           46.59435587524322        2.56207303864042       -0.10110275211982
C           45.62413010907179        3.50958600379126       -0.13784032226785
C           44.36107509488659        2.82160674472971       -0.11226715790612
N           44.58493384025296        1.47720089794860       -0.06301038298235
C           43.11027926483096        3.42920550081757       -0.13029282781302
C           41.87307797676519        2.79676116290737       -0.10439628019901
C           40.60039173524720        3.46273286716523       -0.12056940700525
C           39.64630374790598        2.49747869143519       -0.08763493322779
N           41.66950066181266        1.44411457509789       -0.06204152940984
C           40.32717317810406        1.23349260963242       -0.05226996438155
C           39.69440440927019       -0.02558346983818       -0.02645100076205
C           40.35387376418949       -1.27076785477111        0.00034447692181
C           39.70034864473174       -2.54925069232298        0.02937346962470
C           40.67495255720328       -3.49365325954872        0.06592803570159
C           41.93297954826676       -2.80018366152312        0.05916762013917
N           41.70039495183922       -1.45225359872279        0.01678251533825
C           43.18340245822941       -3.40555817503010        0.09492125285845
C           44.42078514331934       -2.77085394255901        0.08866442295236
C           45.69817825182570       -3.43122719307761        0.12658583972821
C           46.64790431461268       -2.46285058570358        0.09914606487307
C           45.96166192556392       -1.19946776375736        0.04437168860046
N           44.61586034776046       -1.42191768809467        0.04086537584530
H           47.65796389675423        0.06083214679782        0.00358766003216
H           47.66427893792491        2.70164915055334       -0.10538321900897
H           45.73910459810336        4.58168837101343       -0.17818199153701
H           43.09836766506209        4.51423947814336       -0.16771628711322
H           40.46604957888120        4.53269288304879       -0.15327390208930
H           38.57457109400126        2.61929475373924       -0.08836094251717
H           38.63151101839199       -2.69416311139239        0.02349465450885
H           40.56368493075429       -4.56633648295854        0.09572578483364
H           43.19480076917233       -4.49064200059045        0.13145115334648
H           45.83598153808129       -4.50056240915009        0.16884423976477
H           47.72051092448653       -2.57911060663727        0.11426193443817
C           22.19892250797356        0.00870007808958        0.02294612587841
C           20.97661082973004        0.00267893920843        0.01831092539095
C           23.54834212296470        0.00850628444283        0.02669884206279
C           24.77050321669210        0.00608000213927        0.02152042040090
C           35.71480215022473       -0.06057839855346       -0.02061267694223
C           34.49313857988707       -0.06224547346523       -0.01556248874834
C           37.06567926843945       -0.05316637881633       -0.02599497898078
C           38.28722978194551       -0.03989011723243       -0.02591595104172
Zn          29.63096256986409       -0.03067623459881        0.00609718364579
C           26.17532560849688       -0.00290107556273        0.01731112805525
C           26.83348036605263        0.93331011044336        0.84141862715820
C           26.17767025560170        1.89394694942545        1.68255941377034
C           27.15097310684885        2.60954059836526        2.30301255061097
C           28.40915288447731        2.09109148351149        1.84571822402396
N           28.17940011672507        1.07286872567134        0.96041956426604
C           29.65915764800162        2.55493329702555        2.23725894843055
C           30.89892759660280        2.08510460002317        1.82070280216653
C           32.16838010618074        2.59925472137546        2.25117231329290
C           33.12587402458997        1.87106573895468        1.62116767342327
N           31.10618624520801        1.05870459525311        0.93971603310333
C           32.44920525417987        0.90598017809622        0.80158257181245
C           33.08646237006716       -0.05657474954520       -0.00740918054565
C           32.42899839401750       -1.01032351060489       -0.81033237558063
C           33.08481613706340       -1.98455389308992       -1.63599472212831
C           32.11164818102385       -2.69758128175124       -2.25933963730165
C           30.85338237980939       -2.16474736490925       -1.81875852910213
N           31.08276825407357       -1.14297664031789       -0.93791297383525
C           29.60351017475273       -2.61363211367775       -2.22822874712531
C           28.36373456702815       -2.12992143053097       -1.82835136578718
C           27.09447390754195       -2.62604572676972       -2.27968804121882
C           26.13687785174178       -1.89627734222620       -1.65142662900871
C           26.81344852903406       -0.94841944381769       -0.81217393754949
N           28.15609179524140       -1.11015560666075       -0.93933507536981
H           25.10854616717751        1.99975192240605        1.77843289138950
H           27.03798636269789        3.41798901247433        3.00836428888225
H           29.66829992316388        3.37655721626789        2.94715761856489
H           32.29903965451130        3.41322646506017        2.94704243177929
H           34.19715179722714        1.96956278439679        1.69875017526353
H           34.15391434149157       -2.09900498939504       -1.72159545566562
H           32.22459838217924       -3.51253209080558       -2.95718207436096
H           29.59474792648042       -3.43365505415626       -2.93997922258507
H           26.96383064549723       -3.43025459731098       -2.98681844999065
H           25.06563347223045       -1.98390298955946       -1.74167604912181

          :  Hamiltonian                  GFN1-xTB          :
         :: total energy            -201.474720173207 Eh    ::
         :: gradient norm              0.000629334765 Eh/a0 ::
         :: HOMO-LUMO gap              0.998666708135 eV    ::
         :: SCC energy              -204.782553613015 Eh    ::
         :: repulsion energy           3.406869771456 Eh    ::

    * Orbital Energies and Occupations

         #    Occupation            Energy/Eh            Energy/eV
      -------------------------------------------------------------
         1        2.0000           -0.7585722             -20.6418
       ...           ...                  ...                  ...
       173        2.0000           -0.4194412             -11.4136
       174        2.0000           -0.4190987             -11.4043
       175        2.0000           -0.4188550             -11.3976
       176        2.0000           -0.4185075             -11.3882
       177        2.0000           -0.4178582             -11.3705
       178        2.0000           -0.4171809             -11.3521
       179        2.0000           -0.4134685             -11.2511
       180        2.0000           -0.3920186             -10.6674
       181        2.0000           -0.3912653             -10.6469
       182        2.0000           -0.3911933             -10.6449
       183        2.0000           -0.3895134             -10.5992
       184        2.0000           -0.3821747             -10.3995
       185        2.0000           -0.3739766             -10.1764 (HOMO)
       186                         -0.3372762              -9.1778 (LUMO)
       187                         -0.3277893              -8.9196
       188                         -0.3242213              -8.8225
       189                         -0.3236953              -8.8082
       190                         -0.3236202              -8.8062
       191                         -0.3204879              -8.7209
       192                         -0.2965570              -8.0697
       193                         -0.2887577              -7.8575
       194                         -0.2853709              -7.7653
       195                         -0.2542232              -6.9178
       196                         -0.2505197              -6.8170
       ...                                ...                  ...
       396                          1.5217799              41.4097
      -------------------------------------------------------------
                  HL-Gap            0.0367003 Eh            0.9987 eV

Wiberg/Mayer (AO) data.
largest (>0.10) Wiberg bond orders for each atom

     #   Z sym  total        # sym  WBO       # sym  WBO       # sym  WBO
 ---------------------------------------------------------------------------
     1  30 Zn   1.998 --     7 N    0.461    25 N    0.460    19 N    0.456
                            12 N    0.456
     2   6 C    3.932 --    24 C    1.358     3 C    1.358    26 H    0.972
     3   6 C    3.922 --     2 C    1.358     7 N    1.238     4 C    1.166
     4   6 C    3.960 --     5 C    1.665     3 C    1.166    27 H    0.976
     5   6 C    3.963 --     4 C    1.665     6 C    1.167    28 H    0.976
     6   6 C    3.919 --     8 C    1.355     7 N    1.238     5 C    1.167
     7   7 N    3.297 --     3 C    1.238     6 C    1.238     1 Zn   0.461
     8   6 C    3.938 --     9 C    1.365     6 C    1.355    29 H    0.971
     9   6 C    3.914 --     8 C    1.365    12 N    1.220    10 C    1.173
    10   6 C    3.959 --    11 C    1.653     9 C    1.173    30 H    0.976
    11   6 C    3.962 --    10 C    1.653    13 C    1.181    31 H    0.974
    12   7 N    3.300 --    13 C    1.269     9 C    1.220     1 Zn   0.456
    13   6 C    3.903 --    12 N    1.269    14 C    1.254    11 C    1.181
    14   6 C    3.943 --    15 C    1.255    13 C    1.254    74 C    1.191
    15   6 C    3.903 --    19 N    1.268    14 C    1.255    16 C    1.181
    16   6 C    3.962 --    17 C    1.653    15 C    1.181    32 H    0.974
    17   6 C    3.959 --    16 C    1.653    18 C    1.173    33 H    0.976
    18   6 C    3.914 --    20 C    1.365    19 N    1.220    17 C    1.173
    19   7 N    3.300 --    15 C    1.268    18 C    1.220     1 Zn   0.456
    20   6 C    3.938 --    18 C    1.365    21 C    1.355    34 H    0.972
    21   6 C    3.919 --    20 C    1.355    25 N    1.238    22 C    1.167
    22   6 C    3.963 --    23 C    1.665    21 C    1.167    35 H    0.976
    23   6 C    3.960 --    22 C    1.665    24 C    1.166    36 H    0.976
    24   6 C    3.922 --     2 C    1.358    25 N    1.238    23 C    1.166
    25   7 N    3.297 --    21 C    1.238    24 C    1.238     1 Zn   0.460
    26   1 H    1.002 --     2 C    0.972
    27   1 H    0.998 --     4 C    0.976
    28   1 H    0.998 --     5 C    0.976
    29   1 H    1.002 --     8 C    0.971
    30   1 H    0.998 --    10 C    0.976
    31   1 H    1.002 --    11 C    0.974
    32   1 H    1.002 --    16 C    0.974
    33   1 H    0.998 --    17 C    0.976
    34   1 H    1.002 --    20 C    0.972
    35   1 H    0.998 --    22 C    0.976
    36   1 H    0.998 --    23 C    0.976
    37  30 Zn   1.998 --    61 N    0.461    43 N    0.461    48 N    0.456
                            55 N    0.456
    38   6 C    3.934 --    60 C    1.358    39 C    1.358    62 H    0.972
    39   6 C    3.922 --    38 C    1.358    43 N    1.238    40 C    1.166
    40   6 C    3.960 --    41 C    1.665    39 C    1.166    63 H    0.976
    41   6 C    3.963 --    40 C    1.665    42 C    1.167    64 H    0.976
    42   6 C    3.920 --    44 C    1.355    43 N    1.238    41 C    1.167
    43   7 N    3.298 --    39 C    1.238    42 C    1.238    37 Zn   0.461
    44   6 C    3.939 --    45 C    1.364    42 C    1.355    65 H    0.972
    45   6 C    3.914 --    44 C    1.364    48 N    1.221    46 C    1.173
    46   6 C    3.960 --    47 C    1.654    45 C    1.173    66 H    0.976
    47   6 C    3.962 --    46 C    1.654    49 C    1.180    67 H    0.974
    48   7 N    3.301 --    49 C    1.266    45 C    1.221    37 Zn   0.456
    49   6 C    3.904 --    48 N    1.266    50 C    1.258    47 C    1.180
    50   6 C    3.944 --    51 C    1.259    49 C    1.258    80 C    1.183
    51   6 C    3.904 --    55 N    1.266    50 C    1.259    52 C    1.180
    52   6 C    3.962 --    53 C    1.654    51 C    1.180    68 H    0.974
    53   6 C    3.960 --    52 C    1.654    54 C    1.173    69 H    0.976
    54   6 C    3.914 --    56 C    1.364    55 N    1.221    53 C    1.173
    55   7 N    3.301 --    51 C    1.266    54 C    1.221    37 Zn   0.456
    56   6 C    3.939 --    54 C    1.364    57 C    1.355    70 H    0.972
    57   6 C    3.920 --    56 C    1.355    61 N    1.238    58 C    1.167
    58   6 C    3.963 --    59 C    1.665    57 C    1.167    71 H    0.976
    59   6 C    3.960 --    58 C    1.665    60 C    1.166    72 H    0.976
    60   6 C    3.922 --    38 C    1.358    61 N    1.238    59 C    1.166
    61   7 N    3.298 --    57 C    1.238    60 C    1.238    37 Zn   0.461
    62   1 H    1.002 --    38 C    0.972
    63   1 H    0.998 --    40 C    0.976
    64   1 H    0.998 --    41 C    0.976
    65   1 H    1.002 --    44 C    0.972
    66   1 H    0.998 --    46 C    0.976
    67   1 H    1.002 --    47 C    0.974
    68   1 H    1.002 --    52 C    0.974
    69   1 H    0.998 --    53 C    0.976
    70   1 H    1.002 --    56 C    0.972
    71   1 H    0.998 --    58 C    0.976
    72   1 H    0.998 --    59 C    0.976
    73   6 C    3.935 --    74 C    2.474    75 C    1.310
    74   6 C    3.924 --    73 C    2.474    14 C    1.191    76 C    0.199
    75   6 C    3.933 --    76 C    2.473    73 C    1.310
    76   6 C    3.926 --    75 C    2.473    82 C    1.193    74 C    0.199
    77   6 C    3.932 --    78 C    2.481    79 C    1.302
    78   6 C    3.923 --    77 C    2.481    94 C    1.185    80 C    0.198
    79   6 C    3.935 --    80 C    2.482    77 C    1.302
    80   6 C    3.921 --    79 C    2.482    50 C    1.183    78 C    0.198
    81  30 Zn   1.994 --   105 N    0.457    92 N    0.457    87 N    0.457
                            99 N    0.457
    82   6 C    3.932 --    83 C    1.253   104 C    1.252    76 C    1.193
    83   6 C    3.903 --    87 N    1.269    82 C    1.253    84 C    1.183
    84   6 C    3.960 --    85 C    1.650    83 C    1.183   106 H    0.974
    85   6 C    3.959 --    84 C    1.650    86 C    1.176   107 H    0.976
    86   6 C    3.912 --    88 C    1.361    87 N    1.219    85 C    1.176
    87   7 N    3.295 --    83 C    1.269    86 C    1.219    81 Zn   0.457
    88   6 C    3.934 --    86 C    1.361    89 C    1.360   108 H    0.971
    89   6 C    3.912 --    88 C    1.360    92 N    1.220    90 C    1.175
    90   6 C    3.960 --    91 C    1.651    89 C    1.175   109 H    0.976
    91   6 C    3.960 --    90 C    1.651    93 C    1.182   110 H    0.974
    92   7 N    3.295 --    93 C    1.267    89 C    1.220    81 Zn   0.457
    93   6 C    3.905 --    92 N    1.267    94 C    1.256    91 C    1.182
    94   6 C    3.931 --    95 C    1.256    93 C    1.256    78 C    1.185
    95   6 C    3.905 --    99 N    1.267    94 C    1.256    96 C    1.182
    96   6 C    3.960 --    97 C    1.651    95 C    1.182   111 H    0.974
    97   6 C    3.960 --    96 C    1.651    98 C    1.175   112 H    0.976
    98   6 C    3.912 --   100 C    1.360    99 N    1.221    97 C    1.175
    99   7 N    3.294 --    95 C    1.267    98 C    1.221    81 Zn   0.457
   100   6 C    3.934 --   101 C    1.361    98 C    1.360   113 H    0.971
   101   6 C    3.912 --   100 C    1.361   105 N    1.219   102 C    1.176
   102   6 C    3.959 --   103 C    1.650   101 C    1.176   114 H    0.976
   103   6 C    3.960 --   102 C    1.650   104 C    1.183   115 H    0.974
   104   6 C    3.903 --   105 N    1.269    82 C    1.252   103 C    1.183
   105   7 N    3.295 --   104 C    1.269   101 C    1.219    81 Zn   0.457
   106   1 H    1.002 --    84 C    0.974
   107   1 H    0.998 --    85 C    0.976
   108   1 H    1.002 --    88 C    0.971
   109   1 H    0.998 --    90 C    0.976
   110   1 H    1.002 --    91 C    0.974
   111   1 H    1.002 --    96 C    0.974
   112   1 H    0.998 --    97 C    0.976
   113   1 H    1.002 --   100 C    0.971
   114   1 H    0.998 --   102 C    0.976
   115   1 H    1.002 --   103 C    0.974
 ---------------------------------------------------------------------------

           -------------------------------------------------
          | TOTAL ENERGY             -201.474720173207 Eh   |
          | GRADIENT NORM               0.000629334765 Eh/α |
          | HOMO-LUMO GAP               0.998666708135 eV   |
           -------------------------------------------------

 * finished run on 2022/07/30 at 06:58:22.904
