   * xtb version 6.5.1 (b24c23e) compiled by 'conda@728c89f4b128' on 2022-07-12
          program call               : xtb Cu_PhNH2_C2_2.xyz --gfn 1 --opt -T 48

   ID    Z sym.   atoms
    1   29 Cu     1, 61
    2    6 C      2-6, 8-12, 14-18, 20-25, 27-31, 33-38, 62-66, 68-72, 74-78,
                  80-85, 87-91, 93-98, 121, 122
    3    7 N      7, 13, 19, 26, 32, 39, 67, 73, 79, 86, 92, 99
    4    1 H      40-60, 100-120
########################################################################
[WARNING] Please study the warnings concerning your input carefully
-1- prog_main_parseArguments: Unknown option '-T' provided
########################################################################

          :  Hamiltonian                  GFN1-xTB          :
 * total energy  :  -209.1754795 Eh     change        0.2925162E-09 Eh
 * total energy  :  -209.4009038 Eh     change       -0.2254243E+00 Eh
 * total energy  :  -209.4764406 Eh     change       -0.7553679E-01 Eh
 * total energy  :  -209.5010568 Eh     change       -0.2461621E-01 Eh
 * total energy  :  -209.5101224 Eh     change       -0.9065607E-02 Eh
 * total energy  :  -209.5158460 Eh     change       -0.5723603E-02 Eh
 * total energy  :  -209.5196915 Eh     change       -0.3845498E-02 Eh
 * total energy  :  -209.5225451 Eh     change       -0.2853568E-02 Eh
 * total energy  :  -209.5247221 Eh     change       -0.2177018E-02 Eh
 * total energy  :  -209.5264319 Eh     change       -0.1709795E-02 Eh
 * total energy  :  -209.5347036 Eh     change       -0.1549377E-04 Eh
 * total energy  :  -209.5347267 Eh     change       -0.2306938E-04 Eh
 * total energy  :  -209.5347460 Eh     change       -0.1936112E-04 Eh
 * total energy  :  -209.5347586 Eh     change       -0.1259153E-04 Eh
 * total energy  :  -209.5347675 Eh     change       -0.8912321E-05 Eh
 * total energy  :  -209.5347751 Eh     change       -0.7572751E-05 Eh
 * total energy  :  -209.5347810 Eh     change       -0.5873561E-05 Eh
 * total energy  :  -209.5347863 Eh     change       -0.5275335E-05 Eh
 * total energy  :  -209.5347909 Eh     change       -0.4627484E-05 Eh
   *** GEOMETRY OPTIMIZATION CONVERGED AFTER 41 ITERATIONS ***

 final structure:
================
122
 xtb: 6.5.1 (b24c23e)
Cu          16.65771338676270        0.06533999171398       -0.03275773023634
C           13.25341172441044        0.15347246247457        0.06039085761431
C           13.89185107439422        1.25761806149121       -0.48499872149904
C           13.22166048676189        2.38614491774066       -1.06384545682983
C           14.18457830050086        3.24923809374545       -1.47422498587128
C           15.45201370385266        2.66210011108368       -1.13475525088031
N           15.24300231072413        1.44892610805272       -0.54494416365601
C           16.69969438720249        3.24584739555977       -1.37341423385337
C           16.72087039927093        4.61019399707733       -1.95200206652858
C           17.35512194612682        4.85600616054687       -3.17243740534268
C           17.36935646560836        6.12555434313706       -3.72239484987469
C           16.74894890743061        7.18511448495005       -3.05575524455220
N           16.80024669408521        8.46597751422331       -3.57978372773663
C           16.12731705593017        6.95163067386634       -1.82658317767842
C           16.10855587410121        5.67674880613488       -1.28910785652572
C           17.92917752161211        2.63936145792911       -1.10262324671122
C           19.20584815645874        3.27967199859872       -1.24157306182555
C           20.14798797485879        2.37183408177727       -0.87966793632335
N           18.11432763578352        1.36012671610636       -0.64892832002856
C           19.45655057651444        1.17207962389754       -0.51713603581769
C           20.08711542672575       -0.01559395882125       -0.10574038843052
C           19.41850527159186       -1.17699480456894        0.32138777795789
C           20.06701289603586       -2.41111671214338        0.64466497309231
C           19.09922596197428       -3.27603628837260        1.04283788798855
C           17.85039039468624       -2.57329278991005        0.96895446285179
N           18.07607978665735       -1.30234274991288        0.51052118149928
C           16.60778923703444       -3.11637752922408        1.30743974828669
C           16.59241019383095       -4.47665385544160        1.89435210182034
C           17.29515555803499       -4.74989280410594        3.07094059245075
C           17.28059645383039       -6.01540327743244        3.62962219722974
C           16.57010442735240       -7.04673325462860        3.01024304423637
N           16.51985568529562       -8.30443727071331        3.58732569842550
C           15.86247170812632       -6.78197528547933        1.83496385884770
C           15.87492045954774       -5.51102059660310        1.28816305736801
C           15.38095994505841       -2.46783108307382        1.13706737606676
C           14.10572804817616       -2.98545489852801        1.55219668669104
C           13.16805106348309       -2.07332160501369        1.19286246691562
C           13.86284649964598       -0.98326896821130        0.57094947685438
N           15.20316178432591       -1.24626690059139        0.55412748043016
H           12.16893633648778        0.18226331192518        0.09186648103236
H           12.15111214959929        2.48647858808858       -1.15174672183611
H           14.05435384956746        4.19486245982390       -1.97573388983217
H           17.82382686502969        4.03519433914663       -3.70438504531819
H           17.85814851776736        6.30186953744815       -4.67443665301866
H           16.95166522914784        8.51099751284459       -4.57499506220355
H           16.07871615397248        9.08760168640388       -3.25093787878855
H           15.65862099258903        7.77368899209247       -1.29653741806120
H           15.63162906221777        5.50562858707848       -0.33018094156184
H           19.35779111369243        4.30059287237519       -1.55265719578285
H           21.21736495501857        2.50213290530844       -0.84464723855243
H           21.12587124089946       -2.59312507762150        0.55801155858087
H           19.21610290691474       -4.30616084809891        1.33841530944821
H           17.84121109214513       -3.95233239763687        3.56298458711772
H           17.82086737160943       -6.21145756597989        4.54941684183555
H           17.28541837606653       -8.51840687598393        4.20658070798602
H           16.28836096714178       -9.05314761703317        2.95410129286101
H           15.30712428753142       -7.57813670307470        1.35108329991501
H           15.33937765393902       -5.31904355113061        0.36475003781227
H           13.95420012644951       -3.92062537883319        2.06694884646123
H           12.10062019305400       -2.11614220606064        1.34312288672100
Cu          27.55167775123561       -0.06340482943582        0.03635928086495
C           30.95597814212133       -0.03444924825613        0.16128718995524
C           30.31754271149293       -1.09909368672505        0.78025752939129
C           30.98773862529560       -2.20509413643935        1.40105771294873
C           30.02482444693591       -3.02403124625130        1.89369345028815
C           28.75738543734794       -2.41668701150784        1.59187326900105
N           28.96639211966263       -1.25477135504277        0.90658258399766
C           27.50970588628263       -2.93815761664339        1.94654359940151
C           27.48853243217750       -4.17424827069019        2.76403120899172
C           26.85427723484140       -5.32729452625664        2.29459920683903
C           26.84004435256846       -6.48713773592583        3.04890044838127
C           27.46045982137234       -6.51692939982239        4.30037123865719
N           27.40916414429943       -7.66141069302800        5.07843074324951
C           28.08209699941563       -5.36341357069905        4.78490522801389
C           28.10085316589436       -4.21102651313979        4.01926335561411
C           26.28022166232940       -2.37735816723485        1.59065750058814
C           25.00355306354224       -2.84695789842162        2.04758831891160
C           24.06141139876936       -2.04370339069481        1.49088140934359
N           26.09506900338047       -1.29238773132814        0.77510942896173
C           24.75284613780872       -1.07863030458493        0.69120752306320
C           24.12227701502341       -0.07951724201402       -0.07140769428284
C           24.79088363672042        0.91818732721726       -0.80344647994046
C           24.14237525425418        1.86950587493794       -1.65348041737412
C           25.11016005261946        2.67927274256333       -2.15438898198201
C           26.35899550122240        2.22941993686177       -1.60946651321499
N           26.13330817084476        1.14509206879861       -0.80342110848924
C           27.60159285417144        2.81162480390205       -1.87509687316546
C           27.61696599775619        4.05240280222967       -2.68459543061878
C           26.91421737240347        5.18405366606361       -2.26224177149012
C           26.92877551618761        6.34894158781048       -3.00835014888220
C           27.63926635167662        6.40253178829905       -4.21018301812268
N           27.68951583973976        7.57844393501539       -4.93961692980628
C           28.34689687424567        5.27665650083367       -4.63888495685214
C           28.33445256988525        4.11866422825525       -3.88167221110546
C           28.82842309110871        2.31128652391744       -1.42866824863903
C           30.10365349264964        2.94329802838812       -1.63073807820159
C           31.04133216282774        2.13982129333245       -1.06901705923596
C           30.34654043249825        1.01917180280432       -0.50409230864241
N           29.00622468830915        1.15046034772715       -0.73259376598034
H           32.04045371921194       -0.02412017665393        0.20267184477708
H           32.05828787541181       -2.33378629610841        1.43612825906334
H           30.15505597020974       -3.96451468224131        2.40477618750110
H           26.38556754853240       -5.31715505333677        1.31654357772369
H           26.35124702552255       -7.37807920077676        2.66983712560719
H           27.25774649751115       -8.51579452033486        4.56608273382315
H           28.13068907282052       -7.73077576281120        5.77825339140912
H           28.55080016517680       -5.37582865491647        5.76294779226797
H           28.57778246977095       -3.31721650191671        4.40646350236317
H           24.85161166574287       -3.67033575774942        2.72663281741995
H           22.99203544570873       -2.08650334531931        1.61884530179489
H           23.08351834661352        1.89783432862902       -1.85307077299125
H           24.99328385124417        3.49479574551680       -2.84969124803520
H           26.36816180358450        5.15349439906826       -1.32561146119675
H           26.38850494932599        7.22391087551535       -2.66354781133242
H           26.92395916532805        8.21281891674739       -4.77579684841066
H           27.92100428611944        7.46434000634772       -5.91353858536456
H           28.90223995414943        5.31324508279573       -5.56984097564085
H           28.86999719850153        3.24293311976193       -4.23187162736485
H           30.25517776420180        3.88905006040829       -2.12578162370747
H           32.10876229148024        2.28872611566133       -1.02168231375275
C           21.49637772510490       -0.04219553561381       -0.11155270288198
C           22.71301497329398       -0.06968078485249       -0.09679466565415

          :  Hamiltonian                  GFN1-xTB          :
         :: total energy            -209.534790888121 Eh    ::
         :: gradient norm              0.000501855575 Eh/a0 ::
         :: HOMO-LUMO gap              0.011665438467 eV    ::
         :: SCC energy              -212.726534103128 Eh    ::
         :: repulsion energy           3.301535275897 Eh    ::

    * Orbital Energies and Occupations

         #    Occupation            Energy/Eh            Energy/eV
      -------------------------------------------------------------
         1        2.0000           -0.7770916             -21.1457
       ...           ...                  ...                  ...
       182        2.0000           -0.3985586             -10.8453
       183        2.0000           -0.3983155             -10.8387
       184        2.0000           -0.3983124             -10.8386
       185        2.0000           -0.3982953             -10.8382
       186        2.0000           -0.3982937             -10.8381
       187        2.0000           -0.3965564             -10.7908
       188        2.0000           -0.3944834             -10.7344
       189        2.0000           -0.3944690             -10.7340
       190        2.0000           -0.3856144             -10.4931
       191        2.0000           -0.3856021             -10.4928
       192        2.0000           -0.3810261             -10.3682
       193        2.0000           -0.3692258             -10.0471
       194        1.1123           -0.3458265              -9.4104 (HOMO)
       195        0.8877           -0.3453978              -9.3988 (LUMO)
       196                         -0.3282059              -8.9309
       197                         -0.3172126              -8.6318
       198                         -0.3172114              -8.6318
       199                         -0.3115009              -8.4764
       200                         -0.2861848              -7.7875
       201                         -0.2772999              -7.5457
       202                         -0.2549439              -6.9374
       203                         -0.2549418              -6.9373
       204                         -0.2545752              -6.9273
       205                         -0.2545717              -6.9272
       ...                                ...                  ...
       414                          1.3499163              36.7331
      -------------------------------------------------------------
                  HL-Gap            0.0004287 Eh            0.0117 eV

Wiberg/Mayer (AO) data.
largest (>0.10) Wiberg bond orders for each atom

     #   Z sym  total        # sym  WBO       # sym  WBO       # sym  WBO
 ---------------------------------------------------------------------------
     1  29 Cu   2.182 --     7 N    0.503    39 N    0.503    19 N    0.501
                            26 N    0.501
     2   6 C    3.926 --     3 C    1.360    38 C    1.360    40 H    0.971
     3   6 C    3.919 --     2 C    1.360     7 N    1.230     4 C    1.173
     4   6 C    3.954 --     5 C    1.652     3 C    1.173    41 H    0.976
     5   6 C    3.958 --     4 C    1.652     6 C    1.175    42 H    0.973
     6   6 C    3.912 --     8 C    1.315     7 N    1.241     5 C    1.175
     7   7 N    3.241 --     6 C    1.241     3 C    1.230     1 Cu   0.503
     8   6 C    3.933 --    16 C    1.322     6 C    1.315     9 C    1.034
     9   6 C    3.988 --    15 C    1.381    10 C    1.380     8 C    1.034
    10   6 C    3.987 --    11 C    1.468     9 C    1.380    43 H    0.973
    11   6 C    3.990 --    10 C    1.468    12 C    1.355    44 H    0.972
    12   6 C    3.951 --    14 C    1.355    11 C    1.355    13 N    1.113
    13   7 N    3.132 --    12 C    1.113    45 H    0.934    46 H    0.934
    14   6 C    3.989 --    15 C    1.468    12 C    1.355    47 H    0.972
    15   6 C    3.987 --    14 C    1.468     9 C    1.381    48 H    0.973
    16   6 C    3.908 --     8 C    1.322    19 N    1.224    17 C    1.182
    17   6 C    3.955 --    18 C    1.638    16 C    1.182    49 H    0.973
    18   6 C    3.957 --    17 C    1.638    20 C    1.189    50 H    0.970
    19   7 N    3.245 --    20 C    1.255    16 C    1.224     1 Cu   0.501
    20   6 C    3.903 --    21 C    1.262    19 N    1.255    18 C    1.189
    21   6 C    3.935 --    20 C    1.262    22 C    1.261   121 C    1.178
    22   6 C    3.903 --    21 C    1.261    26 N    1.256    23 C    1.190
    23   6 C    3.956 --    24 C    1.637    22 C    1.190    51 H    0.970
    24   6 C    3.955 --    23 C    1.637    25 C    1.183    52 H    0.973
    25   6 C    3.908 --    27 C    1.321    26 N    1.224    24 C    1.183
    26   7 N    3.245 --    22 C    1.256    25 C    1.224     1 Cu   0.501
    27   6 C    3.933 --    25 C    1.321    35 C    1.315    28 C    1.036
    28   6 C    3.988 --    34 C    1.380    29 C    1.379    27 C    1.036
    29   6 C    3.987 --    30 C    1.469    28 C    1.379    53 H    0.973
    30   6 C    3.990 --    29 C    1.469    31 C    1.354    54 H    0.972
    31   6 C    3.951 --    33 C    1.354    30 C    1.354    32 N    1.114
    32   7 N    3.132 --    31 C    1.114    56 H    0.934    55 H    0.934
    33   6 C    3.989 --    34 C    1.468    31 C    1.354    57 H    0.972
    34   6 C    3.987 --    33 C    1.468    28 C    1.380    58 H    0.973
    35   6 C    3.912 --    27 C    1.315    39 N    1.241    36 C    1.175
    36   6 C    3.958 --    37 C    1.652    35 C    1.175    59 H    0.973
    37   6 C    3.954 --    36 C    1.652    38 C    1.173    60 H    0.976
    38   6 C    3.919 --     2 C    1.360    39 N    1.230    37 C    1.173
    39   7 N    3.241 --    35 C    1.241    38 C    1.230     1 Cu   0.503
    40   1 H    1.002 --     2 C    0.971
    41   1 H    0.998 --     4 C    0.976
    42   1 H    1.006 --     5 C    0.973
    43   1 H    1.005 --    10 C    0.973
    44   1 H    0.999 --    11 C    0.972
    45   1 H    0.961 --    13 N    0.934
    46   1 H    0.961 --    13 N    0.934
    47   1 H    0.999 --    14 C    0.972
    48   1 H    1.005 --    15 C    0.973
    49   1 H    1.005 --    17 C    0.973
    50   1 H    1.006 --    18 C    0.970
    51   1 H    1.006 --    23 C    0.970
    52   1 H    1.006 --    24 C    0.973
    53   1 H    1.006 --    29 C    0.973
    54   1 H    0.999 --    30 C    0.972
    55   1 H    0.961 --    32 N    0.934
    56   1 H    0.961 --    32 N    0.934
    57   1 H    0.999 --    33 C    0.972
    58   1 H    1.006 --    34 C    0.973
    59   1 H    1.005 --    36 C    0.973
    60   1 H    0.998 --    37 C    0.976
    61  29 Cu   2.182 --    67 N    0.503    99 N    0.503    79 N    0.501
                            86 N    0.501
    62   6 C    3.926 --    63 C    1.360    98 C    1.360   100 H    0.971
    63   6 C    3.919 --    62 C    1.360    67 N    1.230    64 C    1.173
    64   6 C    3.954 --    65 C    1.652    63 C    1.173   101 H    0.976
    65   6 C    3.958 --    64 C    1.652    66 C    1.175   102 H    0.973
    66   6 C    3.912 --    68 C    1.315    67 N    1.241    65 C    1.175
    67   7 N    3.241 --    66 C    1.241    63 C    1.230    61 Cu   0.503
    68   6 C    3.933 --    76 C    1.322    66 C    1.315    69 C    1.034
    69   6 C    3.988 --    75 C    1.381    70 C    1.380    68 C    1.034
    70   6 C    3.987 --    71 C    1.468    69 C    1.380   103 H    0.973
    71   6 C    3.990 --    70 C    1.468    72 C    1.355   104 H    0.972
    72   6 C    3.951 --    74 C    1.355    71 C    1.355    73 N    1.113
    73   7 N    3.132 --    72 C    1.113   105 H    0.934   106 H    0.934
    74   6 C    3.989 --    75 C    1.468    72 C    1.355   107 H    0.972
    75   6 C    3.987 --    74 C    1.468    69 C    1.381   108 H    0.973
    76   6 C    3.908 --    68 C    1.322    79 N    1.224    77 C    1.182
    77   6 C    3.955 --    78 C    1.638    76 C    1.182   109 H    0.973
    78   6 C    3.957 --    77 C    1.638    80 C    1.189   110 H    0.970
    79   7 N    3.245 --    80 C    1.255    76 C    1.224    61 Cu   0.501
    80   6 C    3.903 --    81 C    1.262    79 N    1.255    78 C    1.189
    81   6 C    3.935 --    80 C    1.262    82 C    1.261   122 C    1.178
    82   6 C    3.903 --    81 C    1.261    86 N    1.256    83 C    1.190
    83   6 C    3.956 --    84 C    1.637    82 C    1.190   111 H    0.970
    84   6 C    3.955 --    83 C    1.637    85 C    1.183   112 H    0.973
    85   6 C    3.908 --    87 C    1.321    86 N    1.224    84 C    1.183
    86   7 N    3.245 --    82 C    1.256    85 C    1.224    61 Cu   0.501
    87   6 C    3.933 --    85 C    1.321    95 C    1.315    88 C    1.036
    88   6 C    3.988 --    94 C    1.380    89 C    1.379    87 C    1.036
    89   6 C    3.987 --    90 C    1.469    88 C    1.379   113 H    0.973
    90   6 C    3.990 --    89 C    1.469    91 C    1.354   114 H    0.972
    91   6 C    3.951 --    93 C    1.354    90 C    1.354    92 N    1.114
    92   7 N    3.132 --    91 C    1.114   116 H    0.934   115 H    0.934
    93   6 C    3.989 --    94 C    1.468    91 C    1.354   117 H    0.972
    94   6 C    3.987 --    93 C    1.468    88 C    1.380   118 H    0.973
    95   6 C    3.912 --    87 C    1.315    99 N    1.241    96 C    1.175
    96   6 C    3.958 --    97 C    1.652    95 C    1.175   119 H    0.973
    97   6 C    3.954 --    96 C    1.652    98 C    1.173   120 H    0.976
    98   6 C    3.919 --    62 C    1.360    99 N    1.230    97 C    1.173
    99   7 N    3.241 --    95 C    1.241    98 C    1.230    61 Cu   0.503
   100   1 H    1.002 --    62 C    0.971
   101   1 H    0.998 --    64 C    0.976
   102   1 H    1.006 --    65 C    0.973
   103   1 H    1.005 --    70 C    0.973
   104   1 H    0.999 --    71 C    0.972
   105   1 H    0.961 --    73 N    0.934
   106   1 H    0.961 --    73 N    0.934
   107   1 H    0.999 --    74 C    0.972
   108   1 H    1.005 --    75 C    0.973
   109   1 H    1.005 --    77 C    0.973
   110   1 H    1.006 --    78 C    0.970
   111   1 H    1.006 --    83 C    0.970
   112   1 H    1.006 --    84 C    0.973
   113   1 H    1.006 --    89 C    0.973
   114   1 H    0.999 --    90 C    0.972
   115   1 H    0.961 --    92 N    0.934
   116   1 H    0.961 --    92 N    0.934
   117   1 H    0.999 --    93 C    0.972
   118   1 H    1.006 --    94 C    0.973
   119   1 H    1.005 --    96 C    0.973
   120   1 H    0.998 --    97 C    0.976
   121   6 C    3.934 --   122 C    2.577    21 C    1.178
   122   6 C    3.934 --   121 C    2.577    81 C    1.178
 ---------------------------------------------------------------------------

           -------------------------------------------------
          | TOTAL ENERGY             -209.534790888121 Eh   |
          | GRADIENT NORM               0.000501855575 Eh/α |
          | HOMO-LUMO GAP               0.011665438467 eV   |
           -------------------------------------------------

 * finished run on 2022/07/30 at 07:18:28.367
