   * xtb version 6.5.1 (b24c23e) compiled by 'conda@728c89f4b128' on 2022-07-12
          program call               : xtb Fe_Ph2Me_C4_2.xyz --gfn 1 --opt -T 48

   ID    Z sym.   atoms
    1   26 Fe     1, 69
    2    6 C      2-6, 8-11, 13-31, 34-41, 70-74, 76-79, 81-99, 102-109,
                  137-140
    3    7 N      7, 12, 32, 33, 75, 80, 100, 101
    4    1 H      42-68, 110-136
########################################################################
[WARNING] Please study the warnings concerning your input carefully
-1- prog_main_parseArguments: Unknown option '-T' provided
########################################################################

          :  Hamiltonian                  GFN1-xTB          :
 * total energy  :  -220.2270045 Eh     change        0.2088996E-10 Eh
 * total energy  :  -221.0978507 Eh     change       -0.8708461E+00 Eh
 * total energy  :  -221.1968151 Eh     change       -0.9896447E-01 Eh
 * total energy  :  -221.2516455 Eh     change       -0.5483037E-01 Eh
 * total energy  :  -221.2687760 Eh     change       -0.1713052E-01 Eh
 * total energy  :  -221.2772231 Eh     change       -0.8447097E-02 Eh
 * total energy  :  -221.2822697 Eh     change       -0.5046544E-02 Eh
 * total energy  :  -221.2852142 Eh     change       -0.2944557E-02 Eh
 * total energy  :  -221.2873350 Eh     change       -0.2120733E-02 Eh
 * total energy  :  -221.2887602 Eh     change       -0.1425200E-02 Eh
 * total energy  :  -221.2950384 Eh     change       -0.1017102E-04 Eh
 * total energy  :  -221.2950501 Eh     change       -0.1166235E-04 Eh
 * total energy  :  -221.2950619 Eh     change       -0.1184292E-04 Eh
 * total energy  :  -221.2950734 Eh     change       -0.1153356E-04 Eh
 * total energy  :  -221.2950858 Eh     change       -0.1231843E-04 Eh
 * total energy  :  -221.2950997 Eh     change       -0.1393322E-04 Eh
 * total energy  :  -221.2951163 Eh     change       -0.1662797E-04 Eh
 * total energy  :  -221.2951314 Eh     change       -0.1511705E-04 Eh
 * total energy  :  -221.2951356 Eh     change       -0.4182384E-05 Eh
   *** GEOMETRY OPTIMIZATION CONVERGED AFTER 94 ITERATIONS ***

 final structure:
================
140
 xtb: 6.5.1 (b24c23e)
Fe          15.51798882007633        0.19238746542165       -0.27439190825215
C           12.20122439946308        0.39889300457230       -0.85455809576126
C           12.85301804120481        1.53883539318780       -0.42983221161340
C           12.19229754715729        2.78825642506197       -0.19933056035408
C           13.09931944649225        3.60408590661115        0.38830067563020
C           14.32527000844004        2.86507733801648        0.48000828927384
N           14.16088633246547        1.60465166776265       -0.02523196322983
C           15.50012931255924        3.35990220007619        1.03806776150035
C           16.69682628014702        2.65815186244953        1.01019847437871
C           17.95284403663765        3.20890432799025        1.42558121915967
C           18.90995452099809        2.32476425153589        1.05347431986513
N           16.88723404852881        1.42391149432931        0.43499857372688
C           18.23538979036226        1.22640888808888        0.43582773454001
C           18.90130904353498        0.11643226806577       -0.10109897446413
C           18.22856202689178       -1.02170196609530       -0.56323981791425
C           18.89825315663060       -2.21356855117823       -0.98088050676824
C           17.93868538163168       -3.15184005985425       -1.17035124843423
C           16.68287395899772       -2.52133661261787       -0.89264786757776
C           15.45283826816494       -3.15628654160971       -1.01044794757572
C           15.43929827934201       -4.61029005625202       -1.29619985800458
C           14.89159127928885       -5.09697282029520       -2.48089153265422
C           14.88853521816642       -6.46297213796906       -2.74917792655140
C           14.28323418809364       -6.97389812766775       -4.02876105411581
C           15.43470607410875       -7.34095644672323       -1.82004826301031
C           15.98808499235499       -6.86920912071648       -0.63147665806644
C           16.58898812019885       -7.83457583787715        0.35415448254274
C           15.99136471258948       -5.50350191218077       -0.37712768238253
C           14.24648323214472       -2.46861758208189       -0.93680375113451
C           12.96135614586983       -3.06545614205141       -1.16168062488842
C           12.05996009779446       -2.05514639735618       -1.18848067039753
C           12.78746483673283       -0.84877806881058       -0.93299072922165
N           14.11744940467504       -1.11828524418461       -0.74849452132637
N           16.87758364994626       -1.20962762960161       -0.53871789728578
C           15.49293200652524        4.72105542415576        1.62743494902068
C           15.26153623101766        5.83582268894696        0.82361827194591
C           15.25362701060225        7.11314886776906        1.37413886945174
C           15.02588478536680        8.31391152801831        0.49615385980681
C           15.47886167012513        7.26879541035323        2.73841511075420
C           15.71494767025200        6.16507896068364        3.55287822978365
C           15.93596609329215        6.34387823911817        5.03057289284170
C           15.72332252203692        4.89280033840315        2.99120969867593
H           11.14320463167961        0.47552478458979       -1.07939242412283
H           11.15946887800485        2.98739862417659       -0.43764064744964
H           12.96031776804003        4.61526741477176        0.73473495994946
H           18.07711343440450        4.16347819628867        1.91044791110520
H           19.97825327858562        2.39477674384105        1.18127468158266
H           19.96613177884464       -2.31039559389634       -1.09339571541889
H           18.05787507673835       -4.17450807528842       -1.48935346475736
H           14.48451271949210       -4.40217506017951       -3.20729724312394
H           14.58769738072727       -8.00231663920298       -4.22229354607538
H           13.19339084539109       -6.94459088590871       -3.96270577385284
H           14.58580914303958       -6.35186932506448       -4.87205445733307
H           15.43373803272464       -8.40708446394718       -2.02256006974251
H           16.79717426036446       -7.34365356623639        1.30460454582385
H           15.91295616952998       -8.67217357991711        0.53139645075310
H           17.52554180002377       -8.23542439872678       -0.03930419453939
H           16.41082314382110       -5.12267813117753        0.54759795633464
H           12.78447688854840       -4.12112502466769       -1.28868367217926
H           10.99425926378458       -2.10492240466929       -1.34674653215924
H           15.10370704615585        5.70311097744023       -0.24105507481484
H           14.56710911062803        9.12642532675755        1.05986782995153
H           14.38258765197742        8.06121012377637       -0.34699744443981
H           15.97954973575696        8.67058516491829        0.10034829070823
H           15.47196369799600        8.26328362926363        3.17266929358773
H           14.97602945944746        6.34103857261761        5.55204570815862
H           16.43066619722102        7.29324119006900        5.23701887098404
H           16.54353804689721        5.53341405014312        5.43348941567381
H           15.89550352417204        4.02343739121369        3.61620436808463
Fe          28.87773840071617        0.22412435121049       -0.26789622488250
C           32.18386983670373        0.75756028548897       -0.64564808108081
C           31.53635019470906        0.01714168217437       -1.61387427923029
C           32.19939693428545       -0.55490836523983       -2.74695727042704
C           31.30018081707529       -1.36473825375408       -3.35467065424189
C           30.07525939612006       -1.25369566479912       -2.61665020399030
N           30.23395644486183       -0.40611698641139       -1.55489789746418
C           28.90388741720662       -1.93664081123307       -2.93065733047408
C           27.70576821322548       -1.71122454962437       -2.26767402912451
C           26.44992242229744       -2.26296537620524       -2.68233275432767
C           25.49129067619171       -1.65113701247220       -1.94546769749683
N           27.51341118433167       -0.80823977284067       -1.24877111006313
C           26.16468755833321       -0.74945707859549       -1.06437664580060
C           25.49803851237967        0.07444818482055       -0.14743399122275
C           26.16987670364513        0.82802012688939        0.82354794472218
C           25.49892880096261        1.54764581243890        1.86073919338734
C           26.45747942805012        1.97962969441812        2.71606250897663
C           27.71418714715419        1.54740925358151        2.18162513891398
C           28.94439158942063        1.84345200716528        2.75515640329647
C           28.95808518182145        2.51476405549173        4.07642020288500
C           29.48411573110094        3.79699810320108        4.21581885486713
C           29.48580864874380        4.42916770139712        5.45614073027366
C           30.06581888919359        5.81113578853648        5.59209082747799
C           28.96076411966389        3.76604852938073        6.55923946422823
C           28.42937637957642        2.48393049120037        6.43536097151669
C           27.85156592953145        1.79036148942092        7.63936444569139
C           28.42652685283861        1.86547702688734        5.19138384305514
C           30.14918203762674        1.60154092708186        2.10419462486662
C           31.43285240241910        2.00131876185901        2.60466014430653
C           32.32905110193326        1.76397150430076        1.61741449443632
C           31.60086140420871        1.17475920431666        0.53459768541345
N           30.27541138595852        1.05202750272353        0.85612710694317
N           27.52051320575709        0.85521498977030        1.01245658337067
C           28.91234540525301       -2.88817443631626       -4.06841037650678
C           29.14664906307804       -2.43368626261902       -5.36502725556798
C           29.15174621023419       -3.32304332025984       -6.43444231984381
C           29.38240923439100       -2.82180277260343       -7.83448036901484
C           28.91966866170658       -4.67451024038783       -6.19812359307468
C           28.68011833658186       -5.14240496299414       -4.90937669734843
C           28.44919016282584       -6.60899631864080       -4.66395751918202
C           28.67579878672460       -4.24391614131760       -3.84774220275087
H           33.23816381757749        0.96616551446584       -0.78994479074946
H           33.22887408380773       -0.37102397930326       -3.01070795828048
H           31.44381859932071       -1.98673250518895       -4.22318248640446
H           26.32677294383411       -2.99963132128362       -3.45945303328539
H           24.42272124607510       -1.79026896186146       -1.98105250306374
H           24.43090645894602        1.68117153519653        1.92312000008364
H           26.33738286723713        2.55768136184751        3.61786951368483
H           29.87480364374411        4.31255655905904        3.34537659133999
H           29.77185025591476        6.26748673636321        6.53714040122984
H           31.15640096340302        5.76251987400058        5.55797855239526
H           29.73199706990650        6.44981022873835        4.77333999951615
H           28.96081703964700        4.25259110918009        7.52925391267560
H           27.65301448286893        0.73990331349670        7.42779156483392
H           28.53781053997833        1.85529989382881        8.48489630682545
H           26.91313970034834        2.26706407406038        7.93042337113211
H           28.02333409882304        0.86476267802503        5.08143906663602
H           31.61217069856960        2.41648930983883        3.58311023324792
H           33.39205845848288        1.94626788450519        1.61239899440262
H           29.30796640314868       -1.37552499434747       -5.53914938217904
H           29.83659893135279       -3.59503732345229       -8.45436125236005
H           30.03084032057207       -1.94539345729440       -7.83068317687341
H           28.43035985504161       -2.53750936546118       -8.28849430014702
H           28.92326309990406       -5.37218763231595       -7.02930644076494
H           29.40484552802456       -7.11366984352689       -4.50461643220788
H           27.95970838101180       -7.07323903033719       -5.52041498864645
H           27.83250474987135       -6.76235225018900       -3.77822363609523
H           28.50112470717389       -4.59692395334652       -2.83732850488528
C           21.52620945480725        0.11489711248003       -0.14232040612218
C           20.30263641767673        0.11875334632567       -0.11650652796919
C           22.87313805464985        0.10439573409919       -0.15251769415092
C           24.09676471382066        0.08737747370869       -0.15317382317235

          :  Hamiltonian                  GFN1-xTB          :
         :: total energy            -221.295135625998 Eh    ::
         :: gradient norm              0.000589442172 Eh/a0 ::
         :: HOMO-LUMO gap              0.092988167689 eV    ::
         :: SCC energy              -224.870576287673 Eh    ::
         :: repulsion energy           3.695246962162 Eh    ::

    * Orbital Energies and Occupations

         #    Occupation            Energy/Eh            Energy/eV
      -------------------------------------------------------------
         1        2.0000           -0.7665276             -20.8583
       ...           ...                  ...                  ...
       195        2.0000           -0.4239429             -11.5361
       196        2.0000           -0.4237195             -11.5300
       197        2.0000           -0.4229881             -11.5101
       198        2.0000           -0.3942066             -10.7269
       199        2.0000           -0.3937888             -10.7155
       200        2.0000           -0.3934594             -10.7066
       201        1.9978           -0.3860012             -10.5036
       202        1.9863           -0.3842350             -10.4556
       203        1.9599           -0.3832044             -10.4275
       204        1.9584           -0.3831688             -10.4266
       205        1.9539           -0.3830703             -10.4239
       206        1.9528           -0.3830462             -10.4232
       207        1.7281           -0.3812666             -10.3748 (HOMO)
       208        0.2967           -0.3778493             -10.2818 (LUMO)
       209        0.1661           -0.3772282             -10.2649
       210                         -0.3358360              -9.1386
       211                         -0.3245134              -8.8305
       212                         -0.3243111              -8.8250
       213                         -0.3224377              -8.7740
       214                         -0.2954115              -8.0386
       215                         -0.2949619              -8.0263
       216                         -0.2946927              -8.0190
       217                         -0.2888415              -7.8598
       218                         -0.2615125              -7.1161
       ...                                ...                  ...
       462                          1.5125816              41.1594
      -------------------------------------------------------------
                  HL-Gap            0.0034173 Eh            0.0930 eV

Wiberg/Mayer (AO) data.
largest (>0.10) Wiberg bond orders for each atom

     #   Z sym  total        # sym  WBO       # sym  WBO       # sym  WBO
 ---------------------------------------------------------------------------
     1  26 Fe   3.203 --    32 N    0.674    12 N    0.668     7 N    0.668
                            33 N    0.663
     2   6 C    3.927 --     3 C    1.364    31 C    1.359    42 H    0.970
     3   6 C    3.925 --     2 C    1.364     7 N    1.208     4 C    1.173
     4   6 C    3.960 --     5 C    1.649     3 C    1.173    43 H    0.975
     5   6 C    3.963 --     4 C    1.649     6 C    1.176    44 H    0.972
     6   6 C    3.921 --     8 C    1.310     7 N    1.228     5 C    1.176
     7   7 N    3.381 --     6 C    1.228     3 C    1.208     1 Fe   0.668
     8   6 C    3.929 --     9 C    1.337     6 C    1.310    34 C    1.023
     9   6 C    3.918 --     8 C    1.337    12 N    1.197    10 C    1.179
    10   6 C    3.958 --    11 C    1.638     9 C    1.179    45 H    0.973
    11   6 C    3.961 --    10 C    1.638    13 C    1.189    46 H    0.974
    12   7 N    3.383 --    13 C    1.248     9 C    1.197     1 Fe   0.668
    13   6 C    3.906 --    12 N    1.248    14 C    1.248    11 C    1.189
    14   6 C    3.926 --    15 C    1.252    13 C    1.248   138 C    1.202
    15   6 C    3.906 --    14 C    1.252    33 N    1.240    16 C    1.189
    16   6 C    3.960 --    17 C    1.636    15 C    1.189    47 H    0.974
    17   6 C    3.959 --    16 C    1.636    18 C    1.181    48 H    0.973
    18   6 C    3.917 --    19 C    1.326    33 N    1.206    17 C    1.181
    19   6 C    3.929 --    18 C    1.326    28 C    1.317    20 C    1.028
    20   6 C    3.988 --    21 C    1.402    27 C    1.388    19 C    1.028
                            24 C    0.102
    21   6 C    3.986 --    22 C    1.410    20 C    1.402    49 H    0.972
                            25 C    0.104
    22   6 C    3.988 --    24 C    1.423    21 C    1.410    23 C    1.020
                            27 C    0.103
    23   6 C    3.995 --    22 C    1.020    50 H    0.985    52 H    0.979
                            51 H    0.972
    24   6 C    3.988 --    22 C    1.423    25 C    1.407    53 H    0.972
                            20 C    0.102
    25   6 C    3.988 --    27 C    1.425    24 C    1.407    26 C    1.020
                            21 C    0.104
    26   6 C    3.995 --    25 C    1.020    54 H    0.985    55 H    0.978
                            56 H    0.973
    27   6 C    3.984 --    25 C    1.425    20 C    1.388    57 H    0.971
                            22 C    0.103
    28   6 C    3.922 --    19 C    1.317    32 N    1.222    29 C    1.175
    29   6 C    3.962 --    30 C    1.648    28 C    1.175    58 H    0.972
    30   6 C    3.959 --    29 C    1.648    31 C    1.174    59 H    0.975
    31   6 C    3.925 --     2 C    1.359    32 N    1.212    30 C    1.174
    32   7 N    3.383 --    28 C    1.222    31 C    1.212     1 Fe   0.674
    33   7 N    3.381 --    15 C    1.240    18 C    1.206     1 Fe   0.663
    34   6 C    3.988 --    35 C    1.398    41 C    1.397     8 C    1.023
                            38 C    0.103
    35   6 C    3.986 --    36 C    1.416    34 C    1.398    60 H    0.972
                            39 C    0.104
    36   6 C    3.988 --    38 C    1.416    35 C    1.416    37 C    1.020
                            41 C    0.104
    37   6 C    3.995 --    36 C    1.020    61 H    0.983    62 H    0.983
                            63 H    0.971
    38   6 C    3.989 --    36 C    1.416    39 C    1.415    64 H    0.972
                            34 C    0.103
    39   6 C    3.988 --    41 C    1.417    38 C    1.415    40 C    1.020
                            35 C    0.104
    40   6 C    3.995 --    39 C    1.020    67 H    0.983    66 H    0.982
                            65 H    0.971
    41   6 C    3.986 --    39 C    1.417    34 C    1.397    68 H    0.972
                            36 C    0.104
    42   1 H    1.001 --     2 C    0.970
    43   1 H    0.998 --     4 C    0.975
    44   1 H    1.005 --     5 C    0.972
    45   1 H    1.005 --    10 C    0.973
    46   1 H    1.002 --    11 C    0.974
    47   1 H    1.002 --    16 C    0.974
    48   1 H    1.004 --    17 C    0.973
    49   1 H    1.003 --    21 C    0.972
    50   1 H    1.004 --    23 C    0.985
    51   1 H    1.006 --    23 C    0.972
    52   1 H    1.005 --    23 C    0.979
    53   1 H    1.000 --    24 C    0.972
    54   1 H    1.004 --    26 C    0.985
    55   1 H    1.005 --    26 C    0.978
    56   1 H    1.006 --    26 C    0.973
    57   1 H    1.003 --    27 C    0.971
    58   1 H    1.005 --    29 C    0.972
    59   1 H    0.998 --    30 C    0.975
    60   1 H    1.002 --    35 C    0.972
    61   1 H    1.004 --    37 C    0.983
    62   1 H    1.004 --    37 C    0.983
    63   1 H    1.006 --    37 C    0.971
    64   1 H    1.000 --    38 C    0.972
    65   1 H    1.006 --    40 C    0.971
    66   1 H    1.004 --    40 C    0.982
    67   1 H    1.004 --    40 C    0.983
    68   1 H    1.002 --    41 C    0.972
    69  26 Fe   3.218 --   100 N    0.674    80 N    0.669    75 N    0.669
                           101 N    0.663
    70   6 C    3.928 --    71 C    1.364    99 C    1.358   110 H    0.970
    71   6 C    3.926 --    70 C    1.364    75 N    1.207    72 C    1.173
    72   6 C    3.960 --    73 C    1.649    71 C    1.173   111 H    0.975
    73   6 C    3.963 --    72 C    1.649    74 C    1.176   112 H    0.972
    74   6 C    3.921 --    76 C    1.310    75 N    1.228    73 C    1.176
    75   7 N    3.382 --    74 C    1.228    71 C    1.207    69 Fe   0.669
    76   6 C    3.930 --    77 C    1.337    74 C    1.310   102 C    1.023
    77   6 C    3.918 --    76 C    1.337    80 N    1.197    78 C    1.179
    78   6 C    3.958 --    79 C    1.638    77 C    1.179   113 H    0.973
    79   6 C    3.961 --    78 C    1.638    81 C    1.189   114 H    0.974
    80   7 N    3.384 --    81 C    1.248    77 C    1.197    69 Fe   0.669
    81   6 C    3.907 --    80 N    1.248    82 C    1.248    79 C    1.189
    82   6 C    3.927 --    83 C    1.252    81 C    1.248   140 C    1.202
    83   6 C    3.907 --    82 C    1.252   101 N    1.241    84 C    1.189
    84   6 C    3.961 --    85 C    1.637    83 C    1.189   115 H    0.974
    85   6 C    3.959 --    84 C    1.637    86 C    1.181   116 H    0.973
    86   6 C    3.917 --    87 C    1.327   101 N    1.206    85 C    1.181
    87   6 C    3.930 --    86 C    1.327    96 C    1.317    88 C    1.027
    88   6 C    3.988 --    89 C    1.402    95 C    1.388    87 C    1.027
                            92 C    0.102
    89   6 C    3.986 --    90 C    1.410    88 C    1.402   117 H    0.972
                            93 C    0.104
    90   6 C    3.988 --    92 C    1.423    89 C    1.410    91 C    1.020
                            95 C    0.103
    91   6 C    3.995 --    90 C    1.020   118 H    0.985   120 H    0.979
                           119 H    0.972
    92   6 C    3.988 --    90 C    1.423    93 C    1.407   121 H    0.972
                            88 C    0.102
    93   6 C    3.988 --    95 C    1.425    92 C    1.407    94 C    1.020
                            89 C    0.104
    94   6 C    3.995 --    93 C    1.020   122 H    0.985   123 H    0.978
                           124 H    0.973
    95   6 C    3.985 --    93 C    1.425    88 C    1.388   125 H    0.972
                            90 C    0.103
    96   6 C    3.922 --    87 C    1.317   100 N    1.222    97 C    1.175
    97   6 C    3.962 --    98 C    1.648    96 C    1.175   126 H    0.972
    98   6 C    3.959 --    97 C    1.648    99 C    1.174   127 H    0.975
    99   6 C    3.925 --    70 C    1.358   100 N    1.213    98 C    1.174
   100   7 N    3.384 --    96 C    1.222    99 C    1.213    69 Fe   0.674
   101   7 N    3.382 --    83 C    1.241    86 C    1.206    69 Fe   0.663
   102   6 C    3.988 --   103 C    1.397   109 C    1.397    76 C    1.023
                           106 C    0.103
   103   6 C    3.986 --   104 C    1.416   102 C    1.397   128 H    0.972
                           107 C    0.104
   104   6 C    3.988 --   106 C    1.416   103 C    1.416   105 C    1.020
                           109 C    0.104
   105   6 C    3.995 --   104 C    1.020   129 H    0.983   130 H    0.983
                           131 H    0.971
   106   6 C    3.989 --   104 C    1.416   107 C    1.415   132 H    0.972
                           102 C    0.103
   107   6 C    3.988 --   109 C    1.417   106 C    1.415   108 C    1.020
                           103 C    0.104
   108   6 C    3.995 --   107 C    1.020   135 H    0.983   134 H    0.982
                           133 H    0.971
   109   6 C    3.986 --   107 C    1.417   102 C    1.397   136 H    0.972
                           104 C    0.104
   110   1 H    1.001 --    70 C    0.970
   111   1 H    0.998 --    72 C    0.975
   112   1 H    1.005 --    73 C    0.972
   113   1 H    1.005 --    78 C    0.973
   114   1 H    1.002 --    79 C    0.974
   115   1 H    1.002 --    84 C    0.974
   116   1 H    1.004 --    85 C    0.973
   117   1 H    1.003 --    89 C    0.972
   118   1 H    1.004 --    91 C    0.985
   119   1 H    1.006 --    91 C    0.972
   120   1 H    1.005 --    91 C    0.979
   121   1 H    1.000 --    92 C    0.972
   122   1 H    1.003 --    94 C    0.985
   123   1 H    1.005 --    94 C    0.978
   124   1 H    1.006 --    94 C    0.973
   125   1 H    1.003 --    95 C    0.972
   126   1 H    1.005 --    97 C    0.972
   127   1 H    0.998 --    98 C    0.975
   128   1 H    1.002 --   103 C    0.972
   129   1 H    1.004 --   105 C    0.983
   130   1 H    1.004 --   105 C    0.983
   131   1 H    1.006 --   105 C    0.971
   132   1 H    1.000 --   106 C    0.972
   133   1 H    1.006 --   108 C    0.971
   134   1 H    1.004 --   108 C    0.982
   135   1 H    1.004 --   108 C    0.983
   136   1 H    1.002 --   109 C    0.972
   137   6 C    3.922 --   138 C    2.451   139 C    1.323
   138   6 C    3.916 --   137 C    2.451    14 C    1.202   140 C    0.195
   139   6 C    3.922 --   140 C    2.450   137 C    1.323
   140   6 C    3.917 --   139 C    2.450    82 C    1.202   138 C    0.195
 ---------------------------------------------------------------------------

           -------------------------------------------------
          | TOTAL ENERGY             -221.295135625998 Eh   |
          | GRADIENT NORM               0.000589442172 Eh/α |
          | HOMO-LUMO GAP               0.092988167689 eV   |
           -------------------------------------------------

 * finished run on 2022/07/29 at 18:09:30.660
