   * xtb version 6.5.1 (b24c23e) compiled by 'conda@728c89f4b128' on 2022-07-12
          program call               : xtb p-CP_C2_2.xyz --gfn 1 --opt -T 48

   ID    Z sym.   atoms
    1    6 C      1-5, 7-10, 12-23, 26-31, 34-38, 41, 42, 64-68, 70-73,
                  75-86, 89-94, 97-101, 104, 105, 127, 128
    2    7 N      6, 11, 32, 33, 69, 74, 95, 96
    3    8 O      24, 25, 39, 40, 87, 88, 102, 103
    4    1 H      43-63, 106-126
########################################################################
[WARNING] Please study the warnings concerning your input carefully
-1- prog_main_parseArguments: Unknown option '-T' provided
########################################################################

          :  Hamiltonian                  GFN1-xTB          :
 * total energy  :  -232.7864513 Eh     change       -0.5392451E-09 Eh
 * total energy  :  -233.3939419 Eh     change       -0.6074906E+00 Eh
 * total energy  :  -233.5509007 Eh     change       -0.1569587E+00 Eh
 * total energy  :  -233.6165946 Eh     change       -0.6569395E-01 Eh
 * total energy  :  -233.6504029 Eh     change       -0.3380830E-01 Eh
 * total energy  :  -233.6662939 Eh     change       -0.1589092E-01 Eh
 * total energy  :  -233.6754376 Eh     change       -0.9143706E-02 Eh
 * total energy  :  -233.6807446 Eh     change       -0.5307055E-02 Eh
 * total energy  :  -233.6843235 Eh     change       -0.3578907E-02 Eh
 * total energy  :  -233.6870627 Eh     change       -0.2739154E-02 Eh
 * total energy  :  -233.7016864 Eh     change       -0.1046012E-04 Eh
 * total energy  :  -233.7016969 Eh     change       -0.1045947E-04 Eh
 * total energy  :  -233.7017090 Eh     change       -0.1211977E-04 Eh
 * total energy  :  -233.7017234 Eh     change       -0.1444263E-04 Eh
 * total energy  :  -233.7017382 Eh     change       -0.1479480E-04 Eh
 * total energy  :  -233.7017506 Eh     change       -0.1233715E-04 Eh
 * total energy  :  -233.7017600 Eh     change       -0.9394000E-05 Eh
 * total energy  :  -233.7017667 Eh     change       -0.6713227E-05 Eh
 * total energy  :  -233.7017691 Eh     change       -0.2394853E-05 Eh
   *** GEOMETRY OPTIMIZATION CONVERGED AFTER 68 ITERATIONS ***

 final structure:
================
128
 xtb: 6.5.1 (b24c23e)
C           15.70887518603204       -0.14951822350169       -0.01046467646795
C           16.32720414383783       -1.37874130789468       -0.19670175401400
C           15.68805824298418       -2.64011948654184       -0.35659614395695
C           16.66046574034720       -3.58972052222212       -0.49486176291645
C           17.92530708555046       -2.93720063040911       -0.43222511177647
N           17.67330237201028       -1.60753161172709       -0.25001094388283
C           19.19330831883794       -3.52562608961851       -0.48741179118159
C           20.40785038734472       -2.84436900888889       -0.37384934534895
C           21.70374116034881       -3.49362486860069       -0.44899200149714
C           22.62572523648921       -2.51800196067624       -0.32018731238908
N           20.56673562678317       -1.50107037075579       -0.21701521815627
C           21.89682831226863       -1.27284994776296       -0.18623023528810
C           22.53694749293375       -0.02236047642378       -0.06196257627984
C           21.88701354698435        1.22018044906722        0.06983949138679
C           22.51152555169614        2.48903054852808        0.19051297992817
C           21.53404823867639        3.43317816357883        0.33469454691945
C           20.27646127033377        2.77083864896566        0.28860495507403
C           19.01133708801389        3.35198842592134        0.42615560456902
C           18.97026443283284        4.81874976551634        0.64061057916978
C           19.45598350311810        5.69679355418895       -0.33167891082101
C           19.40842830042083        7.06315404435125       -0.12401768723107
C           18.88031783408872        7.57715620081186        1.06180221040407
C           18.85141440108145        9.04875845073455        1.23845754918137
O           18.33169470144155        9.43824443665847        2.41238478902331
O           19.24914239204023        9.84002616781569        0.42149361712771
C           18.39712440292367        6.70441678033741        2.03728800242068
C           18.44021174917290        5.33779503519816        1.82477342423523
C           17.79586287162893        2.66232311520532        0.37782232648437
C           16.49123383208190        3.30123772934135        0.46416611374497
C           15.57626116141855        2.31979808549259        0.33632801380583
C           16.32044325925286        1.08434473883120        0.16550562791460
N           17.65362052551956        1.32887911263724        0.19418720022018
N           20.54105321602842        1.43647797204613        0.12545727731230
C           19.22736647604059       -4.99582080867849       -0.68320920312815
C           18.70685719532592       -5.56109735507759       -1.85012435451821
C           18.73110044087260       -6.93170779057325       -2.04011521562710
C           19.27354235202682       -7.76192413078804       -1.05881589787277
C           19.31754990607870       -9.23589095393341       -1.21127506774861
O           18.78840984781742       -9.67225714387116       -2.36438758822175
O           19.77805585667691       -9.99103994971623       -0.39324180193587
C           19.79289626393437       -7.20154366771514        0.10979912262517
C           19.77165995517418       -5.83145850539974        0.29539518758115
H           14.62383801949265       -0.16456218045015       -0.00221647264725
H           14.62009147095183       -2.78883537585606       -0.35633709218930
H           16.52040555686055       -4.65125664095980       -0.61903496284188
H           18.38917028011834       -0.89487772950825       -0.15645198351437
H           21.86649042919702       -4.54973397307403       -0.58972020596477
H           23.69864169369505       -2.61034640785889       -0.31274854294413
H           23.57518589812265        2.65392163617481        0.16769132701310
H           21.67052795724580        4.49390722623027        0.46704047466759
H           19.85343324359299        5.30115947138621       -1.25946443884791
H           19.77737556102036        7.75069040785212       -0.87721603802225
H           18.34884088642473       10.40834005296925        2.44984848694178
H           17.98946819772751        7.09850239902651        2.96067302705589
H           18.07475070590261        4.65900830120162        2.58704983645431
H           16.32390650882486        4.35881587202583        0.58988733010009
H           14.50014569119948        2.39368831238895        0.34480851277772
H           19.83039929351309        0.71443650237710        0.06885158624824
H           18.29620776146915       -4.91539575946494       -2.61826340076212
H           18.33042615884812       -7.36157572296912       -2.95052343571069
H           18.85714888893805      -10.64052853687278       -2.38739489306536
H           20.20907375442932       -7.85644854308279        0.86742936362148
H           20.16277035204909       -5.39974633436825        1.20957894125892
C           33.40563633928208        0.13830902037431        0.05772807174065
C           32.78731240199787        1.32055758951957        0.44239330395824
C           33.42646158389962        2.51972862661372        0.86503481678121
C           32.45405673701180        3.43053221634673        1.16719626713108
C           31.18921455602770        2.81920121854249        0.93060162540277
N           31.44121532499658        1.54897408677252        0.49730505063187
C           29.92121614751666        3.36992145011825        1.14508531416675
C           28.70666960511616        2.71007110965583        0.94113512012343
C           27.41078125410477        3.32411378182254        1.16505009772124
C           26.48879273290768        2.39430370489053        0.84275238228909
N           28.54777805406383        1.43904180493197        0.47903996861672
C           27.21768383693860        1.22125228231163        0.40422526882439
C           26.57755939086033        0.04778329802407       -0.04536455269684
C           27.22748936469883       -1.12196188939479       -0.48466104024244
C           26.60297416905465       -2.31022673107873       -0.94570978901703
C           27.58044915761086       -3.21880226421541       -1.24015518945427
C           28.83803711468338       -2.60611159338628       -0.98437212828015
C           30.10315814998965       -3.18725228017243       -1.12198310415988
C           30.14423080488316       -4.59447056610432       -1.58794207687872
C           29.65851314497072       -4.94336685955288       -2.85070905710582
C           29.70600346430815       -6.25780692097849       -3.27769464906762
C           30.23415111439622       -7.24892283530702       -2.44822772159295
C           30.26338667649096       -8.64346296947947       -2.95028308288472
O           30.78270985804294       -9.51802749540728       -2.07544059395806
O           29.86535005683950       -8.98448326437673       -4.03517033488077
C           30.71731872494544       -6.90620498561597       -1.18497153358054
C           30.67425900939390       -5.58936170137729       -0.76219087972627
C           31.31863512181090       -2.54913218366571       -0.85595668161164
C           32.62326139881213       -3.15894991170773       -1.06523538043448
C           33.53823864701924       -2.22437994177257       -0.73944950796265
C           32.79406231661537       -1.04347271792333       -0.33821116719408
N           31.46088388376072       -1.27489881764125       -0.42222652934647
N           28.57344870783830       -1.34024178071977       -0.53192241374900
C           29.88715839596125        4.77185328946798        1.62922972546600
C           30.40767040693006        5.80031331432533        0.83961307409666
C           30.38346399688394        7.11062380536756        1.28431617626809
C           29.84102310814947        7.41275764343119        2.53368411962091
C           29.79644858398099        8.79871781286326        3.05798509348719
O           30.32616751414602        9.70567036889447        2.22317681722483
O           29.33654602001953        9.10686297134440        4.12806323495732
C           29.32177825947005        6.38789759867922        3.32706753773004
C           29.34289983859893        5.08003674971767        2.87863694665214
H           34.49067342852011        0.14804877898596        0.07185939520098
H           34.49442830616885        2.65253384773284        0.93196135514823
H           32.59411875610824        4.43506212252149        1.53215849360777
H           30.72534624529827        0.87002370552248        0.26139512386313
H           27.24803726987835        4.33122082132424        1.51276792036633
H           25.41587651911189        2.47351904851101        0.89079564622889
H           25.53931357926091       -2.44737706572675       -1.04004627163134
H           27.44396744759550       -4.22627257213333       -1.59745744401600
H           29.26110142258665       -4.17373454941533       -3.50263650313617
H           29.33714560072151       -6.53463655520845       -4.25924834273247
H           30.76538961460664      -10.40197046708330       -2.47684640835643
H           31.12498881198316       -7.67247106985690       -0.53630576041416
H           31.03970727156107       -5.32440989210774        0.22352030493643
H           32.79058313805757       -4.16063667562498       -1.42704018118239
H           34.61435388994856       -2.29423755320858       -0.76498936471201
H           29.28410377794897       -0.66946723050560       -0.25877780014156
H           30.81831437433043        5.56754098284297       -0.13649627298157
H           30.78409591237828        7.90305007403659        0.66324960094572
H           30.25772622073137       10.58144897327350        2.63687130508255
H           28.90547612617342        6.63362794690845        4.29784778718092
H           28.95174546366051        4.28428033400081        3.50221123960676
C           23.94830386173586        0.00105737622666       -0.06396847465568
C           25.16620279853747        0.02775299332306       -0.05765238580285

          :  Hamiltonian                  GFN1-xTB          :
         :: total energy            -233.701769076579 Eh    ::
         :: gradient norm              0.000305563180 Eh/a0 ::
         :: HOMO-LUMO gap              1.006789849349 eV    ::
         :: SCC energy              -237.100663287868 Eh    ::
         :: repulsion energy           3.507971512706 Eh    ::

    * Orbital Energies and Occupations

         #    Occupation            Energy/Eh            Energy/eV
      -------------------------------------------------------------
         1        2.0000           -0.8324329             -22.6517
       ...           ...                  ...                  ...
       193        2.0000           -0.4420467             -12.0287
       194        2.0000           -0.4303257             -11.7098
       195        2.0000           -0.4289891             -11.6734
       196        2.0000           -0.4289781             -11.6731
       197        2.0000           -0.4277945             -11.6409
       198        2.0000           -0.4248598             -11.5610
       199        2.0000           -0.4248320             -11.5603
       200        2.0000           -0.4239632             -11.5366
       201        2.0000           -0.4239154             -11.5353
       202        2.0000           -0.4076436             -11.0925
       203        2.0000           -0.4071985             -11.0804
       204        2.0000           -0.3997039             -10.8765
       205        2.0000           -0.3867945             -10.5252 (HOMO)
       206                         -0.3497957              -9.5184 (LUMO)
       207                         -0.3412075              -9.2847
       208                         -0.3409604              -9.2780
       209                         -0.3332762              -9.0689
       210                         -0.3152279              -8.5778
       211                         -0.3128377              -8.5127
       212                         -0.3087529              -8.4016
       213                         -0.3087280              -8.4009
       214                         -0.3006336              -8.1807
       215                         -0.2937422              -7.9931
       216                         -0.2785651              -7.5801
       ...                                ...                  ...
       428                          1.3209595              35.9451
      -------------------------------------------------------------
                  HL-Gap            0.0369988 Eh            1.0068 eV

Wiberg/Mayer (AO) data.
largest (>0.10) Wiberg bond orders for each atom

     #   Z sym  total        # sym  WBO       # sym  WBO       # sym  WBO
 ---------------------------------------------------------------------------
     1   6 C    3.926 --    31 C    1.367     2 C    1.347    43 H    0.971
     2   6 C    3.901 --     1 C    1.347     3 C    1.229     6 N    1.169
     3   6 C    3.954 --     4 C    1.597     2 C    1.229    44 H    0.976
     4   6 C    3.959 --     3 C    1.597     5 C    1.233    45 H    0.974
     5   6 C    3.897 --     7 C    1.303     4 C    1.233     6 N    1.178
     6   7 N    3.470 --     5 C    1.178     2 C    1.169    46 H    0.874
     7   6 C    3.938 --     8 C    1.334     5 C    1.303    34 C    1.029
     8   6 C    3.915 --     7 C    1.334    11 N    1.287     9 C    1.125
     9   6 C    3.965 --    10 C    1.709     8 C    1.125    47 H    0.973
    10   6 C    3.964 --     9 C    1.709    12 C    1.129    48 H    0.966
    11   7 N    3.021 --    12 C    1.342     8 C    1.287
    12   6 C    3.912 --    11 N    1.342    13 C    1.259    10 C    1.129
    13   6 C    3.938 --    12 C    1.259    14 C    1.256   127 C    1.180
    14   6 C    3.888 --    13 C    1.256    15 C    1.249    33 N    1.187
    15   6 C    3.959 --    16 C    1.583    14 C    1.249    49 H    0.967
    16   6 C    3.954 --    15 C    1.583    17 C    1.240    50 H    0.974
    17   6 C    3.898 --    18 C    1.308    16 C    1.240    33 N    1.167
    18   6 C    3.924 --    28 C    1.321    17 C    1.308    19 C    1.030
    19   6 C    3.986 --    20 C    1.386    27 C    1.386    18 C    1.030
    20   6 C    3.986 --    21 C    1.464    19 C    1.386    51 H    0.972
                            26 C    0.102
    21   6 C    3.990 --    20 C    1.464    22 C    1.385    52 H    0.968
                            27 C    0.103
    22   6 C    3.982 --    26 C    1.388    21 C    1.385    23 C    1.009
    23   6 C    3.836 --    25 O    1.689    24 O    1.088    22 C    1.009
    24   8 O    2.097 --    23 C    1.088    53 H    0.838    25 O    0.128
    25   8 O    1.957 --    23 C    1.689    24 O    0.128
    26   6 C    3.991 --    27 C    1.462    22 C    1.388    54 H    0.970
                            20 C    0.102
    27   6 C    3.987 --    26 C    1.462    19 C    1.386    55 H    0.972
                            21 C    0.103
    28   6 C    3.929 --    18 C    1.321    32 N    1.317    29 C    1.116
    29   6 C    3.967 --    30 C    1.724    28 C    1.116    56 H    0.974
    30   6 C    3.966 --    29 C    1.724    31 C    1.116    57 H    0.976
    31   6 C    3.928 --     1 C    1.367    32 N    1.300    30 C    1.116
    32   7 N    3.011 --    28 C    1.317    31 C    1.300
    33   7 N    3.473 --    14 C    1.187    17 C    1.167    58 H    0.873
    34   6 C    3.986 --    35 C    1.387    42 C    1.386     7 C    1.029
    35   6 C    3.987 --    36 C    1.461    34 C    1.387    59 H    0.972
                            41 C    0.103
    36   6 C    3.991 --    35 C    1.461    37 C    1.389    60 H    0.970
                            42 C    0.103
    37   6 C    3.983 --    36 C    1.389    41 C    1.385    38 C    1.009
    38   6 C    3.836 --    40 O    1.690    39 O    1.088    37 C    1.009
    39   8 O    2.096 --    38 C    1.088    61 H    0.838    40 O    0.128
    40   8 O    1.958 --    38 C    1.690    39 O    0.128
    41   6 C    3.990 --    42 C    1.464    37 C    1.385    62 H    0.968
                            35 C    0.103
    42   6 C    3.988 --    41 C    1.464    34 C    1.386    63 H    0.972
                            36 C    0.103
    43   1 H    1.002 --     1 C    0.971
    44   1 H    0.997 --     3 C    0.976
    45   1 H    1.004 --     4 C    0.974
    46   1 H    0.986 --     6 N    0.874
    47   1 H    1.004 --     9 C    0.973
    48   1 H    1.007 --    10 C    0.966
    49   1 H    1.007 --    15 C    0.967
    50   1 H    1.004 --    16 C    0.974
    51   1 H    1.004 --    20 C    0.972
    52   1 H    1.005 --    21 C    0.968
    53   1 H    0.873 --    24 O    0.838
    54   1 H    1.005 --    26 C    0.970
    55   1 H    1.004 --    27 C    0.972
    56   1 H    1.004 --    29 C    0.974
    57   1 H    0.998 --    30 C    0.976
    58   1 H    0.987 --    33 N    0.873
    59   1 H    1.004 --    35 C    0.972
    60   1 H    1.005 --    36 C    0.970
    61   1 H    0.873 --    39 O    0.838
    62   1 H    1.005 --    41 C    0.968
    63   1 H    1.004 --    42 C    0.972
    64   6 C    3.926 --    94 C    1.367    65 C    1.347   106 H    0.971
    65   6 C    3.901 --    64 C    1.347    66 C    1.229    69 N    1.169
    66   6 C    3.954 --    67 C    1.597    65 C    1.229   107 H    0.976
    67   6 C    3.959 --    66 C    1.597    68 C    1.233   108 H    0.974
    68   6 C    3.897 --    70 C    1.303    67 C    1.233    69 N    1.178
    69   7 N    3.470 --    68 C    1.178    65 C    1.169   109 H    0.874
    70   6 C    3.938 --    71 C    1.334    68 C    1.303    97 C    1.029
    71   6 C    3.915 --    70 C    1.334    74 N    1.287    72 C    1.125
    72   6 C    3.965 --    73 C    1.709    71 C    1.125   110 H    0.973
    73   6 C    3.964 --    72 C    1.709    75 C    1.129   111 H    0.966
    74   7 N    3.021 --    75 C    1.342    71 C    1.287
    75   6 C    3.912 --    74 N    1.342    76 C    1.259    73 C    1.129
    76   6 C    3.938 --    75 C    1.259    77 C    1.256   128 C    1.180
    77   6 C    3.888 --    76 C    1.256    78 C    1.249    96 N    1.187
    78   6 C    3.959 --    79 C    1.583    77 C    1.249   112 H    0.967
    79   6 C    3.954 --    78 C    1.583    80 C    1.240   113 H    0.974
    80   6 C    3.898 --    81 C    1.308    79 C    1.240    96 N    1.167
    81   6 C    3.924 --    91 C    1.321    80 C    1.308    82 C    1.030
    82   6 C    3.986 --    83 C    1.386    90 C    1.386    81 C    1.030
    83   6 C    3.986 --    84 C    1.464    82 C    1.386   114 H    0.972
                            89 C    0.102
    84   6 C    3.990 --    83 C    1.464    85 C    1.385   115 H    0.968
                            90 C    0.103
    85   6 C    3.982 --    89 C    1.388    84 C    1.385    86 C    1.009
    86   6 C    3.836 --    88 O    1.689    87 O    1.088    85 C    1.009
    87   8 O    2.097 --    86 C    1.088   116 H    0.838    88 O    0.128
    88   8 O    1.957 --    86 C    1.689    87 O    0.128
    89   6 C    3.991 --    90 C    1.462    85 C    1.388   117 H    0.970
                            83 C    0.102
    90   6 C    3.987 --    89 C    1.462    82 C    1.386   118 H    0.972
                            84 C    0.103
    91   6 C    3.929 --    81 C    1.321    95 N    1.317    92 C    1.116
    92   6 C    3.967 --    93 C    1.724    91 C    1.116   119 H    0.974
    93   6 C    3.966 --    92 C    1.724    94 C    1.116   120 H    0.976
    94   6 C    3.928 --    64 C    1.367    95 N    1.300    93 C    1.116
    95   7 N    3.011 --    91 C    1.317    94 C    1.300
    96   7 N    3.473 --    77 C    1.187    80 C    1.167   121 H    0.873
    97   6 C    3.986 --    98 C    1.387   105 C    1.386    70 C    1.029
    98   6 C    3.987 --    99 C    1.461    97 C    1.387   122 H    0.972
                           104 C    0.103
    99   6 C    3.991 --    98 C    1.461   100 C    1.389   123 H    0.970
                           105 C    0.103
   100   6 C    3.983 --    99 C    1.389   104 C    1.385   101 C    1.009
   101   6 C    3.836 --   103 O    1.690   102 O    1.088   100 C    1.009
   102   8 O    2.096 --   101 C    1.088   124 H    0.838   103 O    0.128
   103   8 O    1.958 --   101 C    1.690   102 O    0.128
   104   6 C    3.990 --   105 C    1.464   100 C    1.385   125 H    0.968
                            98 C    0.103
   105   6 C    3.988 --   104 C    1.464    97 C    1.386   126 H    0.972
                            99 C    0.103
   106   1 H    1.002 --    64 C    0.971
   107   1 H    0.997 --    66 C    0.976
   108   1 H    1.004 --    67 C    0.974
   109   1 H    0.986 --    69 N    0.874
   110   1 H    1.004 --    72 C    0.973
   111   1 H    1.007 --    73 C    0.966
   112   1 H    1.007 --    78 C    0.967
   113   1 H    1.004 --    79 C    0.974
   114   1 H    1.004 --    83 C    0.972
   115   1 H    1.005 --    84 C    0.968
   116   1 H    0.873 --    87 O    0.838
   117   1 H    1.005 --    89 C    0.970
   118   1 H    1.004 --    90 C    0.972
   119   1 H    1.004 --    92 C    0.974
   120   1 H    0.998 --    93 C    0.976
   121   1 H    0.987 --    96 N    0.873
   122   1 H    1.004 --    98 C    0.972
   123   1 H    1.005 --    99 C    0.970
   124   1 H    0.873 --   102 O    0.838
   125   1 H    1.005 --   104 C    0.968
   126   1 H    1.004 --   105 C    0.972
   127   6 C    3.933 --   128 C    2.577    13 C    1.180
   128   6 C    3.933 --   127 C    2.577    76 C    1.180
 ---------------------------------------------------------------------------

           -------------------------------------------------
          | TOTAL ENERGY             -233.701769076579 Eh   |
          | GRADIENT NORM               0.000305563180 Eh/α |
          | HOMO-LUMO GAP               1.006789849349 eV   |
           -------------------------------------------------

 * finished run on 2022/07/30 at 03:19:46.580
