   * xtb version 6.5.1 (b24c23e) compiled by 'conda@728c89f4b128' on 2022-07-12
          program call               : xtb Co_Ph3OH_C2_2.xyz --gfn 1 --opt -T 48

   ID    Z sym.   atoms
    1   27 Co     1, 63
    2    6 C      2-6, 8-11, 13, 15, 17-20, 22-27, 29-32, 34, 36, 38-42,
                  64-68, 70-73, 75, 77, 79-82, 84-89, 91-94, 96, 98, 100-104,
                  125, 126
    3    7 N      7, 21, 28, 43, 69, 83, 90, 105
    4    8 O      12, 14, 16, 33, 35, 37, 74, 76, 78, 95, 97, 99
    5    1 H      44-62, 106-124
########################################################################
[WARNING] Please study the warnings concerning your input carefully
-1- prog_main_parseArguments: Unknown option '-T' provided
########################################################################

          :  Hamiltonian                  GFN1-xTB          :
 * total energy  :  -248.6871530 Eh     change       -0.1616854E-08 Eh
 * total energy  :  -248.8505291 Eh     change       -0.1633761E+00 Eh
 * total energy  :  -248.9304804 Eh     change       -0.7995128E-01 Eh
 * total energy  :  -248.9601430 Eh     change       -0.2966259E-01 Eh
 * total energy  :  -248.9736126 Eh     change       -0.1346961E-01 Eh
 * total energy  :  -248.9802057 Eh     change       -0.6593111E-02 Eh
 * total energy  :  -248.9832535 Eh     change       -0.3047848E-02 Eh
 * total energy  :  -248.9847450 Eh     change       -0.1491456E-02 Eh
 * total energy  :  -248.9856210 Eh     change       -0.8760025E-03 Eh
 * total energy  :  -248.9861566 Eh     change       -0.5355968E-03 Eh
 * total energy  :  -248.9894774 Eh     change       -0.1551895E-04 Eh
 * total energy  :  -248.9894906 Eh     change       -0.1323778E-04 Eh
 * total energy  :  -248.9895016 Eh     change       -0.1098746E-04 Eh
 * total energy  :  -248.9895111 Eh     change       -0.9514172E-05 Eh
 * total energy  :  -248.9895195 Eh     change       -0.8308911E-05 Eh
 * total energy  :  -248.9895265 Eh     change       -0.7088324E-05 Eh
 * total energy  :  -248.9895325 Eh     change       -0.5972260E-05 Eh
 * total energy  :  -248.9895377 Eh     change       -0.5200842E-05 Eh
 * total energy  :  -248.9895421 Eh     change       -0.4354045E-05 Eh
   *** GEOMETRY OPTIMIZATION CONVERGED AFTER 62 ITERATIONS ***

 final structure:
================
126
 xtb: 6.5.1 (b24c23e)
Co          17.30264148814378        0.08157378849399        0.03593832137347
C           13.93647660157735        0.12370373062866        0.27419663340502
C           14.58906821791324        1.30609693846228       -0.00197010746118
C           13.92006120119974        2.55245203233304       -0.21942541178470
C           14.88231399257216        3.50125523468335       -0.29438581733817
C           16.13896602442128        2.83317522093665       -0.11872607552695
N           15.94936433976537        1.48088422126096        0.01541871493032
C           17.34416882854741        3.49050517904510        0.08760497279033
C           17.35888210788584        4.97464760410453        0.09603471862485
C           17.08239884163699        5.68213830291849       -1.07310935377359
C           17.09782232933802        7.07227474547858       -1.06484234582707
O           16.83853926606920        7.77164798237863       -2.19632265739881
C           17.38209632159281        7.75736560063132        0.11762355003994
O           17.38611778445134        9.12749975121445        0.09636503779697
C           17.65310186038820        7.04912516998242        1.28557508772752
O           17.91816107535815        7.79079661991284        2.40652027687721
C           17.64651511105636        5.65958138699956        1.27899412453217
C           18.52857271351715        2.80364942726008        0.30637243834033
C           19.79016488844929        3.43867951560612        0.54151154478885
C           20.72876433833709        2.46253902174390        0.52413367822014
N           18.69285140082469        1.44219230594588        0.18256925990534
C           20.04241188598518        1.23755749567737        0.26171031143313
C           20.69766140610725        0.03501585388356       -0.01101831568073
C           19.99757022418424       -1.14192267013489       -0.28724035959152
C           20.63377066260960       -2.37171979454996       -0.63675380602878
C           19.66398413796692       -3.31690591206050       -0.66852541781973
C           18.43475703151016       -2.65926202449210       -0.34158237654315
N           18.64834079149884       -1.31206445872480       -0.15344150829836
C           17.24912222300129       -3.32566637093843       -0.07003997353356
C           17.22522988805831       -4.80737874952078       -0.15036987289032
C           17.02379840371357       -5.56695670577221        1.00148007915757
C           17.01198595261953       -6.95507349055961        0.92615815948510
O           16.82537344985962       -7.70459465132002        2.03980090080559
C           17.19495054955489       -7.58615836044692       -0.30531515879140
O           17.17719896111101       -8.95562813678879       -0.34876021820408
C           17.39136554076878       -6.82602446528586       -1.45547135272322
O           17.56030554235972       -7.51607583078117       -2.62685044306154
C           17.41107160800507       -5.43849872233736       -1.38262112882051
C           16.08918545103039       -2.65001340255600        0.28344365374965
C           14.84247681668064       -3.29419376415413        0.57840542286478
C           13.91178128370528       -2.31765416864035        0.68506301847708
C           14.58716318041830       -1.07941804099356        0.44101876103700
N           15.92997567351766       -1.28763355341071        0.24784582762858
H           12.85539095735070        0.13799728597151        0.34786629051876
H           12.85006789906354        2.66727060380395       -0.28968770174760
H           14.76473530509409        4.56377754183903       -0.43213972974555
H           16.87237724577836        5.15977487763802       -1.99744093903198
H           16.89600408239371        8.71906189854242       -1.98924623415009
H           17.59950967916777        9.43946416579819        0.99022605185577
H           18.09258215873932        7.21826048278536        3.16503733067140
H           17.84506378820631        5.11412729762374        2.19403531673976
H           19.93160434401968        4.49798338941349        0.68108726872819
H           21.79450457866740        2.55178663598726        0.65770348074041
H           21.68936295173848       -2.48478866655572       -0.82282483874581
H           19.76569875474319       -4.37025187934634       -0.87278024950387
H           16.89585527302029       -5.08770945375496        1.96341874065951
H           16.85025249393989       -8.64162187060004        1.78464187595955
H           17.31908270565996       -9.22726340578151       -1.26952380251346
H           17.68757203782331       -6.90971095514612       -3.36834301727674
H           17.55280149501402       -4.85221467044573       -2.28291139067969
H           14.70714171783961       -4.35951951977985        0.67042097851593
H           12.85597905394154       -2.40814432350905        0.88524422638617
Co          28.12287849611927       -0.08512773553095        0.02652845886989
C           31.48903820729071       -0.15432199396285        0.25844236382870
C           30.83633627018684       -1.29772346818040       -0.14998362283463
C           31.50522333057184       -2.51145155361478       -0.50735007872863
C           30.54287854048287       -3.44554181144968       -0.68940788789688
C           29.28629068897923       -2.80156477222629       -0.43912385600224
N           29.47602310299591       -1.47321607057162       -0.15254300012566
C           28.08103422570721       -3.47793894653316       -0.30857324601220
C           28.06617453530390       -4.95346890137788       -0.46843002328412
C           28.34257931465316       -5.52390533215444       -1.71023833405535
C           28.32700837109626       -6.90601792514980       -1.85959835425370
O           28.58621482765112       -7.47265646883798       -3.06306492753145
C           28.04266023419685       -7.72069823120873       -0.76240697203767
O           28.03848489185282       -9.07959162794074       -0.93883700671428
C           27.77173634996105       -7.14938306802331        0.47830178217691
O           27.50659712484740       -8.01330633970724        1.50795661453906
C           27.77847641103329       -5.76805012976995        0.62927126332942
C           26.89670861915104       -2.82019929859563       -0.01328287476214
C           25.63506665527158       -3.47767130429921        0.14844985870617
C           24.69655695386785       -2.50576580141364        0.24183288986082
N           26.73255054646010       -1.45346694730953        0.01799085401718
C           25.38301201683123       -1.25899824110930        0.11987149968158
C           24.72786408053967       -0.03323893822839       -0.01481058760829
C           25.42805262550688        1.16736687005060       -0.15582943025741
C           24.79195103683878        2.42891853517254       -0.36361646409611
C           25.76182287976963        3.37152675155120       -0.28805929461399
C           26.99100314152664        2.68094525487073       -0.03785920877260
N           26.77730379798719        1.32112298944195       -0.00366877671348
C           28.17671991840612        3.31216778168328        0.30737591612501
C           28.20076037014758        4.79343694252914        0.39549594484219
C           28.40226168937770        5.41754925206909        1.62601256147335
C           28.41422239283419        6.80525718134028        1.70850287873243
O           28.60090321776266        7.42371068901913        2.89991919050170
C           28.23134137502415        7.57186801748900        0.55649002454737
O           28.24924760459373        8.93743620162976        0.66853749546614
C           28.03485417034232        6.94701023804556       -0.67240656823127
O           27.86600446867541        7.76539633825802       -1.75802905141640
C           28.01499377716112        5.56016988818594       -0.75728462340710
C           29.33660674066831        2.60069876388383        0.58193672670423
C           30.58338147395636        3.20718334559329        0.94797290928016
C           31.51397490444265        2.22475137028380        0.94329753254367
C           30.83846792989166        1.02220931778060        0.56052797959117
N           29.49568044828752        1.25111446259128        0.39217856085782
H           32.57012060957334       -0.17698202363998        0.33002921453818
H           32.57520632907893       -2.61767046527658       -0.59017218430553
H           30.66035546763528       -4.48560483367811       -0.94674612668942
H           28.55265153875505       -4.90015723985559       -2.56940640194683
H           28.52864978707289       -8.43743066640787       -2.96471237777115
H           27.82505905504580       -9.49084290004543       -0.08609601072599
H           27.33222813061815       -7.53041884287537        2.32648194275525
H           27.57999590576789       -5.32981353632222        1.60024825525868
H           25.49353074104501       -4.54595502882386        0.16711676149515
H           23.63081625423191       -2.60948269132401        0.36449877862223
H           23.73635803315235        2.56244654308252       -0.53559522324206
H           25.66020149889270        4.44124969375921       -0.37154418847921
H           28.53014853430139        4.83235040161211        2.52743381975946
H           28.57612848715812        8.38362200379149        2.75260413567917
H           28.10740839388867        9.31169431193612       -0.21550713561215
H           27.73869588595802        7.24699204372996       -2.56347049275560
H           27.87320093082451        5.07971503303517       -1.71822028624193
H           30.71882388401992        4.25520896167667        1.16010115406218
H           32.56978377751075        2.29186673893286        1.15244496639485
C           22.10429291552707        0.01107165218818       -0.02135003577543
C           23.32123416189639       -0.00818973049245       -0.02242213171761

          :  Hamiltonian                  GFN1-xTB          :
         :: total energy            -248.989542068708 Eh    ::
         :: gradient norm              0.000305206850 Eh/a0 ::
         :: HOMO-LUMO gap              0.011336223716 eV    ::
         :: SCC energy              -252.203256441801 Eh    ::
         :: repulsion energy           3.326710931786 Eh    ::

    * Orbital Energies and Occupations

         #    Occupation            Energy/Eh            Energy/eV
      -------------------------------------------------------------
         1        2.0000           -0.8134104             -22.1340
       ...           ...                  ...                  ...
       204        2.0000           -0.4119905             -11.2108
       205        2.0000           -0.4119806             -11.2106
       206        2.0000           -0.3986245             -10.8471
       207        2.0000           -0.3973016             -10.8111
       208        2.0000           -0.3972756             -10.8104
       209        2.0000           -0.3952232             -10.7546
       210        2.0000           -0.3951586             -10.7528
       211        1.9998           -0.3919393             -10.6652
       212        1.9998           -0.3919386             -10.6652
       213        1.9998           -0.3918570             -10.6630
       214        1.9998           -0.3918555             -10.6629
       215        1.9055           -0.3858830             -10.5004
       216        1.1565           -0.3833288             -10.4309 (HOMO)
       217        0.9387           -0.3829122             -10.4196 (LUMO)
       218                         -0.3388915              -9.2217
       219                         -0.3278575              -8.9215
       220                         -0.3278431              -8.9211
       221                         -0.3224865              -8.7753
       222                         -0.2966687              -8.0728
       223                         -0.2943628              -8.0100
       224                         -0.2943433              -8.0095
       225                         -0.2879351              -7.8351
       226                         -0.2556524              -6.9567
       227                         -0.2556485              -6.9565
       ...                                ...                  ...
       438                          1.3394332              36.4478
      -------------------------------------------------------------
                  HL-Gap            0.0004166 Eh            0.0113 eV

Wiberg/Mayer (AO) data.
largest (>0.10) Wiberg bond orders for each atom

     #   Z sym  total        # sym  WBO       # sym  WBO       # sym  WBO
 ---------------------------------------------------------------------------
     1  27 Co   3.053 --    43 N    0.640     7 N    0.637    21 N    0.635
                            28 N    0.633
     2   6 C    3.928 --    42 C    1.367     3 C    1.362    44 H    0.970
     3   6 C    3.925 --     2 C    1.362     7 N    1.204     4 C    1.174
     4   6 C    3.960 --     5 C    1.650     3 C    1.174    45 H    0.975
     5   6 C    3.963 --     4 C    1.650     6 C    1.176    46 H    0.973
     6   6 C    3.919 --     8 C    1.322     7 N    1.211     5 C    1.176
     7   7 N    3.347 --     6 C    1.211     3 C    1.204     1 Co   0.637
     8   6 C    3.931 --    18 C    1.334     6 C    1.322     9 C    1.021
     9   6 C    3.988 --    10 C    1.401    17 C    1.389     8 C    1.021
    10   6 C    3.977 --     9 C    1.401    11 C    1.379    47 H    0.970
    11   6 C    3.917 --    10 C    1.379    13 C    1.324    12 O    1.053
    12   8 O    2.049 --    11 C    1.053    48 H    0.847
    13   6 C    3.904 --    15 C    1.341    11 C    1.324    14 O    1.021
    14   8 O    2.021 --    13 C    1.021    49 H    0.846
    15   6 C    3.905 --    17 C    1.383    13 C    1.341    16 O    1.014
    16   8 O    2.025 --    15 C    1.014    50 H    0.860
    17   6 C    3.973 --     9 C    1.389    15 C    1.383    51 H    0.970
    18   6 C    3.917 --     8 C    1.334    21 N    1.194    19 C    1.182
    19   6 C    3.959 --    20 C    1.637    18 C    1.182    52 H    0.973
    20   6 C    3.962 --    19 C    1.637    22 C    1.189    53 H    0.970
    21   7 N    3.345 --    22 C    1.230    18 C    1.194     1 Co   0.635
    22   6 C    3.910 --    23 C    1.265    21 N    1.230    20 C    1.189
    23   6 C    3.932 --    22 C    1.265    24 C    1.261   125 C    1.179
    24   6 C    3.910 --    23 C    1.261    28 N    1.232    25 C    1.191
    25   6 C    3.962 --    26 C    1.636    24 C    1.191    54 H    0.970
    26   6 C    3.958 --    25 C    1.636    27 C    1.183    55 H    0.973
    27   6 C    3.916 --    29 C    1.332    28 N    1.193    26 C    1.183
    28   7 N    3.348 --    24 C    1.232    27 C    1.193     1 Co   0.633
    29   6 C    3.931 --    27 C    1.332    39 C    1.322    30 C    1.021
    30   6 C    3.988 --    31 C    1.401    38 C    1.388    29 C    1.021
    31   6 C    3.977 --    30 C    1.401    32 C    1.379    56 H    0.970
    32   6 C    3.917 --    31 C    1.379    34 C    1.324    33 O    1.053
    33   8 O    2.049 --    32 C    1.053    57 H    0.847
    34   6 C    3.904 --    36 C    1.341    32 C    1.324    35 O    1.021
    35   8 O    2.021 --    34 C    1.021    58 H    0.846
    36   6 C    3.905 --    38 C    1.383    34 C    1.341    37 O    1.014
    37   8 O    2.025 --    36 C    1.014    59 H    0.860
    38   6 C    3.973 --    30 C    1.388    36 C    1.383    60 H    0.970
    39   6 C    3.920 --    29 C    1.322    43 N    1.212    40 C    1.176
    40   6 C    3.963 --    41 C    1.651    39 C    1.176    61 H    0.972
    41   6 C    3.960 --    40 C    1.651    42 C    1.173    62 H    0.975
    42   6 C    3.925 --     2 C    1.367    43 N    1.201    41 C    1.173
    43   7 N    3.344 --    39 C    1.212    42 C    1.201     1 Co   0.640
    44   1 H    1.000 --     2 C    0.970
    45   1 H    0.997 --     4 C    0.975
    46   1 H    1.005 --     5 C    0.973
    47   1 H    0.999 --    10 C    0.970
    48   1 H    0.878 --    12 O    0.847
    49   1 H    0.876 --    14 O    0.846
    50   1 H    0.881 --    16 O    0.860
    51   1 H    1.000 --    17 C    0.970
    52   1 H    1.005 --    19 C    0.973
    53   1 H    1.005 --    20 C    0.970
    54   1 H    1.005 --    25 C    0.970
    55   1 H    1.005 --    26 C    0.973
    56   1 H    0.999 --    31 C    0.970
    57   1 H    0.878 --    33 O    0.847
    58   1 H    0.876 --    35 O    0.846
    59   1 H    0.881 --    37 O    0.860
    60   1 H    1.000 --    38 C    0.970
    61   1 H    1.005 --    40 C    0.972
    62   1 H    0.997 --    41 C    0.975
    63  27 Co   3.053 --   105 N    0.640    69 N    0.637    83 N    0.635
                            90 N    0.633
    64   6 C    3.928 --   104 C    1.367    65 C    1.362   106 H    0.970
    65   6 C    3.925 --    64 C    1.362    69 N    1.204    66 C    1.174
    66   6 C    3.960 --    67 C    1.650    65 C    1.174   107 H    0.975
    67   6 C    3.963 --    66 C    1.650    68 C    1.176   108 H    0.973
    68   6 C    3.919 --    70 C    1.322    69 N    1.211    67 C    1.176
    69   7 N    3.347 --    68 C    1.211    65 C    1.204    63 Co   0.637
    70   6 C    3.931 --    80 C    1.334    68 C    1.322    71 C    1.021
    71   6 C    3.988 --    72 C    1.401    79 C    1.389    70 C    1.021
    72   6 C    3.977 --    71 C    1.401    73 C    1.379   109 H    0.970
    73   6 C    3.917 --    72 C    1.379    75 C    1.324    74 O    1.053
    74   8 O    2.049 --    73 C    1.053   110 H    0.847
    75   6 C    3.904 --    77 C    1.341    73 C    1.324    76 O    1.021
    76   8 O    2.021 --    75 C    1.021   111 H    0.846
    77   6 C    3.905 --    79 C    1.383    75 C    1.341    78 O    1.014
    78   8 O    2.025 --    77 C    1.014   112 H    0.860
    79   6 C    3.973 --    71 C    1.389    77 C    1.383   113 H    0.970
    80   6 C    3.917 --    70 C    1.334    83 N    1.194    81 C    1.182
    81   6 C    3.959 --    82 C    1.637    80 C    1.182   114 H    0.973
    82   6 C    3.962 --    81 C    1.637    84 C    1.189   115 H    0.970
    83   7 N    3.345 --    84 C    1.230    80 C    1.194    63 Co   0.635
    84   6 C    3.910 --    85 C    1.265    83 N    1.230    82 C    1.189
    85   6 C    3.932 --    84 C    1.265    86 C    1.261   126 C    1.179
    86   6 C    3.910 --    85 C    1.261    90 N    1.232    87 C    1.191
    87   6 C    3.962 --    88 C    1.636    86 C    1.191   116 H    0.970
    88   6 C    3.958 --    87 C    1.636    89 C    1.183   117 H    0.973
    89   6 C    3.916 --    91 C    1.332    90 N    1.193    88 C    1.183
    90   7 N    3.348 --    86 C    1.232    89 C    1.193    63 Co   0.633
    91   6 C    3.931 --    89 C    1.332   101 C    1.322    92 C    1.021
    92   6 C    3.988 --    93 C    1.401   100 C    1.388    91 C    1.021
    93   6 C    3.977 --    92 C    1.401    94 C    1.379   118 H    0.970
    94   6 C    3.917 --    93 C    1.379    96 C    1.324    95 O    1.053
    95   8 O    2.049 --    94 C    1.053   119 H    0.847
    96   6 C    3.904 --    98 C    1.341    94 C    1.324    97 O    1.021
    97   8 O    2.021 --    96 C    1.021   120 H    0.846
    98   6 C    3.905 --   100 C    1.383    96 C    1.341    99 O    1.014
    99   8 O    2.025 --    98 C    1.014   121 H    0.860
   100   6 C    3.973 --    92 C    1.388    98 C    1.383   122 H    0.970
   101   6 C    3.920 --    91 C    1.322   105 N    1.212   102 C    1.176
   102   6 C    3.963 --   103 C    1.651   101 C    1.176   123 H    0.972
   103   6 C    3.960 --   102 C    1.651   104 C    1.173   124 H    0.975
   104   6 C    3.925 --    64 C    1.367   105 N    1.201   103 C    1.173
   105   7 N    3.344 --   101 C    1.212   104 C    1.201    63 Co   0.640
   106   1 H    1.000 --    64 C    0.970
   107   1 H    0.997 --    66 C    0.975
   108   1 H    1.005 --    67 C    0.973
   109   1 H    0.999 --    72 C    0.970
   110   1 H    0.878 --    74 O    0.847
   111   1 H    0.876 --    76 O    0.846
   112   1 H    0.881 --    78 O    0.860
   113   1 H    1.000 --    79 C    0.970
   114   1 H    1.005 --    81 C    0.973
   115   1 H    1.005 --    82 C    0.970
   116   1 H    1.005 --    87 C    0.970
   117   1 H    1.005 --    88 C    0.973
   118   1 H    0.999 --    93 C    0.970
   119   1 H    0.878 --    95 O    0.847
   120   1 H    0.876 --    97 O    0.846
   121   1 H    0.881 --    99 O    0.860
   122   1 H    1.000 --   100 C    0.970
   123   1 H    1.005 --   102 C    0.972
   124   1 H    0.997 --   103 C    0.975
   125   6 C    3.930 --   126 C    2.571    23 C    1.179
   126   6 C    3.930 --   125 C    2.571    85 C    1.179
 ---------------------------------------------------------------------------

           -------------------------------------------------
          | TOTAL ENERGY             -248.989542068708 Eh   |
          | GRADIENT NORM               0.000305206850 Eh/α |
          | HOMO-LUMO GAP               0.011336223716 eV   |
           -------------------------------------------------

 * finished run on 2022/07/30 at 03:08:32.879
