   * xtb version 6.5.1 (b24c23e) compiled by 'conda@728c89f4b128' on 2022-07-12
          program call               : xtb Py_C4_2.xyz --gfn 1 --opt -T 48

   ID    Z sym.   atoms
    1    6 C      1-5, 7-10, 12-16, 18-23, 25-28, 30-35, 56-60, 62-65, 67-71,
                  73-78, 80-83, 85-90, 111-114
    2    7 N      6, 11, 17, 24, 29, 36, 61, 66, 72, 79, 84, 91
    3    1 H      37-55, 92-110
########################################################################
[WARNING] Please study the warnings concerning your input carefully
-1- prog_main_parseArguments: Unknown option '-T' provided
########################################################################

          :  Hamiltonian                  GFN1-xTB          :
 * total energy  :  -193.5592740 Eh     change       -0.2776744E-08 Eh
 * total energy  :  -193.6894992 Eh     change       -0.1302251E+00 Eh
 * total energy  :  -193.7477571 Eh     change       -0.5825790E-01 Eh
 * total energy  :  -193.7717767 Eh     change       -0.2401966E-01 Eh
 * total energy  :  -193.7880867 Eh     change       -0.1630993E-01 Eh
 * total energy  :  -193.8005483 Eh     change       -0.1246163E-01 Eh
 * total energy  :  -193.8116264 Eh     change       -0.1107814E-01 Eh
 * total energy  :  -193.8181782 Eh     change       -0.6551775E-02 Eh
 * total energy  :  -193.8250357 Eh     change       -0.6857555E-02 Eh
 * total energy  :  -193.8289820 Eh     change       -0.3946278E-02 Eh
 * total energy  :  -193.8440136 Eh     change       -0.1654109E-04 Eh
 * total energy  :  -193.8440472 Eh     change       -0.3360227E-04 Eh
 * total energy  :  -193.8440629 Eh     change       -0.1567308E-04 Eh
 * total energy  :  -193.8440822 Eh     change       -0.1925441E-04 Eh
 * total energy  :  -193.8440940 Eh     change       -0.1180167E-04 Eh
 * total energy  :  -193.8441036 Eh     change       -0.9690074E-05 Eh
 * total energy  :  -193.8441171 Eh     change       -0.1344761E-04 Eh
 * total energy  :  -193.8441251 Eh     change       -0.7953041E-05 Eh
 * total energy  :  -193.8441280 Eh     change       -0.2963461E-05 Eh
   *** GEOMETRY OPTIMIZATION CONVERGED AFTER 44 ITERATIONS ***

 final structure:
================
114
 xtb: 6.5.1 (b24c23e)
C            9.09876164216995        0.10602858854308        0.01698707589547
C            9.70323761819503        1.33432387792763        0.25126931912621
C            9.04657060319672        2.57813458416374        0.46907753244887
C           10.00484442863942        3.53045920354098        0.67356921641929
C           11.27820156787817        2.89727323427497        0.59545989973260
N           11.04554259558785        1.57776236634035        0.32974702523361
C           12.53905970747928        3.48859460208303        0.73362564964940
C           12.56232468910239        4.93649434929569        1.04921025141702
C           13.16140857576029        5.85654697435971        0.18928858231211
C           13.15431478323395        7.20081805057540        0.52608588921879
N           12.60281383498826        7.66516087402371        1.64289356942859
C           12.03186965246329        6.79491696576776        2.46940878725522
C           11.98356038248113        5.43294973913095        2.21687780101421
C           13.75851719998592        2.82080671000167        0.59791490630054
C           15.05350231412007        3.44651800507305        0.79735930348639
C           15.97830854131153        2.48931169547250        0.57698910767003
N           13.91848889519249        1.50568094577436        0.28406293166680
C           15.24714031234807        1.27904946250844        0.25490934356222
C           15.88879689496626        0.05967432965813       -0.04221147707863
C           15.25769021867053       -1.16817413002588       -0.31824731363498
C           15.90646161526108       -2.39192706106778       -0.63151093745152
C           14.94373238372061       -3.34652745695317       -0.80930768471934
C           13.67637994829151       -2.73464702089015       -0.60266946936842
N           13.91772285496873       -1.41672238241232       -0.31816310522086
C           12.41701531872841       -3.33641009781970       -0.69689692896874
C           12.39480938811475       -4.78923817013452       -0.98670254449749
C           12.98318864031617       -5.70922852894523       -0.11918293824714
C           12.93711162651373       -7.05864035995817       -0.43176282460531
N           12.35974735000675       -7.52770743461931       -1.53318737203535
C           11.79881847640041       -6.65751834147920       -2.36680423392380
C           11.78807873553120       -5.29071879870913       -2.13781353208358
C           11.19694085884733       -2.67116398329622       -0.53897419408509
C            9.89600671471466       -3.31954827177220       -0.59948043880251
C            8.97779722019963       -2.35203252416460       -0.40421424758191
C            9.71670899722612       -1.11633524115411       -0.21177586396361
N           11.04992724459719       -1.34810384110926       -0.29136885988805
H            8.01340619766936        0.11072111236434        0.01891291850480
H            7.97685295785477        2.71389625049293        0.46226925461096
H            9.84951365548466        4.58181746176782        0.85365240304095
H           11.77366987577730        0.88213154578556        0.20679665392895
H           13.61262761977662        5.52518020665072       -0.73835808461323
H           13.61209129094451        7.93616561438824       -0.12922342678665
H           11.59214324378458        7.20395498895194        3.37444623097510
H           11.51817590013463        4.75972057416446        2.92711049290003
H           15.21175741980696        4.47433632631421        1.08094351333471
H           17.05253148218637        2.56691380507945        0.62929123684843
H           16.97431054184148       -2.51522877206559       -0.71321668278236
H           15.09430221283014       -4.38121077283963       -1.07056954080308
H           13.19293676308037       -0.72963458579710       -0.13867918628637
H           13.45461714170651       -5.37410110352687        0.79710533227356
H           13.38348618151832       -7.79385826692859        0.23144224219786
H           11.33801787722999       -7.07082412607480       -3.25923768666304
H           11.32990292186419       -4.61768458375925       -2.85262599248386
H            9.73322839749683       -4.37337268875482       -0.75843811378501
H            7.90266246889068       -2.43630076461650       -0.37820787448441
C           29.28387831152552       -0.10124186778983       -0.03339015757204
C           28.67937172441853       -1.30034721890247       -0.38791803113705
C           29.33599568277697       -2.50574195258385       -0.76421684451183
C           28.37769304680207       -3.44595177453780       -1.01853328034950
C           27.10435163623958       -2.84734797962668       -0.79769490793658
N           27.33706415280633       -1.55269752762869       -0.42949704238426
C           25.84349936873814       -3.43633804269381       -0.94545595451567
C           25.82024199743206       -4.86799301288846       -1.32806160173402
C           25.22088896936612       -5.29202903469282       -2.51374630663210
C           25.22783397341702       -6.64128167497073       -2.82999243000297
N           25.77956536759909       -7.56555449091559       -2.05002915520667
C           26.35083945934978       -7.17048845163285       -0.91689251633668
C           26.39920753324423       -5.84411006654603       -0.51757730013366
C           24.62400053232235       -2.78064618201308       -0.76008109861796
C           23.32906861650143       -3.42834445735199       -0.86925002644951
C           22.40418108093351       -2.47655255340004       -0.62685367144443
N           24.46392083066676       -1.46783089056393       -0.43678142791495
C           23.13524714341851       -1.25314353958016       -0.35875673120522
C           22.49355570826654       -0.03309478761887       -0.06448556928558
C           23.12475372241507        1.18492864175000        0.25189578527294
C           22.47603194364622        2.41651558383621        0.53292239028319
C           23.43877887914173        3.34649427566417        0.81217728002875
C           24.70608148897273        2.70771374625546        0.71630878505031
N           24.46470417149853        1.40574404611222        0.36598285827252
C           25.96543097961548        3.28567140557407        0.90859772948189
C           25.98760335892012        4.70986645671337        1.31646308145189
C           25.39884948161196        5.13032652148292        2.50883358716841
C           25.44507534081238        6.47299231168046        2.84918385083321
N           26.02288218596101        7.39441179195609        2.08521591093542
C           26.58408236867921        7.00270019912060        0.94574375374558
C           26.59473756786235        5.68285148051283        0.52315886070604
C           27.18552747095226        2.62193427609391        0.74468102633504
C           28.48639900152794        3.22600147873573        0.98825843095792
C           29.40468768706168        2.27658405089327        0.71867414445467
C           28.66587841719325        1.09004326561807        0.32339706661056
N           27.33264837417144        1.33245514555789        0.35864889086596
H           30.36923247913042       -0.10628054003302       -0.03385907852899
H           30.40570217909356       -2.62329997894356       -0.83264605245729
H           28.53299077017565       -4.46300263055306       -1.34009620083891
H           26.60898673097964       -0.87800683713266       -0.22001486516835
H           24.76963274813396       -4.57257230030256       -3.18655456067411
H           24.77004090263598       -6.99479139374405       -3.74932050254939
H           26.79055634062451       -7.94862961500621       -0.29971760815785
H           26.86472927470586       -5.57094626802255        0.42206087097648
H           23.17090143994515       -4.47194429506853       -1.08778179987270
H           21.32997277705742       -2.56961637079886       -0.61587568065456
H           21.40820735458916        2.56367495623245        0.51625239767026
H           23.28824778034120        4.38604711404150        1.05335154977550
H           25.18942898594504        0.71258626324363        0.21129153514478
H           24.92704348089643        4.41274826308215        3.16960809138345
H           24.99848889998460        6.82279118731909        3.77537834463039
H           27.04520420194609        7.77882718572705        0.34193326761434
H           27.05317272561898        5.41196722714980       -0.42040624447676
H           28.64906765308185        4.23553457923690        1.32985995229180
H           30.47980809826697        2.33960542642702        0.78060701538455
C           18.51655505148810        0.02693816274146       -0.07112755261253
C           17.29468750034014        0.05004513397128       -0.05825435464949
C           19.86572490405543        0.00745604871941       -0.07697948601042
C           21.08769316424472       -0.01651262564323       -0.07588733319398

          :  Hamiltonian                  GFN1-xTB          :
         :: total energy            -193.844128015776 Eh    ::
         :: gradient norm              0.000463168732 Eh/a0 ::
         :: HOMO-LUMO gap              1.012677130794 eV    ::
         :: SCC energy              -196.994869739166 Eh    ::
         :: repulsion energy           3.247495246398 Eh    ::

    * Orbital Energies and Occupations

         #    Occupation            Energy/Eh            Energy/eV
      -------------------------------------------------------------
         1        2.0000           -0.8095391             -22.0287
       ...           ...                  ...                  ...
       165        2.0000           -0.4233491             -11.5199
       166        2.0000           -0.4226375             -11.5006
       167        2.0000           -0.4225572             -11.4984
       168        2.0000           -0.4211210             -11.4593
       169        2.0000           -0.4209669             -11.4551
       170        2.0000           -0.4207011             -11.4479
       171        2.0000           -0.4207008             -11.4479
       172        2.0000           -0.4199829             -11.4283
       173        2.0000           -0.4198533             -11.4248
       174        2.0000           -0.4044524             -11.0057
       175        2.0000           -0.4041157             -10.9965
       176        2.0000           -0.3949468             -10.7471
       177        2.0000           -0.3838409             -10.4448 (HOMO)
       178                         -0.3466257              -9.4322 (LUMO)
       179                         -0.3376572              -9.1881
       180                         -0.3373507              -9.1798
       181                         -0.3328482              -9.0573
       182                         -0.3065304              -8.3411
       183                         -0.2998478              -8.1593
       184                         -0.2823804              -7.6840
       185                         -0.2823088              -7.6820
       186                         -0.2807865              -7.6406
       187                         -0.2792268              -7.5981
       188                         -0.2714648              -7.3869
       ...                                ...                  ...
       380                          1.5118720              41.1401
      -------------------------------------------------------------
                  HL-Gap            0.0372152 Eh            1.0127 eV

Wiberg/Mayer (AO) data.
largest (>0.10) Wiberg bond orders for each atom

     #   Z sym  total        # sym  WBO       # sym  WBO       # sym  WBO
 ---------------------------------------------------------------------------
     1   6 C    3.925 --    35 C    1.366     2 C    1.347    37 H    0.971
     2   6 C    3.902 --     1 C    1.347     3 C    1.229     6 N    1.169
     3   6 C    3.953 --     4 C    1.596     2 C    1.229    38 H    0.976
     4   6 C    3.959 --     3 C    1.596     5 C    1.234    39 H    0.974
     5   6 C    3.897 --     7 C    1.302     4 C    1.234     6 N    1.178
     6   7 N    3.470 --     5 C    1.178     2 C    1.169    40 H    0.873
     7   6 C    3.939 --    14 C    1.334     5 C    1.302     8 C    1.030
     8   6 C    3.986 --    13 C    1.392     9 C    1.392     7 C    1.030
                            11 N    0.106
     9   6 C    3.987 --    10 C    1.443     8 C    1.392    41 H    0.973
                            12 C    0.108
    10   6 C    3.972 --     9 C    1.443    11 N    1.415    42 H    0.972
                            13 C    0.108
    11   7 N    3.029 --    12 C    1.416    10 C    1.415     8 C    0.106
    12   6 C    3.972 --    13 C    1.442    11 N    1.416    43 H    0.972
                             9 C    0.108
    13   6 C    3.986 --    12 C    1.442     8 C    1.392    44 H    0.973
                            10 C    0.108
    14   6 C    3.915 --     7 C    1.334    17 N    1.286    15 C    1.125
    15   6 C    3.965 --    16 C    1.710    14 C    1.125    45 H    0.973
    16   6 C    3.964 --    15 C    1.710    18 C    1.128    46 H    0.974
    17   7 N    3.022 --    18 C    1.344    14 C    1.286
    18   6 C    3.909 --    17 N    1.344    19 C    1.255    16 C    1.128
    19   6 C    3.937 --    18 C    1.255    20 C    1.252   112 C    1.190
    20   6 C    3.885 --    19 C    1.252    21 C    1.249    24 N    1.189
    21   6 C    3.959 --    22 C    1.583    20 C    1.249    47 H    0.975
    22   6 C    3.954 --    21 C    1.583    23 C    1.241    48 H    0.974
    23   6 C    3.899 --    25 C    1.308    22 C    1.241    24 N    1.166
    24   7 N    3.474 --    20 C    1.189    23 C    1.166    49 H    0.873
    25   6 C    3.925 --    32 C    1.321    23 C    1.308    26 C    1.031
    26   6 C    3.986 --    31 C    1.392    27 C    1.392    25 C    1.031
                            29 N    0.106
    27   6 C    3.986 --    28 C    1.442    26 C    1.392    50 H    0.973
                            30 C    0.108
    28   6 C    3.972 --    27 C    1.442    29 N    1.415    51 H    0.972
                            31 C    0.108
    29   7 N    3.029 --    28 C    1.415    30 C    1.415    26 C    0.106
    30   6 C    3.972 --    31 C    1.442    29 N    1.415    52 H    0.972
                            27 C    0.108
    31   6 C    3.986 --    30 C    1.442    26 C    1.392    53 H    0.973
                            28 C    0.108
    32   6 C    3.929 --    25 C    1.321    36 N    1.317    33 C    1.117
    33   6 C    3.967 --    34 C    1.724    32 C    1.117    54 H    0.973
    34   6 C    3.966 --    33 C    1.724    35 C    1.116    55 H    0.976
    35   6 C    3.928 --     1 C    1.366    36 N    1.300    34 C    1.116
    36   7 N    3.012 --    32 C    1.317    35 C    1.300
    37   1 H    1.002 --     1 C    0.971
    38   1 H    0.997 --     3 C    0.976
    39   1 H    1.004 --     4 C    0.974
    40   1 H    0.986 --     6 N    0.873
    41   1 H    1.004 --     9 C    0.973
    42   1 H    1.013 --    10 C    0.972
    43   1 H    1.013 --    12 C    0.972
    44   1 H    1.004 --    13 C    0.973
    45   1 H    1.005 --    15 C    0.973
    46   1 H    1.003 --    16 C    0.974
    47   1 H    1.002 --    21 C    0.975
    48   1 H    1.004 --    22 C    0.974
    49   1 H    0.987 --    24 N    0.873
    50   1 H    1.004 --    27 C    0.973
    51   1 H    1.013 --    28 C    0.972
    52   1 H    1.013 --    30 C    0.972
    53   1 H    1.004 --    31 C    0.973
    54   1 H    1.005 --    33 C    0.973
    55   1 H    0.998 --    34 C    0.976
    56   6 C    3.925 --    90 C    1.366    57 C    1.347    92 H    0.971
    57   6 C    3.902 --    56 C    1.347    58 C    1.229    61 N    1.169
    58   6 C    3.953 --    59 C    1.596    57 C    1.229    93 H    0.976
    59   6 C    3.959 --    58 C    1.596    60 C    1.234    94 H    0.974
    60   6 C    3.897 --    62 C    1.302    59 C    1.234    61 N    1.178
    61   7 N    3.470 --    60 C    1.178    57 C    1.169    95 H    0.873
    62   6 C    3.939 --    69 C    1.334    60 C    1.302    63 C    1.030
    63   6 C    3.986 --    68 C    1.392    64 C    1.392    62 C    1.030
                            66 N    0.106
    64   6 C    3.987 --    65 C    1.443    63 C    1.392    96 H    0.973
                            67 C    0.108
    65   6 C    3.972 --    64 C    1.443    66 N    1.415    97 H    0.972
                            68 C    0.108
    66   7 N    3.029 --    67 C    1.416    65 C    1.415    63 C    0.106
    67   6 C    3.972 --    68 C    1.442    66 N    1.416    98 H    0.972
                            64 C    0.108
    68   6 C    3.986 --    67 C    1.442    63 C    1.392    99 H    0.973
                            65 C    0.108
    69   6 C    3.915 --    62 C    1.334    72 N    1.286    70 C    1.125
    70   6 C    3.965 --    71 C    1.710    69 C    1.125   100 H    0.973
    71   6 C    3.964 --    70 C    1.710    73 C    1.128   101 H    0.974
    72   7 N    3.022 --    73 C    1.344    69 C    1.286
    73   6 C    3.909 --    72 N    1.344    74 C    1.255    71 C    1.128
    74   6 C    3.937 --    73 C    1.255    75 C    1.252   114 C    1.190
    75   6 C    3.885 --    74 C    1.252    76 C    1.249    79 N    1.189
    76   6 C    3.959 --    77 C    1.583    75 C    1.249   102 H    0.975
    77   6 C    3.954 --    76 C    1.583    78 C    1.241   103 H    0.974
    78   6 C    3.899 --    80 C    1.308    77 C    1.241    79 N    1.166
    79   7 N    3.474 --    75 C    1.189    78 C    1.166   104 H    0.873
    80   6 C    3.925 --    87 C    1.321    78 C    1.308    81 C    1.031
    81   6 C    3.986 --    86 C    1.392    82 C    1.392    80 C    1.031
                            84 N    0.106
    82   6 C    3.986 --    83 C    1.442    81 C    1.392   105 H    0.973
                            85 C    0.108
    83   6 C    3.972 --    82 C    1.442    84 N    1.415   106 H    0.972
                            86 C    0.108
    84   7 N    3.029 --    83 C    1.415    85 C    1.415    81 C    0.106
    85   6 C    3.972 --    86 C    1.442    84 N    1.415   107 H    0.972
                            82 C    0.108
    86   6 C    3.986 --    85 C    1.442    81 C    1.392   108 H    0.973
                            83 C    0.108
    87   6 C    3.929 --    80 C    1.321    91 N    1.317    88 C    1.117
    88   6 C    3.967 --    89 C    1.724    87 C    1.117   109 H    0.973
    89   6 C    3.966 --    88 C    1.724    90 C    1.116   110 H    0.976
    90   6 C    3.928 --    56 C    1.366    91 N    1.300    89 C    1.116
    91   7 N    3.012 --    87 C    1.317    90 C    1.300
    92   1 H    1.002 --    56 C    0.971
    93   1 H    0.997 --    58 C    0.976
    94   1 H    1.004 --    59 C    0.974
    95   1 H    0.986 --    61 N    0.873
    96   1 H    1.004 --    64 C    0.973
    97   1 H    1.013 --    65 C    0.972
    98   1 H    1.013 --    67 C    0.972
    99   1 H    1.004 --    68 C    0.973
   100   1 H    1.005 --    70 C    0.973
   101   1 H    1.003 --    71 C    0.974
   102   1 H    1.002 --    76 C    0.975
   103   1 H    1.004 --    77 C    0.974
   104   1 H    0.987 --    79 N    0.873
   105   1 H    1.004 --    82 C    0.973
   106   1 H    1.013 --    83 C    0.972
   107   1 H    1.013 --    85 C    0.972
   108   1 H    1.004 --    86 C    0.973
   109   1 H    1.005 --    88 C    0.973
   110   1 H    0.998 --    89 C    0.976
   111   6 C    3.933 --   112 C    2.474   113 C    1.309
   112   6 C    3.926 --   111 C    2.474    19 C    1.190   114 C    0.199
   113   6 C    3.933 --   114 C    2.474   111 C    1.309
   114   6 C    3.926 --   113 C    2.474    74 C    1.190   112 C    0.199
 ---------------------------------------------------------------------------

           -------------------------------------------------
          | TOTAL ENERGY             -193.844128015776 Eh   |
          | GRADIENT NORM               0.000463168732 Eh/α |
          | HOMO-LUMO GAP               1.012677130794 eV   |
           -------------------------------------------------

 * finished run on 2022/07/27 at 05:25:38.559
