   * xtb version 6.5.1 (b24c23e) compiled by 'conda@728c89f4b128' on 2022-07-12
          program call               : xtb Cu_Ph2Me_C6_3.xyz --gfn 1 --opt -T 48

   ID    Z sym.   atoms
    1   29 Cu     1, 69, 149
    2    6 C      2-6, 8-11, 13-31, 34-41, 70-74, 76-79, 81-99, 102-109,
                  137-148, 150-154, 156-159, 161-179, 182-189
    3    7 N      7, 12, 32, 33, 75, 80, 100, 101, 155, 160, 180, 181
    4    1 H      42-68, 110-136, 190-215

          :  Hamiltonian                  GFN1-xTB          :
 * total energy  :  -347.5482486 Eh     change        0.2449724E-08 Eh
 * total energy  :  -348.0038707 Eh     change       -0.4556220E+00 Eh
 * total energy  :  -347.9860257 Eh     change        0.1784493E-01 Eh
 * total energy  :  -348.1502340 Eh     change       -0.1642082E+00 Eh
 * total energy  :  -348.2622333 Eh     change       -0.1119993E+00 Eh
 * total energy  :  -348.3294214 Eh     change       -0.6718811E-01 Eh
 * total energy  :  -348.3665654 Eh     change       -0.3714402E-01 Eh
 * total energy  :  -348.3901488 Eh     change       -0.2358341E-01 Eh
 * total energy  :  -348.4034804 Eh     change       -0.1333158E-01 Eh
 * total energy  :  -348.4114392 Eh     change       -0.7958852E-02 Eh
 * total energy  :  -348.4581435 Eh     change       -0.4416562E-05 Eh
 * total energy  :  -348.4581565 Eh     change       -0.1299418E-04 Eh
 * total energy  :  -348.4581619 Eh     change       -0.5442300E-05 Eh
 * total energy  :  -348.4581712 Eh     change       -0.9291828E-05 Eh
 * total energy  :  -348.4581804 Eh     change       -0.9178072E-05 Eh
 * total energy  :  -348.4581929 Eh     change       -0.1254002E-04 Eh
 * total energy  :  -348.4582089 Eh     change       -0.1594004E-04 Eh
 * total energy  :  -348.4582158 Eh     change       -0.6943555E-05 Eh
 * total energy  :  -348.4582200 Eh     change       -0.4132968E-05 Eh
   *** GEOMETRY OPTIMIZATION CONVERGED AFTER 78 ITERATIONS ***

 final structure:
================
215
 xtb: 6.5.1 (b24c23e)
Cu          28.37105847988819        0.05942232855756       -0.11316543348315
C           24.97235122555593        0.17285515015065       -0.32479781104312
C           25.61489098679668        1.34753324583060        0.03690854489695
C           24.94879200349279        2.57598975132143        0.36287735345524
C           25.91266394416196        3.47690128427320        0.67691919643787
C           27.17798244417552        2.80979565740513        0.53358306866451
N           26.96527459357549        1.51567406696641        0.15359393587007
C           28.42514478620713        3.39424756849865        0.76430031894317
C           29.65142708808762        2.73737427107954        0.65105453734402
C           30.93374242225979        3.35873738954554        0.82460410748483
C           31.87216176842263        2.40005189464924        0.61887804591293
N           29.82992811713912        1.41671498632631        0.33300127388757
C           31.17128489233758        1.18859019942164        0.31557361814494
C           31.79673660912001       -0.04176753409933        0.04638595804471
C           31.12723255483320       -1.23974999624782       -0.25964977234693
C           31.78316765484351       -2.48330500209367       -0.53205583556174
C           30.81163273602104       -3.39206511071996       -0.80092254582805
C           29.55370490933848       -2.70920229257518       -0.69109227439139
C           28.30740486211946       -3.29072073675256       -0.92839705336104
C           28.28109429048389       -4.73754226421590       -1.26464653010459
C           27.83699299991563       -5.16297916648386       -2.51440047451782
C           27.81576352353705       -6.51781046947661       -2.83324056735157
C           27.32369361582610       -6.96594268652241       -4.18307123191490
C           28.23577340876595       -7.44685205878333       -1.88787457813174
C           28.67923608223084       -7.03696003517869       -0.63262722849145
C           29.14213168329489       -8.05652729204876        0.37287801192642
C           28.70301687585166       -5.68132143040822       -0.32819537666793
C           27.08470597550073       -2.61815639164411       -0.87511551655425
C           25.79889838418330       -3.22164240020830       -1.09700991818749
C           24.86807930376565       -2.24875649165392       -0.93486810102002
C           25.57493568467990       -1.04512491207550       -0.60199917894692
N           26.91703260006230       -1.29711727965913       -0.57316525440400
N           29.77965943837259       -1.39848735122994       -0.36215777428435
C           28.45114304836030        4.82503491637531        1.16178247041392
C           27.98299049650791        5.80876774530020        0.29193136811157
C           28.00972359358779        7.14891610452331        0.66204845393050
C           27.52980249434829        8.21174549485741       -0.28924347693456
C           28.50542979693576        7.50144791704872        1.91413127723585
C           28.97450882472301        6.53095166438410        2.79397069184592
C           29.48601964133816        6.91923140174385        4.15497100064523
C           28.94663225351417        5.19404190798826        2.41125601548009
H           23.88916222707372        0.20611718136739       -0.38177993898632
H           23.87906991796553        2.71482984987999        0.35677493199400
H           25.78549990742529        4.50130365684616        0.98825043715798
H           31.09127251875308        4.39894716143777        1.05963566589469
H           32.94528778698022        2.49587119856003        0.66304838333969
H           32.85126697122208       -2.63104804261485       -0.52079961419378
H           30.93171892225599       -4.43063901717723       -1.06371428216722
H           27.52264406180791       -4.42855249596747       -3.24797366812807
H           27.67875010877440       -7.97020055463659       -4.41427416801011
H           26.23145768805353       -6.97767175310274       -4.19550134258965
H           27.66230341385425       -6.28339410737878       -4.96326214897415
H           28.21928283119622       -8.50465484131474       -2.12967459881798
H           29.22380583370024       -7.61613052300253        1.36648270806680
H           28.44759465006768       -8.89651234890670        0.41593764559580
H           30.12231739626410       -8.44420481672520        0.08684306439999
H           29.03671157362485       -5.34894025347710        0.64875355853292
H           25.63633306512085       -4.26034501643850       -1.33609021523412
H           23.79569893459072       -2.32692978308633       -1.02191558895984
H           27.61158263680908        5.52278512233014       -0.68609610057403
H           27.03361632049113        9.01883159094417        0.25059546911117
H           26.83562352603531        7.79620919034519       -1.01974103413904
H           28.37875789636759        8.63766011943177       -0.82891048317262
H           28.52681171834438        8.54619343338375        2.20694525325758
H           28.66234114311148        6.92660554899772        4.87257107699045
H           29.92688118754745        7.91610813794405        4.13465692698568
H           30.23466587499777        6.20851253738036        4.50556441623491
H           29.29889713039403        4.42704763618637        3.09237385057467
Cu          60.44345851865878        0.06512866703688       -0.07273973594329
C           63.83922286903467        0.24928711394732       -0.27176244908976
C           63.19028227261398       -0.43191096515388       -1.29074137567473
C           63.84924567930180       -1.08713503393902       -2.38422293423373
C           62.88099888430653       -1.64959881237571       -3.14931418563990
C           61.61993743052444       -1.33275567090217       -2.53606802217973
N           61.83969950940267       -0.60026312467576       -1.40488618903716
C           60.37065585524165       -1.73027206484265       -3.01693794664343
C           59.14893497776805       -1.44405711628665       -2.40580545613138
C           57.86327117809795       -1.79822823480779       -2.93740340623972
C           56.93063835720584       -1.32838622978192       -2.07079566136519
N           58.97823081337421       -0.75914839715068       -1.23181284981537
C           57.63821625663913       -0.68201937322482       -1.00633667246316
C           57.02024641915923       -0.06095439047824        0.09274360453736
C           57.69494669407401        0.58355833179373        1.14351819315376
C           57.04538023665659        1.20621753892672        2.25787426220544
C           58.02181896522494        1.72069491935519        3.04754483379334
C           59.27643294816887        1.41372578737354        2.42071524472201
C           60.52614239864221        1.80214098975829        2.90582429831528
C           60.56019056574809        2.53385091727083        4.19835926904417
C           61.00891679159210        3.85140888769670        4.25165501982999
C           61.03733543571270        4.53992306796084        5.46110855193136
C           61.53446503782601        5.95967387995980        5.50783209847055
C           60.61974892453829        3.89701982510617        6.62109831192796
C           60.17154784275239        2.57869515313166        6.58433045975599
C           59.71078751848296        1.90396001552994        7.84816897756505
C           60.14063106048985        1.90376096627184        5.36998424252335
C           61.74478310022755        1.55813340302378        2.26910021218330
C           63.03418101962594        1.94210001900979        2.77598780625847
C           63.95855151431687        1.51460730115575        1.88047389028943
C           63.24436425365813        0.85531624110682        0.82473232479881
N           61.90430129357939        0.89588300947261        1.08565276016578
N           59.04372717645352        0.72298068524413        1.26086914362202
C           60.33664566686690       -2.51463365647958       -4.27788961230040
C           60.78088918583919       -1.94892081819050       -5.47212092855393
C           60.74548360463049       -2.67892913844243       -6.65511789792506
C           61.19831412717809       -2.05663098164487       -7.94838762410804
C           60.26566814051176       -3.98547879900117       -6.63656530818161
C           59.82078181320239       -4.56460688131570       -5.45221377237895
C           59.32653891757501       -5.98598842809068       -5.43815793883603
C           59.85668892596495       -3.82320956243271       -4.27586122756642
H           64.92169148565056        0.29970949313985       -0.33007100148223
H           64.91767392857911       -1.11302735361828       -2.53061635284519
H           63.00237072566999       -2.23679191373262       -4.04540950800825
H           57.69985832363807       -2.32607446409695       -3.86302476558452
H           55.85721172102839       -1.40415584197608       -2.13950352632489
H           55.97790133811647        1.24214258446846        2.40625460756891
H           57.90747886567383        2.27169214524330        3.96704385858346
H           61.32112215222504        4.34663337833373        3.33864408754960
H           61.18193498208613        6.46728177587012        6.40567661848650
H           62.62675795394349        5.97099916252332        5.51478569599820
H           61.19718131857207        6.51564306070373        4.63241686747865
H           60.64187752459870        4.42780507330077        7.56739082147878
H           59.63395315458695        0.82563911688286        7.70965632319931
H           60.40358637758060        2.10561346731417        8.66618059303858
H           58.72855572815622        2.28429931757434        8.13707702417895
H           59.80310944795028        0.87389745212329        5.32856944568211
H           63.20327556497853        2.46385399147743        3.70425373613656
H           65.03111570526669        1.62207815431690        1.92233839274986
H           61.14024848648038       -0.92563541346093       -5.47596669442243
H           61.69143211827954       -2.79497516524609       -8.58138532449077
H           61.88749895995585       -1.23248450607195       -7.76403696956277
H           60.33638684011375       -1.66528224396317       -8.49365519848492
H           60.23758015710830       -4.55881631039066       -7.55753534340860
H           60.16118959330014       -6.66717337111801       -5.25700161292032
H           58.87520985601566       -6.24984974694114       -6.39484652994426
H           58.59076140608223       -6.13352253210018       -4.64736389884031
H           59.52276679961025       -4.26689477691022       -3.34423268401409
C           36.99829714798667       -0.11103741004931        0.09197269042220
C           35.77009161257637       -0.10507986007547        0.09721371992020
C           34.42544996685864       -0.09161250175492        0.09139217376045
C           33.20197099615729       -0.07257035609394        0.07545118284416
C           38.34284527549327       -0.11356934941237        0.08570436545226
C           39.56673966102793       -0.11453305244403        0.07953415652550
C           53.04491254388312       -0.08893095816952        0.16440094268376
C           51.81728563570655       -0.09157583298799        0.16253293448816
C           50.47166406145234       -0.09388689469976        0.15328289934826
C           49.24845783567054       -0.09477254635655        0.13423691480698
C           54.39068564709309       -0.08467427356322        0.15496462028721
C           55.61368535494510       -0.07736730906988        0.13602351874973
Cu          44.40744618543990       -0.10865896699454        0.06969291634298
C           40.97193454613573       -0.11343602880112        0.07070096360193
C           41.61877679805552        1.12948379710227       -0.05309097018845
C           40.94015702923852        2.38758987589833       -0.13661308367540
C           41.89521573174933        3.34351528051516       -0.26665760338047
C           43.16416807655712        2.67314482808457       -0.26806440953670
N           42.96278870144869        1.32550556542197       -0.12950305257727
C           44.40302519962550        3.30849523059469       -0.37254442258274
C           45.64412730501246        2.67323364226954       -0.29779226158382
C           46.91288029022297        3.32594593364879       -0.45333132933863
C           47.87031311611667        2.37439980009726       -0.31030974379158
N           45.84805585257348        1.33674346783773       -0.07881145457709
C           47.19334961283214        1.13371916991123       -0.07983370119836
C           47.84206394438665       -0.09898877859379        0.11107114858059
C           47.19579423050597       -1.33686681174840        0.27423423818709
C           47.87407601024089       -2.57754379982775        0.50085013973461
C           46.91937664945399       -3.53770854537641        0.59654206754424
C           45.65102236217957       -2.88897412533910        0.42224009496214
C           44.41237235334028       -3.53234174057994        0.46139202928164
C           44.41557742353286       -5.00829661092189        0.62451920459326
C           43.83030695967371       -5.59356310821341        1.74569103250130
C           43.82900604922855       -6.97612998613215        1.90192370106917
C           43.21386855282203       -7.59731527090820        3.12689520428700
C           44.41710122107223       -7.77290798266724        0.92513799497847
C           45.00381315268213       -7.20331199893698       -0.20187323791138
C           45.64798391691389       -8.07829505904873       -1.24314972461553
C           45.00281643504297       -5.82064527656547       -0.34521180806880
C           43.17164557249252       -2.89988181446786        0.36225411032653
C           41.90426252305007       -3.57314948020628        0.34881230245765
C           40.94656904204075       -2.61683310797572        0.24357235228612
C           41.62217750244321       -1.35590781818406        0.18100768224286
N           42.96671036933801       -1.55019544638447        0.24992752083141
N           45.85217629190689       -1.54754598000037        0.23435116268150
C           44.39974882612819        4.77903030080758       -0.57956743414836
C           44.96732560967392        5.62618436860003        0.37058001223321
C           44.96385424833393        7.00426490560231        0.18045556601298
C           45.59223727515443        7.91083464820518        1.20420526707352
C           44.39236164210701        7.53200155066829       -0.97307113047943
C           43.82184240423803        6.69902885890083       -1.93143070651346
C           43.22403308534707        7.28085229509909       -3.18399384020338
C           43.82723204247558        5.32349348950194       -1.72857539515445
H           39.87014194066899        2.51406990667101       -0.09399816227344
H           41.75753947444816        4.41012224168765       -0.34071022359105
H           47.04967343314472        4.37545992674207       -0.65793974002279
H           48.94093509417083        2.49070144572569       -0.36510449585937
H           48.94356287320576       -2.68863088193301        0.58204239250579
H           47.05704088900345       -4.59060319743145        0.78235811201146
H           43.38527430212783       -4.96157807231373        2.50648933977406
H           42.90357167487213       -8.62341503239063        2.92910985150908
H           43.94198024523735       -7.61218118479778        3.94114841689079
H           42.34783689650386       -7.02377130874339        3.45841906409080
H           44.41606123996007       -8.85198165278818        1.04035391573421
H           45.73746602941573       -7.55227112762471       -2.19358513212001
H           45.06704458910927       -8.98836134878582       -1.39639274226669
H           46.64952836360220       -8.36773393164883       -0.91691515628102
H           45.44371977945698       -5.36536772960330       -1.22531419269470
H           41.76868434407857       -4.64133761906312        0.40013680621335
H           39.87670229256960       -2.74482976686263        0.20183415651164
H           45.39691458278863        5.20422407733093        1.27260817042463
H           45.13461928056404        8.89999464170292        1.18166342503896
H           46.65830045046398        8.02410250360961        0.99398864602003
H           45.48747641072423        7.49535586996252        2.20672944189481
H           44.38776648960065        8.60633914458874       -1.12622381568827
H           42.77126438748157        8.25203245324734       -2.98238436260099
H           42.46558308144323        6.61639517582022       -3.59817590760959
H           44.00301424728930        7.42000878222536       -3.93715331009965
H           43.39601369468129        4.66321432798682       -2.47312651117444

          :  Hamiltonian                  GFN1-xTB          :
         :: total energy            -348.458219957166 Eh    ::
         :: gradient norm              0.000460003593 Eh/a0 ::
         :: HOMO-LUMO gap              0.000021054327 eV    ::
         :: SCC energy              -354.154788473387 Eh    ::
         :: repulsion energy           5.880187564018 Eh    ::

    * Orbital Energies and Occupations

         #    Occupation            Energy/Eh            Energy/eV
      -------------------------------------------------------------
         1        2.0000           -0.7615754             -20.7235
       ...           ...                  ...                  ...
       315        2.0000           -0.4059531             -11.0465
       316        2.0000           -0.4059389             -11.0462
       317        2.0000           -0.4056865             -11.0393
       318        2.0000           -0.4054367             -11.0325
       319        2.0000           -0.4048790             -11.0173
       320        2.0000           -0.3929374             -10.6924
       321        2.0000           -0.3928857             -10.6910
       322        2.0000           -0.3927302             -10.6867
       323        2.0000           -0.3861572             -10.5079
       324        2.0000           -0.3821620             -10.3992
       325        2.0000           -0.3761957             -10.2368
       326        1.0163           -0.3534191              -9.6170
       327        0.9920           -0.3533673              -9.6156 (HOMO)
       328        0.9917           -0.3533666              -9.6156 (LUMO)
       329                         -0.3371385              -9.1740
       330                         -0.3302338              -8.9861
       331                         -0.3258145              -8.8659
       332                         -0.3246126              -8.8332
       333                         -0.3245794              -8.8323
       334                         -0.3243460              -8.8259
       335                         -0.3011876              -8.1957
       336                         -0.2940228              -8.0008
       337                         -0.2910675              -7.9204
       338                         -0.2796322              -7.6092
       ...                                ...                  ...
       715                          1.5835554              43.0907
      -------------------------------------------------------------
                  HL-Gap            0.0000008 Eh            0.0000 eV

Wiberg/Mayer (AO) data.
largest (>0.10) Wiberg bond orders for each atom

     #   Z sym  total        # sym  WBO       # sym  WBO       # sym  WBO
 ---------------------------------------------------------------------------
     1  29 Cu   2.192 --    32 N    0.507     7 N    0.507    12 N    0.504
                            33 N    0.504
     2   6 C    3.928 --    31 C    1.361     3 C    1.361    42 H    0.971
     3   6 C    3.918 --     2 C    1.361     7 N    1.229     4 C    1.171
     4   6 C    3.955 --     5 C    1.655     3 C    1.171    43 H    0.976
     5   6 C    3.958 --     4 C    1.655     6 C    1.173    44 H    0.973
     6   6 C    3.913 --     8 C    1.320     7 N    1.238     5 C    1.173
     7   7 N    3.244 --     6 C    1.238     3 C    1.229     1 Cu   0.507
     8   6 C    3.935 --     9 C    1.328     6 C    1.320    34 C    1.024
     9   6 C    3.908 --     8 C    1.328    12 N    1.220    10 C    1.180
    10   6 C    3.954 --    11 C    1.642     9 C    1.180    45 H    0.973
    11   6 C    3.956 --    10 C    1.642    13 C    1.187    46 H    0.974
    12   7 N    3.248 --    13 C    1.257     9 C    1.220     1 Cu   0.504
    13   6 C    3.897 --    14 C    1.259    12 N    1.257    11 C    1.187
    14   6 C    3.939 --    15 C    1.259    13 C    1.259   140 C    1.188
    15   6 C    3.897 --    14 C    1.259    33 N    1.257    16 C    1.187
    16   6 C    3.956 --    17 C    1.642    15 C    1.187    47 H    0.974
    17   6 C    3.954 --    16 C    1.642    18 C    1.179    48 H    0.973
    18   6 C    3.908 --    19 C    1.329    33 N    1.220    17 C    1.179
    19   6 C    3.935 --    18 C    1.329    28 C    1.320    20 C    1.022
    20   6 C    3.988 --    21 C    1.404    27 C    1.392    19 C    1.022
                            24 C    0.103
    21   6 C    3.987 --    22 C    1.411    20 C    1.404    49 H    0.972
                            25 C    0.104
    22   6 C    3.988 --    24 C    1.422    21 C    1.411    23 C    1.020
                            27 C    0.103
    23   6 C    3.996 --    22 C    1.020    50 H    0.984    52 H    0.981
                            51 H    0.972
    24   6 C    3.989 --    22 C    1.422    25 C    1.409    53 H    0.972
                            20 C    0.103
    25   6 C    3.988 --    27 C    1.423    24 C    1.409    26 C    1.020
                            21 C    0.104
    26   6 C    3.996 --    25 C    1.020    54 H    0.985    55 H    0.979
                            56 H    0.972
    27   6 C    3.987 --    25 C    1.423    20 C    1.392    57 H    0.972
                            22 C    0.103
    28   6 C    3.913 --    19 C    1.320    32 N    1.238    29 C    1.173
    29   6 C    3.958 --    30 C    1.655    28 C    1.173    58 H    0.973
    30   6 C    3.955 --    29 C    1.655    31 C    1.171    59 H    0.976
    31   6 C    3.918 --     2 C    1.361    32 N    1.229    30 C    1.171
    32   7 N    3.244 --    28 C    1.238    31 C    1.229     1 Cu   0.507
    33   7 N    3.248 --    15 C    1.257    18 C    1.220     1 Cu   0.504
    34   6 C    3.988 --    41 C    1.398    35 C    1.396     8 C    1.024
                            38 C    0.103
    35   6 C    3.987 --    36 C    1.418    34 C    1.396    60 H    0.972
                            39 C    0.103
    36   6 C    3.988 --    35 C    1.418    38 C    1.414    37 C    1.020
                            41 C    0.104
    37   6 C    3.996 --    36 C    1.020    62 H    0.984    61 H    0.981
                            63 H    0.971
    38   6 C    3.989 --    39 C    1.417    36 C    1.414    64 H    0.972
                            34 C    0.103
    39   6 C    3.988 --    38 C    1.417    41 C    1.416    40 C    1.020
                            35 C    0.103
    40   6 C    3.996 --    39 C    1.020    67 H    0.983    66 H    0.983
                            65 H    0.971
    41   6 C    3.987 --    39 C    1.416    34 C    1.398    68 H    0.972
                            36 C    0.104
    42   1 H    1.002 --     2 C    0.971
    43   1 H    0.998 --     4 C    0.976
    44   1 H    1.005 --     5 C    0.973
    45   1 H    1.005 --    10 C    0.973
    46   1 H    1.002 --    11 C    0.974
    47   1 H    1.002 --    16 C    0.974
    48   1 H    1.005 --    17 C    0.973
    49   1 H    1.002 --    21 C    0.972
    50   1 H    1.004 --    23 C    0.984
    51   1 H    1.006 --    23 C    0.972
    52   1 H    1.005 --    23 C    0.981
    53   1 H    1.000 --    24 C    0.972
    54   1 H    1.004 --    26 C    0.985
    55   1 H    1.005 --    26 C    0.979
    56   1 H    1.006 --    26 C    0.972
    57   1 H    1.003 --    27 C    0.972
    58   1 H    1.005 --    29 C    0.973
    59   1 H    0.998 --    30 C    0.976
    60   1 H    1.003 --    35 C    0.972
    61   1 H    1.005 --    37 C    0.981
    62   1 H    1.004 --    37 C    0.984
    63   1 H    1.006 --    37 C    0.971
    64   1 H    1.000 --    38 C    0.972
    65   1 H    1.006 --    40 C    0.971
    66   1 H    1.004 --    40 C    0.983
    67   1 H    1.004 --    40 C    0.983
    68   1 H    1.003 --    41 C    0.972
    69  29 Cu   2.193 --   100 N    0.507    75 N    0.507    80 N    0.504
                           101 N    0.504
    70   6 C    3.930 --    99 C    1.361    71 C    1.361   110 H    0.971
    71   6 C    3.918 --    70 C    1.361    75 N    1.229    72 C    1.171
    72   6 C    3.955 --    73 C    1.655    71 C    1.171   111 H    0.976
    73   6 C    3.958 --    72 C    1.655    74 C    1.173   112 H    0.973
    74   6 C    3.913 --    76 C    1.321    75 N    1.238    73 C    1.173
    75   7 N    3.245 --    74 C    1.238    71 C    1.229    69 Cu   0.507
    76   6 C    3.936 --    77 C    1.328    74 C    1.321   102 C    1.023
    77   6 C    3.908 --    76 C    1.328    80 N    1.221    78 C    1.179
    78   6 C    3.955 --    79 C    1.643    77 C    1.179   113 H    0.973
    79   6 C    3.957 --    78 C    1.643    81 C    1.186   114 H    0.974
    80   7 N    3.249 --    81 C    1.255    77 C    1.221    69 Cu   0.504
    81   6 C    3.899 --    82 C    1.262    80 N    1.255    79 C    1.186
    82   6 C    3.940 --    83 C    1.263    81 C    1.262   148 C    1.182
    83   6 C    3.899 --    82 C    1.263   101 N    1.255    84 C    1.186
    84   6 C    3.957 --    85 C    1.644    83 C    1.186   115 H    0.974
    85   6 C    3.955 --    84 C    1.644    86 C    1.179   116 H    0.973
    86   6 C    3.908 --    87 C    1.328   101 N    1.221    85 C    1.179
    87   6 C    3.936 --    86 C    1.328    96 C    1.321    88 C    1.022
    88   6 C    3.988 --    89 C    1.404    95 C    1.392    87 C    1.022
                            92 C    0.103
    89   6 C    3.987 --    90 C    1.411    88 C    1.404   117 H    0.972
                            93 C    0.104
    90   6 C    3.988 --    92 C    1.422    89 C    1.411    91 C    1.020
                            95 C    0.103
    91   6 C    3.996 --    90 C    1.020   118 H    0.984   120 H    0.981
                           119 H    0.972
    92   6 C    3.989 --    90 C    1.422    93 C    1.409   121 H    0.972
                            88 C    0.103
    93   6 C    3.988 --    95 C    1.423    92 C    1.409    94 C    1.020
                            89 C    0.104
    94   6 C    3.996 --    93 C    1.020   122 H    0.985   123 H    0.979
                           124 H    0.972
    95   6 C    3.987 --    93 C    1.423    88 C    1.392   125 H    0.972
                            90 C    0.103
    96   6 C    3.913 --    87 C    1.321   100 N    1.238    97 C    1.173
    97   6 C    3.958 --    98 C    1.655    96 C    1.173   126 H    0.973
    98   6 C    3.955 --    97 C    1.655    99 C    1.171   127 H    0.976
    99   6 C    3.918 --    70 C    1.361   100 N    1.229    98 C    1.171
   100   7 N    3.245 --    96 C    1.238    99 C    1.229    69 Cu   0.507
   101   7 N    3.249 --    83 C    1.255    86 C    1.221    69 Cu   0.504
   102   6 C    3.988 --   109 C    1.399   103 C    1.396    76 C    1.023
                           106 C    0.103
   103   6 C    3.987 --   104 C    1.418   102 C    1.396   128 H    0.972
                           107 C    0.103
   104   6 C    3.988 --   103 C    1.418   106 C    1.414   105 C    1.020
                           109 C    0.104
   105   6 C    3.996 --   104 C    1.020   130 H    0.984   129 H    0.981
                           131 H    0.971
   106   6 C    3.989 --   107 C    1.417   104 C    1.414   132 H    0.972
                           102 C    0.103
   107   6 C    3.988 --   106 C    1.417   109 C    1.416   108 C    1.020
                           103 C    0.103
   108   6 C    3.996 --   107 C    1.020   135 H    0.983   134 H    0.983
                           133 H    0.971
   109   6 C    3.987 --   107 C    1.416   102 C    1.399   136 H    0.972
                           104 C    0.104
   110   1 H    1.002 --    70 C    0.971
   111   1 H    0.998 --    72 C    0.976
   112   1 H    1.005 --    73 C    0.973
   113   1 H    1.005 --    78 C    0.973
   114   1 H    1.002 --    79 C    0.974
   115   1 H    1.002 --    84 C    0.974
   116   1 H    1.005 --    85 C    0.973
   117   1 H    1.002 --    89 C    0.972
   118   1 H    1.004 --    91 C    0.984
   119   1 H    1.006 --    91 C    0.972
   120   1 H    1.005 --    91 C    0.981
   121   1 H    1.000 --    92 C    0.972
   122   1 H    1.004 --    94 C    0.985
   123   1 H    1.005 --    94 C    0.979
   124   1 H    1.006 --    94 C    0.972
   125   1 H    1.003 --    95 C    0.972
   126   1 H    1.005 --    97 C    0.973
   127   1 H    0.998 --    98 C    0.976
   128   1 H    1.003 --   103 C    0.972
   129   1 H    1.005 --   105 C    0.981
   130   1 H    1.004 --   105 C    0.984
   131   1 H    1.006 --   105 C    0.971
   132   1 H    1.000 --   106 C    0.972
   133   1 H    1.006 --   108 C    0.971
   134   1 H    1.004 --   108 C    0.983
   135   1 H    1.004 --   108 C    0.983
   136   1 H    1.003 --   109 C    0.972
   137   6 C    3.927 --   138 C    2.370   141 C    1.334   140 C    0.191
   138   6 C    3.925 --   137 C    2.370   139 C    1.333   142 C    0.190
   139   6 C    3.935 --   140 C    2.452   138 C    1.333
   140   6 C    3.890 --   139 C    2.452    14 C    1.188   137 C    0.191
   141   6 C    3.933 --   142 C    2.450   137 C    1.334
   142   6 C    3.891 --   141 C    2.450   150 C    1.191   138 C    0.190
   143   6 C    3.923 --   144 C    2.377   147 C    1.327   146 C    0.190
   144   6 C    3.925 --   143 C    2.377   145 C    1.328   148 C    0.190
   145   6 C    3.932 --   146 C    2.456   144 C    1.328
   146   6 C    3.890 --   145 C    2.456   162 C    1.184   143 C    0.190
   147   6 C    3.936 --   148 C    2.459   143 C    1.327
   148   6 C    3.889 --   147 C    2.459    82 C    1.182   144 C    0.190
   149  29 Cu   2.165 --   155 N    0.499   181 N    0.499   160 N    0.499
                           180 N    0.499
   150   6 C    3.928 --   151 C    1.256   179 C    1.256   142 C    1.191
   151   6 C    3.898 --   155 N    1.259   150 C    1.256   152 C    1.188
   152   6 C    3.955 --   153 C    1.640   151 C    1.188   190 H    0.974
   153   6 C    3.955 --   152 C    1.640   154 C    1.181   191 H    0.973
   154   6 C    3.906 --   156 C    1.324   155 N    1.222   153 C    1.181
   155   7 N    3.242 --   151 C    1.259   154 C    1.222   149 Cu   0.499
   156   6 C    3.930 --   154 C    1.324   157 C    1.324   182 C    1.025
   157   6 C    3.906 --   156 C    1.324   160 N    1.223   158 C    1.181
   158   6 C    3.956 --   159 C    1.641   157 C    1.181   192 H    0.973
   159   6 C    3.955 --   158 C    1.641   161 C    1.187   193 H    0.974
   160   7 N    3.241 --   161 C    1.258   157 C    1.223   149 Cu   0.499
   161   6 C    3.900 --   162 C    1.259   160 N    1.258   159 C    1.187
   162   6 C    3.928 --   163 C    1.259   161 C    1.259   146 C    1.184
   163   6 C    3.900 --   162 C    1.259   181 N    1.258   164 C    1.187
   164   6 C    3.955 --   165 C    1.641   163 C    1.187   194 H    0.974
   165   6 C    3.956 --   164 C    1.641   166 C    1.181   195 H    0.973
   166   6 C    3.906 --   167 C    1.323   181 N    1.223   165 C    1.181
   167   6 C    3.931 --   176 C    1.324   166 C    1.323   168 C    1.025
   168   6 C    3.988 --   169 C    1.400   175 C    1.393   167 C    1.025
                           172 C    0.103
   169   6 C    3.987 --   170 C    1.414   168 C    1.400   196 H    0.972
                           173 C    0.104
   170   6 C    3.988 --   172 C    1.419   169 C    1.414   171 C    1.020
                           175 C    0.103
   171   6 C    3.996 --   170 C    1.020   197 H    0.984   199 H    0.982
                           198 H    0.971
   172   6 C    3.988 --   170 C    1.419   173 C    1.412   200 H    0.972
                           168 C    0.103
   173   6 C    3.988 --   175 C    1.420   172 C    1.412   174 C    1.020
                           169 C    0.104
   174   6 C    3.996 --   173 C    1.020   201 H    0.984   202 H    0.981
                           203 H    0.971
   175   6 C    3.987 --   173 C    1.420   168 C    1.393   204 H    0.972
                           170 C    0.103
   176   6 C    3.906 --   167 C    1.324   180 N    1.222   177 C    1.181
   177   6 C    3.955 --   178 C    1.640   176 C    1.181   205 H    0.973
   178   6 C    3.955 --   177 C    1.640   179 C    1.188   206 H    0.974
   179   6 C    3.898 --   180 N    1.260   150 C    1.256   178 C    1.188
   180   7 N    3.241 --   179 C    1.260   176 C    1.222   149 Cu   0.499
   181   7 N    3.241 --   163 C    1.258   166 C    1.223   149 Cu   0.499
   182   6 C    3.988 --   183 C    1.398   189 C    1.395   156 C    1.025
                           186 C    0.103
   183   6 C    3.987 --   184 C    1.415   182 C    1.398   207 H    0.972
                           187 C    0.104
   184   6 C    3.988 --   186 C    1.417   183 C    1.415   185 C    1.020
                           189 C    0.103
   185   6 C    3.996 --   184 C    1.020   208 H    0.983   210 H    0.982
                           209 H    0.971
   186   6 C    3.988 --   184 C    1.417   187 C    1.413   211 H    0.972
                           182 C    0.103
   187   6 C    3.988 --   189 C    1.419   186 C    1.413   188 C    1.020
                           183 C    0.104
   188   6 C    3.996 --   187 C    1.020   213 H    0.983   212 H    0.982
                           214 H    0.971
   189   6 C    3.987 --   187 C    1.419   182 C    1.395   215 H    0.972
                           184 C    0.103
   190   1 H    1.002 --   152 C    0.974
   191   1 H    1.005 --   153 C    0.973
   192   1 H    1.005 --   158 C    0.973
   193   1 H    1.002 --   159 C    0.974
   194   1 H    1.002 --   164 C    0.974
   195   1 H    1.005 --   165 C    0.973
   196   1 H    1.003 --   169 C    0.972
   197   1 H    1.004 --   171 C    0.984
   198   1 H    1.006 --   171 C    0.971
   199   1 H    1.004 --   171 C    0.982
   200   1 H    1.000 --   172 C    0.972
   201   1 H    1.004 --   174 C    0.984
   202   1 H    1.005 --   174 C    0.981
   203   1 H    1.006 --   174 C    0.971
   204   1 H    1.003 --   175 C    0.972
   205   1 H    1.005 --   177 C    0.973
   206   1 H    1.002 --   178 C    0.974
   207   1 H    1.003 --   183 C    0.972
   208   1 H    1.004 --   185 C    0.983
   209   1 H    1.006 --   185 C    0.971
   210   1 H    1.004 --   185 C    0.982
   211   1 H    1.000 --   186 C    0.972
   212   1 H    1.004 --   188 C    0.982
   213   1 H    1.004 --   188 C    0.983
   214   1 H    1.006 --   188 C    0.971
   215   1 H    1.003 --   189 C    0.972
 ---------------------------------------------------------------------------

           -------------------------------------------------
          | TOTAL ENERGY             -348.458219957166 Eh   |
          | GRADIENT NORM               0.000460003593 Eh/α |
          | HOMO-LUMO GAP               0.000021054327 eV   |
           -------------------------------------------------

 * finished run on 2022/07/30 at 07:24:51.238
